/*--------------------------------*- C++ -*----------------------------------*\
| =========                 |                                                 |
| \\      /  F ield         | OpenFOAM: The Open Source CFD Toolbox           |
|  \\    /   O peration     | Version:  v1912                                 |
|   \\  /    A nd           | Website:  www.openfoam.com                      |
|    \\/     M anipulation  |                                                 |
\*---------------------------------------------------------------------------*/
FoamFile
{
    version     2.0;
    format      ascii;
    class       surfaceScalarField;
    location    "20";
    object      alphaPhi0.water;
}
// * * * * * * * * * * * * * * * * * * * * * * * * * * * * * * * * * * * * * //

dimensions      [0 3 -1 0 0 0 0];
oriented        oriented;


internalField   nonuniform List<scalar> 
40282
(
0.00278507
0.00263354
1.93145
-1.93811
1.93254
0.0055741
-1.92348
1.9114
0.0120731
-1.89638
1.87833
0.018051
-1.85744
1.83378
0.0236613
-1.80729
1.77812
0.0291699
-1.74636
1.712
0.0343564
-1.67518
1.63595
0.0392213
-1.59434
1.55048
0.0438616
-1.50442
1.45622
0.0482036
-1.406
1.35387
0.0521288
-1.29989
1.24412
0.0557666
-1.1868
1.12788
0.0589245
-1.06756
1.00616
0.0614076
-0.943555
0.880282
0.0632726
-0.81633
0.752268
0.0640621
-0.687947
0.623601
0.0643455
-0.558378
0.48579
0.0725883
-0.401826
0.297126
0.104699
-0.17047
0.0552728
0.115197
-0.0042086
0.00557981
1.86611
-1.86164
1.85473
-0.0140336
0.0209459
-1.84512
1.83276
-0.0254903
0.0378583
-1.81763
1.79977
-0.0367179
0.0545764
-1.77919
1.75594
-0.0476518
0.0708992
-1.73008
1.70163
-0.0583252
0.0867737
-1.67066
1.6372
-0.068631
0.102089
-1.60131
1.56305
-0.0784852
0.116745
-1.52246
1.47963
-0.0878232
0.130656
-1.4346
1.38745
-0.0965689
0.143722
-1.33827
1.28709
-0.104706
0.155889
-1.23399
1.17907
-0.112179
0.167095
-1.12232
1.06387
-0.118741
0.177185
-1.00383
0.942128
-0.124326
0.186026
-0.879062
0.814762
-0.128919
0.193219
-0.749251
0.683101
-0.131453
0.197603
-0.616457
0.547354
-0.132695
0.201798
-0.473757
0.396244
-0.147076
0.224589
-0.316943
0.239426
-0.187157
0.264674
-0.164959
0.0870112
-0.200261
0.278209
-0.00698587
0.00833138
1.79923
-1.79506
1.78828
-0.0280505
0.0348375
-1.77884
1.76678
-0.050426
0.062487
-1.7521
1.73483
-0.0725237
0.0898025
-1.71496
1.69253
-0.0941751
0.116605
-1.66757
1.6401
-0.115245
0.142715
-1.61016
1.57779
-0.13559
0.167957
-1.54304
1.50597
-0.155072
0.192148
-1.46662
1.42507
-0.173567
0.21512
-1.38137
1.3356
-0.190963
0.236736
-1.28782
1.23812
-0.207162
0.25686
-1.18659
1.13329
-0.222108
0.27541
-1.07829
1.02169
-0.23572
0.292324
-0.96354
0.903948
-0.247815
0.307407
-0.84303
0.780907
-0.257698
0.31982
-0.717753
0.653169
-0.264158
0.328742
-0.585842
0.514922
-0.273792
0.344712
-0.441109
0.366123
-0.302784
0.37777
-0.291761
0.219176
-0.340669
0.413254
-0.148051
0.076113
-0.353565
0.425503
-0.00961406
0.0108893
1.7348
-1.73095
1.72454
-0.04154
0.0479476
-1.71558
1.70408
-0.074475
0.0859787
-1.69004
1.6735
-0.107031
0.123574
-1.65446
1.63295
-0.139002
0.160517
-1.60898
1.58258
-0.170173
0.19657
-1.55379
1.52264
-0.200341
0.231495
-1.48915
1.45339
-0.229286
0.265054
-1.41538
1.37518
-0.256803
0.297004
-1.33285
1.28845
-0.282707
0.327108
-1.24204
1.1937
-0.306825
0.35516
-1.14351
1.09156
-0.329027
0.380977
-1.03796
0.982785
-0.34923
0.404401
-0.92618
0.868285
-0.367196
0.425091
-0.809215
0.749082
-0.381992
0.442125
-0.687643
0.623915
-0.393949
0.457677
-0.557142
0.487771
-0.416298
0.485669
-0.417004
0.346069
-0.451983
0.522918
-0.275847
0.20668
-0.485241
0.554408
-0.138231
0.0695745
-0.496904
0.565561
-0.0121096
0.0133171
1.67267
-1.66902
1.66294
-0.0543106
0.0603945
-1.65442
1.64349
-0.0974112
0.108342
-1.63016
1.61442
-0.140021
0.155759
-1.59629
1.57579
-0.181923
0.202423
-1.55293
1.52774
-0.222854
0.248047
-1.50024
1.47045
-0.262541
0.292332
-1.4384
1.40413
-0.300733
0.335004
-1.36767
1.32907
-0.337146
0.375746
-1.28837
1.24562
-0.371507
0.414257
-1.20088
1.15421
-0.403561
0.450226
-1.10568
1.05538
-0.433074
0.483384
-1.00338
0.949789
-0.459809
0.513397
-0.894753
0.838397
-0.483291
0.539647
-0.780848
0.722092
-0.502635
0.561391
-0.661537
0.598444
-0.522256
0.585349
-0.532939
0.465892
-0.555086
0.622133
-0.398255
0.330739
-0.593175
0.66069
-0.263746
0.197348
-0.623066
0.689464
-0.131299
0.0652532
-0.633763
0.699809
-0.0144652
0.0155948
1.61288
-1.60927
1.60354
-0.0664148
0.0721425
-1.59553
1.58524
-0.119156
0.129445
-1.57267
1.55783
-0.171347
0.186195
-1.54071
1.52134
-0.222744
0.242118
-1.49971
1.47585
-0.273045
0.296911
-1.44975
1.42145
-0.321934
0.350236
-1.39097
1.35832
-0.369097
0.401743
-1.32354
1.28665
-0.414201
0.451085
-1.2477
1.20673
-0.456907
0.497883
-1.16378
1.1189
-0.496852
0.541729
-1.07215
1.02361
-0.533726
0.582266
-0.973354
0.921479
-0.567113
0.618988
-0.868107
0.813347
-0.596247
0.651007
-0.757299
0.69973
-0.620605
0.678174
-0.639997
0.577903
-0.649102
0.711196
-0.514045
0.449256
-0.689153
0.753942
-0.384194
0.319269
-0.727844
0.79277
-0.254663
0.190355
-0.755469
0.819778
-0.126165
0.0620799
-0.765411
0.829495
-0.0166623
0.017705
1.55491
-1.55187
1.54655
-0.0777769
0.0831012
-1.5391
1.52952
-0.139574
0.149155
-1.5178
1.50395
-0.200824
0.214672
-1.48797
1.46985
-0.26123
0.279353
-1.44959
1.42719
-0.320491
0.342889
-1.40266
1.376
-0.378244
0.404899
-1.34723
1.31636
-0.434113
0.464989
-1.28339
1.24836
-0.487729
0.522762
-1.21128
1.1722
-0.538673
0.57776
-1.13113
1.08812
-0.586495
0.629502
-1.04323
0.996511
-0.630783
0.677504
-0.94803
0.89789
-0.670946
0.721086
-0.846181
0.793009
-0.705978
0.759149
-0.738387
0.681906
-0.736236
0.792717
-0.623122
0.562276
-0.773781
0.834627
-0.500088
0.437234
-0.818807
0.881661
-0.374169
0.311147
-0.857617
0.92064
-0.248257
0.185452
-0.883796
0.946601
-0.122597
0.0598946
-0.893111
0.955814
-0.0186821
0.0196268
1.49938
-1.49661
1.49174
-0.0882983
0.0931693
-1.48491
1.47613
-0.158519
0.167305
-1.46537
1.45265
-0.228219
0.240946
-1.43793
1.4212
-0.297116
0.313842
-1.40247
1.38171
-0.364885
0.385643
-1.35892
1.33409
-0.431136
0.455965
-1.30721
1.27829
-0.495462
0.524389
-1.24732
1.21431
-0.557429
0.590439
-1.17926
1.14221
-0.616549
0.653607
-1.10315
1.06212
-0.672303
0.713329
-1.01917
0.974329
-0.724132
0.768973
-0.927667
0.879267
-0.771263
0.819663
-0.829207
0.77758
-0.812505
0.864131
-0.724274
0.66883
-0.849687
0.905131
-0.611081
0.551504
-0.895895
0.955472
-0.490781
0.429443
-0.944754
1.00609
-0.367826
0.306113
-0.98384
1.04555
-0.244366
0.182536
-1.00925
1.07108
-0.120531
0.0587791
-1.01811
1.07986
-0.0205015
0.0213357
1.44573
-1.44307
1.4387
-0.0978785
0.102242
-1.43258
1.4247
-0.175807
0.183693
-1.41503
1.40356
-0.253285
0.264757
-1.39026
1.37511
-0.330097
0.345247
-1.35809
1.33917
-0.405872
0.424789
-1.31833
1.29554
-0.480241
0.50303
-1.27078
1.24403
-0.552769
0.579517
-1.21528
1.18451
-0.622946
0.653718
-1.15171
1.11687
-0.690242
0.725078
-1.08
1.04111
-0.754044
0.792932
-1.00023
0.957368
-0.813644
0.856502
-0.912596
0.865968
-0.86806
0.914687
-0.817557
0.767423
-0.915945
0.96608
-0.715337
0.660902
-0.961067
1.0155
-0.604181
0.545729
-1.01552
1.07397
-0.486142
0.425855
-1.0679
1.12818
-0.365142
0.304165
-1.10775
1.16872
-0.24299
0.181591
-1.133
1.1944
-0.119927
0.0588274
-1.14166
1.20276
-0.0220957
0.0228069
1.39414
-1.39182
1.38802
-0.106405
0.110202
-1.38269
1.37581
-0.191226
0.198108
-1.36735
1.35727
-0.275747
0.285819
-1.34556
1.33218
-0.359803
0.373188
-1.31708
1.30021
-0.443038
0.459901
-1.28155
1.26104
-0.525111
0.545617
-1.23865
1.21434
-0.605555
0.629868
-1.18806
1.15978
-0.683827
0.71211
-1.12946
1.09708
-0.759342
0.791721
-1.06262
1.02607
-0.831378
0.86793
-0.987416
0.946679
-0.899093
0.939829
-0.903892
0.85909
-0.961259
1.00606
-0.812336
0.763633
-1.01641
1.06511
-0.71269
0.659208
-1.07044
1.12392
-0.603394
0.545788
-1.13302
1.19062
-0.48691
0.427135
-1.18921
1.24899
-0.366721
0.305842
-1.23055
1.29143
-0.244597
0.183003
-1.2563
1.31789
-0.121112
0.0604787
-1.26513
1.32577
-0.0234401
0.0240163
1.34424
-1.34229
1.33912
-0.113757
0.116925
-1.33467
1.32889
-0.204565
0.210336
-1.32177
1.31326
-0.295302
0.303813
-1.30332
1.2919
-0.385845
0.397265
-1.27894
1.26438
-0.475936
0.490498
-1.24816
1.23022
-0.565232
0.583168
-1.21051
1.18894
-0.653275
0.674844
-1.16545
1.13998
-0.739528
0.764997
-1.11247
1.08287
-0.823331
0.852932
-1.05113
1.0172
-0.903865
0.937793
-0.981053
0.94267
-0.980157
1.01854
-0.902058
0.859224
-1.05072
1.09355
-0.81421
0.766958
-1.11399
1.16124
-0.717156
0.664599
-1.17792
1.23047
-0.60954
0.552466
-1.24897
1.30605
-0.493835
0.434001
-1.30982
1.36965
-0.373233
0.311745
-1.3536
1.41509
-0.249696
0.187184
-1.3806
1.44311
-0.124396
0.0641841
-1.39022
1.45043
-0.0245116
0.0249423
1.29623
-1.29449
1.29201
-0.119811
0.122295
-1.2885
1.28394
-0.21561
0.22017
-1.27829
1.27149
-0.311627
0.318424
-1.2635
1.25424
-0.407819
0.417074
-1.24365
1.23165
-0.504059
0.516061
-1.21817
1.20311
-0.60001
0.615065
-1.18639
1.16792
-0.695283
0.713755
-1.1476
1.12534
-0.789359
0.811619
-1.10105
1.07464
-0.881516
0.907928
-1.04602
1.01511
-0.97087
1.00178
-0.981845
0.946167
-1.05631
1.09199
-0.908038
0.867431
-1.13609
1.1767
-0.824347
0.778678
-1.20859
1.25426
-0.730115
0.678501
-1.28353
1.33514
-0.624055
0.567189
-1.36404
1.42091
-0.508314
0.447785
-1.4309
1.49143
-0.385911
0.322972
-1.47844
1.54138
-0.259222
0.194871
-1.50763
1.57198
-0.130284
0.07057
-1.51892
1.57864
-0.0252904
0.0255677
1.25008
-1.24878
1.24703
-0.124458
0.126212
-1.24454
1.24127
-0.224165
0.227428
-1.23719
1.23224
-0.324421
0.32937
-1.22636
1.21945
-0.425327
0.432233
-1.21145
1.20226
-0.526884
0.536073
-1.19179
1.17993
-0.628814
0.640674
-1.16656
1.15157
-0.730846
0.745834
-1.13484
1.11625
-0.832491
0.851089
-1.09565
1.07293
-0.933022
0.955741
-1.04796
1.0206
-1.03153
1.05889
-0.99074
0.958273
-1.12678
1.15924
-0.923105
0.885153
-1.21678
1.25473
-0.844361
0.800578
-1.29987
1.34366
-0.753503
0.70296
-1.38721
1.43775
-0.649065
0.592125
-1.47886
1.5358
-0.532506
0.470579
-1.55379
1.61572
-0.406709
0.341275
-1.60691
1.67234
-0.274668
0.207275
-1.63961
1.70701
-0.139704
0.0805185
-1.65385
1.71304
-0.0257626
0.0258824
1.20525
-1.20459
1.2036
-0.127616
0.128611
-1.20216
1.20026
-0.230066
0.231971
-1.19783
1.19483
-0.333431
0.336435
-1.19117
1.18677
-0.438009
0.442409
-1.18154
1.17539
-0.543911
0.550061
-1.16821
1.15985
-0.651008
0.659364
-1.1502
1.13911
-0.759168
0.770258
-1.12643
1.11202
-0.867972
0.882388
-1.09569
1.07728
-0.976773
0.99518
-1.05662
1.03351
-1.08469
1.1078
-1.00779
0.979279
-1.19041
1.21892
-0.947812
0.913228
-1.29179
1.32637
-0.875392
0.834109
-1.38709
1.42837
-0.789074
0.740018
-1.48856
1.53762
-0.68687
0.629779
-1.59391
1.651
-0.569043
0.50504
-1.67991
1.74391
-0.438201
0.36903
-1.74128
1.81045
-0.29812
0.226111
-1.77947
1.85148
-0.153789
0.0954433
-1.79824
1.85659
-0.0259225
0.0258859
1.16229
-1.16209
1.16186
-0.129234
0.129463
-1.1615
1.16098
-0.233208
0.23373
-1.16024
1.15923
-0.338481
0.33949
-1.15787
1.15608
-0.445572
0.447366
-1.15376
1.15082
-0.554708
0.557651
-1.14713
1.14254
-0.665984
0.670569
-1.13692
1.13012
-0.779417
0.786218
-1.12197
1.11227
-0.894736
0.904433
-1.10083
1.08744
-1.01147
1.02486
-1.07186
1.05388
-1.12884
1.14683
-1.03323
1.00968
-1.24558
1.26913
-0.982967
0.952825
-1.3595
1.38964
-0.919012
0.881278
-1.46878
1.50652
-0.839287
0.792605
-1.58653
1.63322
-0.740866
0.683957
-1.70918
1.76609
-0.622029
0.555416
-1.81058
1.8772
-0.484592
0.410206
-1.88426
1.95865
-0.333127
0.254414
-1.93114
2.00986
-0.174947
0.118057
-1.95739
2.01428
-0.0257749
0.0255883
1.12081
-1.12087
1.12139
-0.129309
0.128787
-1.12209
1.12293
-0.233563
0.232724
-1.12387
1.12484
-0.339503
0.338528
-1.12578
1.12662
-0.44785
0.447013
-1.12727
1.12761
-0.558977
0.55863
-1.12754
1.12691
-0.673243
0.673875
-1.12558
1.12339
-0.790831
0.793018
-1.12016
1.11569
-0.911708
0.916178
-1.10976
1.10211
-1.03567
1.04331
-1.0925
1.08064
-1.16217
1.17403
-1.06621
1.04891
-1.29012
1.30743
-1.02836
1.00419
-1.41753
1.4417
-0.976014
0.943506
-1.54255
1.57506
-0.906279
0.863671
-1.67898
1.72159
-0.814885
0.759363
-1.82364
1.87916
-0.696933
0.627738
-1.9467
2.01589
-0.552184
0.471002
-2.03906
2.12024
-0.385387
0.29703
-2.10005
2.18841
-0.206829
0.151605
-2.13863
2.19385
-0.0253352
0.0250103
1.08081
-1.08149
1.08272
-0.127888
0.126657
-1.08441
1.08655
-0.231199
0.229066
-1.08908
1.09196
-0.336552
0.333673
-1.09513
1.09853
-0.44484
0.44144
-1.10208
1.10569
-0.556605
0.552997
-1.10924
1.11262
-0.672474
0.669095
-1.1157
1.11832
-0.792813
0.790192
-1.1203
1.12145
-0.917908
0.916757
-1.12155
1.12033
-1.0479
1.04912
-1.11752
1.11281
-1.1826
1.18731
-1.10585
1.09625
-1.32133
1.33093
-1.08358
1.06735
-1.46256
1.47879
-1.04702
1.02217
-1.60464
1.6295
-0.992346
0.956684
-1.76192
1.79758
-0.913809
0.862451
-1.93414
1.9855
-0.801793
0.731465
-2.08762
2.15794
-0.651483
0.562373
-2.20883
2.29794
-0.46547
0.363238
-2.29373
2.39596
-0.256768
0.201969
-2.35362
2.40842
-0.024629
0.0241822
1.0421
-1.04317
1.04504
-0.125067
0.123194
-1.04765
1.05096
-0.226277
0.222967
-1.05495
1.05958
-0.329825
0.325193
-1.06481
1.07061
-0.43673
0.430936
-1.0769
1.08361
-0.547713
0.541002
-1.09066
1.09794
-0.663638
0.656351
-1.10537
1.1128
-0.785059
0.777626
-1.12009
1.12705
-0.912632
0.905669
-1.13349
1.13917
-1.04689
1.04121
-1.14384
1.14718
-1.18811
1.18476
-1.14886
1.14845
-1.3362
1.33661
-1.14551
1.13948
-1.49042
1.49645
-1.12972
1.11567
-1.64975
1.6638
-1.09695
1.07258
-1.82881
1.85317
-1.04066
0.998915
-2.03387
2.07561
-0.945451
0.878828
-2.22897
2.29559
-0.797997
0.702462
-2.39492
2.49046
-0.592764
0.471523
-2.52226
2.6435
-0.340696
0.280223
-2.62225
2.68272
-0.0236902
0.0231409
1.00487
-1.00647
1.00889
-0.120992
0.118564
-1.01228
1.01662
-0.219052
0.214715
-1.02188
1.02806
-0.319659
0.313484
-1.03513
1.04306
-0.423909
0.415979
-1.05181
1.06134
-0.532688
0.523158
-1.07159
1.08251
-0.647036
0.636121
-1.09402
1.10604
-0.767676
0.755656
-1.11845
1.13113
-0.895635
0.882958
-1.14392
1.15664
-1.03183
1.01911
-1.16909
1.18102
-1.17702
1.16509
-1.19214
1.20208
-1.33186
1.32192
-1.21044
1.21672
-1.49655
1.49027
-1.22027
1.22051
-1.67126
1.67102
-1.21715
1.20955
-1.87019
1.87779
-1.19567
1.17236
-2.11009
2.1334
-1.13635
1.08459
-2.35811
2.40987
-1.01415
0.922067
-2.59085
2.68293
-0.805712
0.664662
-2.79548
2.93653
-0.50152
0.417413
-2.98058
3.06468
-0.0225586
0.0219281
0.96911
-0.970798
0.973682
-0.115846
0.112962
-0.977715
0.982897
-0.209845
0.204664
-0.98922
0.99668
-0.306506
0.299047
-1.00528
1.01501
-0.406941
0.397211
-1.02585
1.0378
-0.512168
0.500224
-1.05082
1.06491
-0.623323
0.609234
-1.08004
1.09617
-0.741249
0.725118
-1.11325
1.1312
-0.867288
0.84934
-1.14994
1.16938
-1.00266
0.983213
-1.1894
1.20985
-1.14856
1.12811
-1.23055
1.25126
-1.30631
1.28559
-1.27171
1.29159
-1.47704
1.45716
-1.31043
1.32775
-1.66235
1.64503
-1.34351
1.35783
-1.8749
1.86058
-1.36954
1.37561
-2.14356
2.13749
-1.37202
1.3546
-2.44815
2.46557
-1.31888
1.25945
-2.7676
2.82703
-1.169
1.03819
-3.10321
3.23402
-0.865982
0.770381
-3.48552
3.58112
0.0253889
0.0294578
-0.0548454
0.0767903
-0.168569
0.0919758
0.236833
-0.286126
0.0492926
0.347776
-0.411528
0.0637522
0.466475
-0.52529
0.0588151
0.606406
-0.703773
0.0973635
0.805813
-0.904825
0.0990599
0.994973
-1.06887
0.0738929
1.12639
-1.1795
0.0531071
1.24733
-1.35215
0.104822
1.50338
-1.67147
0.168085
1.82529
-1.97204
0.146748
2.10215
-2.18342
0.081264
2.24104
-2.30972
0.0686791
2.37508
-2.41751
0.0424363
2.44434
-2.47423
0.0298874
2.52521
-2.60662
0.0814127
2.70039
-2.79791
0.0975203
2.88915
-2.94606
0.0996474
2.9193
-2.83222
0.067078
2.70705
-2.60799
-0.0381106
2.3737
-0.747293
-1.59429
-1.21008
2.57312
-1.36304
-3.49537
4.16605
-0.670683
-4.68133
5.08912
-0.407793
-5.41585
5.67814
-0.262284
-5.88793
6.05436
-0.166423
-6.18482
6.28558
-0.100764
-6.36196
6.41846
-0.0565011
-6.45899
6.4867
-0.0277091
-6.50431
6.51391
-0.00960174
-6.51743
6.51595
0.0014789
-6.51014
6.50176
0.00838389
-6.49155
6.48009
0.0114553
-6.46787
6.45521
0.0126533
-6.44238
6.42948
0.0128947
-6.41655
6.40358
0.012971
-6.39055
6.37745
0.0130948
-6.36434
6.35125
0.0130839
-6.33825
6.32539
0.0128605
-6.31271
6.30027
0.0124416
-6.28813
6.27633
0.011796
-6.26493
6.25395
0.010978
-6.2434
6.23324
0.0101581
-6.22346
6.21403
0.00942425
-6.20502
6.19647
0.00855438
-6.18843
6.18091
0.00752391
-6.17385
6.16711
0.00673507
-6.16057
6.15404
0.00653028
-6.14741
6.14058
0.0068287
-6.13354
6.12629
0.00725083
-6.11888
6.11134
0.00753158
-6.10376
6.09616
0.00760308
-6.08857
6.08098
0.00759315
-6.07337
6.06571
0.00766631
-6.05798
6.05011
0.00786218
-6.04214
6.03404
0.00810668
-6.02578
6.01757
0.00820808
-6.0091
6.00109
0.00801016
-5.99244
5.98458
0.00785978
-0.103759
0.178614
-0.0744769
0.110277
-0.15672
-0.150175
0.198132
0.208381
-0.235679
-0.0969273
0.126601
0.262065
-0.311414
-0.114914
0.126701
0.371784
-0.411204
-0.107193
0.146612
0.45602
-0.512724
-0.171171
0.227872
0.583938
-0.667218
-0.193262
0.276709
0.757346
-0.847405
-0.160275
0.250263
0.930921
-1.00239
-0.117187
0.188655
1.0617
-1.12476
-0.188582
0.251636
1.22838
-1.38219
-0.333797
0.487602
1.46805
-0.799976
-0.307976
0.121754
0.344959
-0.186262
-0.150656
3.46945e-18
0.149861
-0.166117
-0.0386425
0
0.17965
-0.170551
-0.0290248
-8.80546e-15
0.102192
-0.027813
-0.0215433
-1.47451e-17
0.00154966
-2.86519e-22
-0.00154966
1.79045e-20
4.49793e-21
-1.52345e-19
0
1.29014e-21
-3.00813e-20
2.71794e-20
0
1.6692e-23
-1.48229e-20
5.32425e-21
0
-4.272e-22
-6.5026e-20
2.31297e-19
0
4.00011e-20
0.0958859
0.937824
2.08182
-2.93958
-1.8573
2.71382
2.45652
-3.31304
-3.47488
4.11166
1.33936
-1.97615
-4.63555
5.0658
0.831722
-1.26198
-5.41902
5.70804
0.540872
-0.829886
-5.94269
6.13112
0.346371
-0.534803
-6.28056
6.39739
0.211715
-0.328547
-6.48713
6.55486
0.120427
-0.188158
-6.60477
6.64041
0.0607888
-0.0964248
-6.66476
6.68013
0.0231888
-0.0385565
-6.68843
6.692
-0.000852703
-0.00271537
-6.69089
6.68687
-0.0139774
0.0179952
-6.68064
6.67293
-0.0206972
0.0284093
-6.6643
6.65516
-0.0233254
0.0324659
-6.64582
6.63645
-0.02388
0.0332469
-6.62716
6.61799
-0.0239007
0.0330732
-6.6089
6.59989
-0.023955
0.0329673
-6.59097
6.58217
-0.0238081
0.0326102
-6.57353
6.56511
-0.0232577
0.0316793
-6.55694
6.5491
-0.0222846
0.0301194
-6.54166
6.53461
-0.0208859
0.0279372
-6.52795
6.52166
-0.0192861
0.0255786
-6.51565
6.50986
-0.0178051
0.0235925
-6.5042
6.49862
-0.0166089
0.0221901
-6.49313
6.48779
-0.0152175
0.0205642
-6.48266
6.47777
-0.0134846
0.0183682
-6.4731
6.46859
-0.0121436
0.0166582
-6.46412
6.45958
-0.0118424
0.0163772
-6.45489
6.44998
-0.0124657
0.017375
-6.44483
6.43946
-0.0133177
0.0186795
-6.43393
6.42828
-0.0138797
0.0195342
-6.42255
6.41678
-0.0140635
0.0198348
-6.41096
6.40509
-0.0141302
0.0200018
-6.39913
6.39305
-0.0143651
0.0204405
-6.38682
6.3804
-0.014854
0.0212705
-6.37377
6.3669
-0.0155007
0.0223677
-6.35983
6.3525
-0.0159755
0.0233054
-6.34514
6.33752
-0.015955
0.0235761
-6.33017
6.32256
-0.0157424
0.0233491
-0.248438
0.308949
-0.0605111
0.113869
-0.152234
-0.240267
0.278632
0.190296
-0.202978
-0.151176
0.197562
0.185739
-0.21493
-0.150521
0.179712
0.292459
-0.321489
-0.17948
0.208508
0.349724
-0.381119
-0.269778
0.30117
0.420043
-0.470055
-0.343284
0.393317
0.53218
-0.604227
-0.33403
0.406077
0.680931
-0.752857
-0.262054
0.33398
0.807398
-0.832037
-0.292942
0.317581
0.735945
-0.0896854
-0.473726
0.0500453
7.41527e-20
-7.77953e-22
0
5.7837e-21
9.16569e-23
-2.69121e-39
4.82995e-21
-4.92161e-21
9.06906e-24
3.43668e-20
1.77576e-21
1.91248e-20
-9.17679e-17
1.84936e-14
8.80563e-15
1.00274e-13
1.03774e-16
-1.34456e-15
1.43366e-17
2.16953e-16
1.70062e-17
1.02984e-21
2.36641e-22
6.34419e-17
-8.96431e-22
3.28213e-22
-5.67055e-39
-2.62296e-22
-2.07891e-22
2.19471e-31
6.89505e-22
-2.07531e-23
2.56982e-13
5.89164e-19
1.65306e-21
-4.47973e-13
-1.13945e-20
0
-6.44331e-19
2.67653e-20
-0.846387
2.27071
4.35969
-5.69836
-2.72314
3.22331
3.95474
-4.45491
-3.74841
4.25227
2.54516
-3.04902
-4.70751
5.10507
1.67734
-2.0749
-5.44419
5.72726
1.11674
-1.39982
-5.95929
6.14659
0.72323
-0.910532
-6.29482
6.41038
0.445322
-0.560879
-6.49905
6.56583
0.25586
-0.322639
-6.61522
6.65098
0.13235
-0.168105
-6.67607
6.69293
0.0547695
-0.0716374
-6.70341
6.70898
0.00702895
-0.0126018
-6.71097
6.71032
-0.0204654
0.0211162
-6.70781
6.70405
-0.0343095
0.0380706
-6.6995
6.69453
-0.039668
0.0446354
-6.68942
6.68434
-0.0405844
0.0456693
-6.6794
6.67462
-0.0401505
0.044927
-6.66995
6.66535
-0.0398279
0.044432
-6.66079
6.65629
-0.0392658
0.0437666
-6.65192
6.6477
-0.0379963
0.0422128
-6.64368
6.63995
-0.0358684
0.0396044
-6.63656
6.63354
-0.0329115
0.0359317
-6.63087
6.62845
-0.0298888
0.032308
-6.62616
6.62389
-0.0275713
0.0298439
-6.6215
6.61889
-0.0262077
0.0288195
-6.61606
6.61311
-0.0246383
0.0275926
-6.61013
6.60719
-0.0222216
0.025164
-6.60428
6.60137
-0.0203054
0.0232135
-6.59839
6.59523
-0.020162
0.0233174
-6.59182
6.58813
-0.0216137
0.0253096
-6.58415
6.57993
-0.0233858
0.027607
-6.57553
6.57101
-0.0245391
0.0290615
-6.5664
6.56177
-0.0249619
0.0295986
-6.55708
6.55232
-0.025231
0.02999
-6.54745
6.54243
-0.0259112
0.0309347
-6.5372
6.53177
-0.0271121
0.0325414
-6.52607
6.52011
-0.0286994
0.0346636
-6.51386
6.50738
-0.0301288
0.0366108
-6.50073
6.49395
-0.0307035
0.0374819
-6.48735
6.48073
-0.0304076
0.0370201
-0.360852
0.403598
-0.0427786
0.0951265
-0.121951
-0.311811
0.33706
0.150319
-0.198829
-0.237533
0.267331
0.216919
-0.226114
-0.215395
0.224589
0.236189
-0.25073
-0.230056
0.244595
0.266345
-0.282169
-0.323941
0.339764
0.299635
-0.322021
-0.427842
0.450175
0.351759
-0.390747
-0.461175
0.500163
0.437405
-0.486312
-0.396695
0.445602
0.52495
-0.224504
-0.275934
0.262648
0.00540102
-8.30098e-21
4.00684e-06
-0.00540503
-1.2203e-06
-0.000339035
-6.77626e-21
-0.00296546
0.0243624
-0.0292035
0
-0.338392
-0.00323204
0.000199501
1.61953e-18
-0.0210825
-3.42131e-09
3.59182e-08
-1.00283e-13
2.36579e-08
-3.56793e-08
1.57583e-09
-5.91599e-14
2.29436e-08
3.84717e-13
-4.57991e-13
-1.29405e-13
1.90774e-13
6.89743e-13
5.51954e-13
-8.82152e-12
1.98401e-11
3.20055e-09
-3.4364e-09
-5.27306e-11
-2.97336e-09
0
-1.16972e-29
0
1.39053e-28
1.81964e-20
0.392989
4.71605e-18
-0.392989
-3.03809
3.21558
6.31305
-6.49054
-3.45488
3.77217
4.84548
-5.16278
-4.13526
4.51752
3.48236
-3.86462
-4.88912
5.23178
2.44224
-2.78491
-5.53311
5.78936
1.6689
-1.92514
-6.00019
6.16966
1.08891
-1.25838
-6.30265
6.4058
0.670334
-0.773488
-6.48458
6.54432
0.38577
-0.445514
-6.58912
6.62275
0.202428
-0.23606
-6.64784
6.66643
0.0889009
-0.107493
-6.67992
6.68962
0.0197895
-0.0294883
-6.69656
6.70151
-0.0193678
0.0144253
-6.70499
6.70741
-0.0390628
0.0366431
-6.70908
6.71024
-0.0467874
0.0456245
-6.71112
6.71186
-0.047988
0.0472398
-6.71262
6.71339
-0.0470229
0.0462475
-6.71414
6.71473
-0.0464896
0.0459011
-6.71513
6.71539
-0.045888
0.0456317
-6.7156
6.71579
-0.0442017
0.0440078
-6.71603
6.71635
-0.0412631
0.0409438
-6.71689
6.71772
-0.0369628
0.036133
-6.71882
6.72003
-0.0328508
0.0316375
-6.72121
6.72216
-0.0304395
0.0294822
-6.72273
6.72276
-0.0300433
0.0300223
-6.72222
6.72127
-0.0294657
0.0304137
-6.72011
6.7188
-0.0272202
0.0285304
-6.71738
6.71582
-0.0253812
0.0269437
-6.71406
6.71204
-0.0258445
0.0278703
-6.70968
6.70694
-0.0284615
0.031202
-6.70386
6.70051
-0.0313218
0.0346755
-6.69696
6.69328
-0.0330974
0.036775
-6.68953
6.68575
-0.033733
0.0375158
-6.68194
6.67804
-0.0342402
0.0381357
-6.67401
6.66979
-0.0354816
0.0397054
-6.66536
6.66068
-0.0375157
0.0421906
-6.65573
6.65048
-0.040189
0.0454387
-6.64492
6.63912
-0.0426878
0.0484944
-6.6331
6.62701
-0.0438352
0.0499309
-6.62105
6.61536
-0.043092
0.0487872
-0.439743
0.469106
-0.0293977
0.0672013
-0.0963869
-0.350779
0.363156
0.135694
-0.165564
-0.291307
0.31959
0.182643
-0.192674
-0.230608
0.237531
0.196361
-0.186894
-0.247863
0.248662
0.191875
-0.205637
-0.335032
0.327266
0.209967
-0.215869
-0.462714
0.468616
0.22487
-0.23928
-0.524784
0.539194
0.259733
-0.283811
-0.479398
0.503477
0.304189
-0.309788
-0.314292
0.334443
0.292166
-0.311208
0.0310839
-0.0261529
0.360404
-0.407359
0.385134
-0.453565
0.442774
-0.464666
0.813823
-0.791931
0.455597
-0.330774
0.63401
-0.86516
0.0191535
-2.27043e-10
-1.22572e-16
-0.0191535
-1.57251e-09
1.84371e-09
-1.3716e-08
-2.13881e-12
-1.2232e-11
9.73078e-14
-1.70908e-12
1.57284e-11
-1.42277e-11
-2.40779e-08
-4.84938e-09
3.24242e-08
1.47606e-08
1.08692e-08
3.21187e-08
-5.79691e-08
2.3144e-18
-2.3144e-18
5.5932e-27
-4.23216e-26
-0.41006
3.56032
2.13094
-5.23196
-3.72955
3.8123
6.5928
-6.67555
-3.9753
4.20306
5.42362
-5.65138
-4.48038
4.78435
4.19826
-4.50223
-5.09143
5.3809
3.09689
-3.38636
-5.63775
5.85555
2.16075
-2.37855
-6.03278
6.17345
1.4128
-1.55346
-6.28274
6.3682
0.866911
-0.952375
-6.43505
6.48811
0.500729
-0.553788
-6.53075
6.5657
0.269172
-0.304117
-6.59493
6.61974
0.128183
-0.152993
-6.64071
6.65876
0.0425956
-0.0606413
-6.67459
6.68863
-0.00546321
-0.00857837
-6.70115
6.71239
-0.0301593
0.0189217
-6.72238
6.73137
-0.0407305
0.0317381
-6.73953
6.74704
-0.0431741
0.0356595
-6.75408
6.76081
-0.04249
0.0357689
-6.76717
6.77306
-0.0426306
0.0367447
-6.77835
6.78315
-0.0430363
0.0382328
-6.78764
6.79189
-0.0417091
0.0374567
-6.79589
6.79971
-0.0387693
0.03495
-6.80353
6.80751
-0.0336191
0.0296383
-6.81165
6.81579
-0.0288513
0.0247018
-6.81974
6.82327
-0.0271427
0.0236125
-6.82619
6.82827
-0.0288919
0.0268129
-6.82944
6.82993
-0.0305543
0.0300613
-6.83005
6.8299
-0.0291825
0.0293365
-6.82949
6.82882
-0.027979
0.0286561
-6.82786
6.82656
-0.0294488
0.0307435
-6.82489
6.82278
-0.0335536
0.0356604
-6.8203
6.81752
-0.0376702
0.0404438
-6.81455
6.81142
-0.0401095
0.0432383
-6.80821
6.80498
-0.040945
0.0441688
-6.80172
6.79839
-0.0416718
0.0450031
-6.79488
6.79116
-0.0435964
0.0473184
-6.7872
6.78301
-0.0465404
0.0507313
-6.77853
6.77377
-0.0503623
0.0551187
-6.76871
6.76339
-0.0539719
0.059293
-6.75785
6.75226
-0.055696
0.0612842
-6.7468
6.74182
-0.05405
0.0590264
-0.494665
0.514167
-0.0220833
0.0456057
-0.0748476
-0.393027
0.420127
0.101778
-0.125277
-0.346914
0.366992
0.147421
-0.154639
-0.245914
0.253428
0.15616
-0.154157
-0.254812
0.254209
0.142922
-0.137681
-0.322702
0.333131
0.130596
-0.13546
-0.469602
0.420269
0.134518
-0.136926
-0.546185
0.548593
0.144752
-0.158893
-0.521265
0.535406
0.178654
-0.202868
-0.352576
0.37679
0.232494
-0.275284
-0.00697972
0.0497703
0.326369
-0.381395
0.406991
-0.351965
0.437682
-0.488685
0.753668
-0.702665
0.526867
-0.545597
0.873841
-0.855111
0.478353
-0.0169391
0.142913
-0.380443
2.81639e-13
9.80653e-12
5.29079e-13
1.07482e-11
-1.03271e-11
5.25993e-12
-3.23872e-11
4.07691e-11
-7.88228e-12
6.53797e-09
-2.68663e-08
8.56367e-09
-2.37962e-08
3.70828e-18
3.4792e-08
-7.89401e-09
-3.70828e-18
0.508172
1.7236e-17
-0.508172
-3.86279
4.05362
7.09951
-7.29034
-4.09213
4.17666
6.7557
-6.84024
-4.31653
4.50791
5.85568
-6.04706
-4.73985
4.99516
4.77719
-5.0325
-5.25218
5.49277
3.64843
-3.88903
-5.70228
5.87448
2.57225
-2.74445
-6.01224
6.12107
1.67663
-1.78546
-6.20826
6.28185
1.02963
-1.10321
-6.34611
6.40325
0.606148
-0.66329
-6.4547
6.50125
0.342753
-0.389302
-6.54362
6.58225
0.183398
-0.222026
-6.61713
6.64873
0.0846232
-0.116227
-6.67736
6.7032
0.0281603
-0.0539992
-6.72648
6.7473
-0.00279403
-0.0180207
-6.76613
6.78289
-0.0188101
0.00204668
-6.79801
6.81156
-0.0250069
0.0114634
-6.82384
6.83519
-0.0265238
0.0151736
-6.84583
6.85578
-0.0286512
0.0187011
-6.86486
6.87305
-0.0316044
0.0234165
-6.88063
6.88777
-0.0316195
0.0244757
-6.89446
6.90065
-0.0298236
0.0236299
-6.90654
6.91233
-0.0246009
0.0188111
-6.91813
6.92387
-0.0195854
0.0138458
-6.92931
6.93425
-0.0192301
0.0142927
-6.93293
6.92627
-0.0239957
0.015502
-6.9182
6.90536
-0.029094
0.0206285
-6.88412
6.85299
-0.0291256
0.0209667
-6.81478
6.77678
-0.0291173
0.0210255
-6.74334
6.70838
-0.031873
0.0229375
-6.6574
6.58312
-0.0375677
0.0262727
-6.52889
6.52214
-0.0429961
0.0291902
-6.52201
6.52923
-0.0461615
0.0316028
-6.55017
6.59227
-0.0472202
0.0332125
-6.65404
6.72099
-0.0481744
0.0359231
-6.7762
6.82181
-0.0509144
0.0401635
-6.8774
6.9013
-0.0547945
0.0456339
-6.89946
6.89491
-0.0597055
0.0642552
-6.89015
6.88518
-0.0643844
0.0693532
-6.88004
6.87485
-0.0666563
0.0718452
-6.86984
6.86532
-0.0637046
0.0682194
-0.532365
0.547469
-0.011547
0.0292893
-0.0429117
-0.500684
0.524305
0.0618003
-0.0888649
-0.381684
0.273688
0.106831
-0.11281
-0.260067
0.266046
0.113391
-0.110086
-0.251486
0.248181
0.10337
-0.0931302
-0.335614
0.325374
0.072697
-0.063606
-0.411648
0.402017
0.0642679
-0.0621636
-0.548082
0.545978
0.0653388
-0.0755425
-0.547014
0.557217
0.0950497
-0.125144
-0.40441
0.434504
0.166548
-0.221008
-0.098905
0.153365
0.285276
-0.354985
0.289664
-0.219955
0.426883
-0.49694
0.641976
-0.571919
0.55937
-0.607741
0.821334
-0.772963
0.632985
-0.405413
0.58528
-0.693101
4.34886e-05
-4.02763e-13
-3.12145e-17
-4.34886e-05
-2.86982e-11
1.20055e-11
-5.97758e-11
1.07125e-10
-2.13307e-11
9.92245e-09
-8.54378e-09
6.54726e-09
-6.48826e-09
1.3449e-09
4.29578e-09
-1.69145e-16
-0.637618
4.01515
3.00944
-6.41546
-4.17489
4.22433
7.32512
-7.37456
-4.29489
4.39628
6.9317
-7.03309
-4.53482
4.71062
6.22611
-6.40191
-4.91221
5.12811
5.26608
-5.48198
-5.33778
5.52316
4.10173
-4.28711
-5.67542
5.79115
2.88942
-3.00515
-5.8328
5.20027
1.88011
-1.25023
-4.04881
2.86349
1.17536
8.05876e-20
-1.98413
1.37144
0.583988
4.57556e-20
-0.941911
0.642436
0.247387
2.42499e-20
-0.43461
0.248426
0.105134
1.24009e-20
-0.0360315
1.32479e-18
0.0360315
6.06716e-21
7.00313e-37
-3.17979e-20
0
3.02715e-21
4.51585e-20
-5.7981e-20
0
1.75034e-21
7.37271e-20
-9.06621e-20
0
1.04543e-21
1.0701e-19
-3.17984e-07
3.17984e-07
5.84097e-22
2.18773e-05
0.000330213
-0.000404432
2.96373e-22
-0.00103903
0.00199569
-0.000931867
7.8742e-23
-0.00228939
0.00224996
-0.000775733
0
-0.00195748
0.00139576
-0.000480626
0
-0.000518214
1.82764e-05
-8.43138e-05
0
1.84327e-20
-1.60131e-20
0
-1.5645e-23
-2.44394e-21
2.51494e-21
0
1.04883e-24
5.45743e-21
9.11028e-21
0
-4.81794e-24
-2.47943e-21
8.09136e-22
0
1.33327e-24
8.46428e-21
-1.08545e-20
0
-4.11032e-23
-1.20376e-22
-1.20535e-21
0
-3.19137e-24
-1.05157e-20
-6.58642e-22
0
5.04511e-23
4.95879e-21
-6.67986e-21
0
-3.42454e-23
-1.21309e-21
2.91159e-21
4.33681e-19
6.37757e-24
7.41316e-22