/*--------------------------------*- C++ -*----------------------------------*\
| =========                 |                                                 |
| \\      /  F ield         | OpenFOAM: The Open Source CFD Toolbox           |
|  \\    /   O peration     | Version:  v1912                                 |
|   \\  /    A nd           | Website:  www.openfoam.com                      |
|    \\/     M anipulation  |                                                 |
\*---------------------------------------------------------------------------*/
FoamFile
{
    version     2.0;
    format      ascii;
    class       volScalarField;
    location    "20";
    object      alpha.water;
}
// * * * * * * * * * * * * * * * * * * * * * * * * * * * * * * * * * * * * * //

dimensions      [0 0 0 0 0 0 0];


internalField   nonuniform List<scalar> 
20320
(
1
1
1
1
1
1
1
1
1
1
1
1
1
1
1
1
1
1
1
1
1
1
1
1
1
1
1
1
1
1
1
1
1
1
1
1
1
1
1
1
1
1
1
1
1
1
1
1
1
1
1
1
1
1
1
1
1
1
1
1
1
1
1
1
1
1
1
1
1
1
1
1
1
1
1
1
1
1
1
1
1
1
1
1
1
1
1
1
1
1
1
1
1
1
1
1
1
1
1
1
1
1
1
1
1
1
1
1
1
1
1
1
1
1
1
1
1
0.999999
1
1
1
1
1
1
1
1
1
1
1
1
1
1
1
1
1
1
1
0.999999
1
1
1
1
1
1
1
1
1
1
1
1
1
1
1
1
1
1
1
0.999999
1
1
1
1
1
1
1
1
1
1
1
1
1
1
1
1
1
1
1
0.999999
1
1
1
1
1
1
1
1
1
1
1
1
1
1
1
1
1
1
1
1
1
1
1
1
1
1
1
1
1
1
1
1
1
1
1
1
1
1
1
1
1
1
1
1
1
1
1
1
1
1
1
1
1
1
1
1
1
1
1
1
1
1
1
1
1
1
1
1
1
1
1
1
1
1
1
1
1
1
1
1
1
1
1
1
1
1
1
1
1
1
1
1
1
1
1
1
1
1
1
1
1
1
1
1
1
1
1
1
1
1
1
1
1
1
1
1
1
1
1
1
1
1
1
1
1
1
1
1
1
1
1
1
1
1
1
1
1
1
1
1
1
1
1
1
1
1
1
1
1
1
1
1
1
1
1
1
1
1
1
1
1
1
1
1
1
1
1
1
1
1
1
1
1
1
1
1
1
1
1
1
1
1
1
1
1
1
1
1
1
1
1
1
1
1
1
1
1
1
1
1
1
1
1
1
1
1
1
1
1
1
1
1
1
1
1
1
1
1
1
1
1
1
0.99981
0.970813
1
1
1
0.999999
0.999793
1
1
1
1
1
1
1
1
1
1
1
0.966035
0.837758
0.76989
0.908411
1
1
1
1
1
1
1
1
1
0.999999
1
1
1
1
1
1
1
1
1
1
1
1
1
1
1
1
1
1
1
1
1
1
1
1
1
1
1
1
0.999111
0.960945
0.967985
0.84196
0.999999
0.999999
0.999636
0.999976
1
1
1
0.680138
0.0883263
0.050101
0.0565432
0.0190976
-1.17257e-20
4.90132e-20
7.48151e-23
-1.1927e-21
-1.97595e-20
0.638686
1
1
1
1
1
1
1
1
1
1
1
1
1
1
1
1
1
1
1
1
1
1
1
1
1
1
1
1
1
1
1
1
1
1
1
1
1
1
1
1
0.895692
0.805916
0.999999
0.999999
0.999573
1
1
1
0.477753
-7.20787e-21
-7.89028e-39
6.20032e-21
5.23582e-14
1.82397e-16
2.86286e-18
-2.83117e-22
-6.32443e-23
8.61533e-14
-1.57162e-19
0.899827
1
1
1
1
1
1
1
1
1
1
1
1
1
1
1
1
1
1
1
1
1
1
1
1
1
1
1
1
1
1
1
1
1
1
1
1
1
1
0.999946
0.973965
0.949075
0.999999
0.999999
0.999999
0.999923
1
1
0.834262
5.16286e-20
5.91869e-05
0.0957013
0.00214475
1.45387e-08
8.91505e-09
6.70508e-14
3.53209e-13
2.21179e-09
-3.15214e-29
1.78754e-18
1
1
1
1
1
1
1
1
1
1
1
1
1
1
1
1
1
1
1
1
1
1
1
1
1
1
1
1
1
1
1
1
1
1
1
0.999999
1
1
1
0.999945
0.847648
0.992063
0.992189
0.97587
0.927906
1
1
1
0.994498
0.946607
0.995843
1
0.967961
8.01072e-17
1.2364e-09
2.16662e-12
1.00342e-08
3.98838e-08
7.93107e-28
0.668581
1
1
1
1
1
1
1
1
1
1
1
1
1
1
1
1
1
1
1
1
1
1
1
1
1
1
1
1
1
1
1
1
1
1
1
1
1
1
1
0.997034
0.835543
0.989239
0.999976
0.999369
0.930436
0.972759
1
1
1
1
1
1
1
0.517521
6.67772e-12
5.88736e-12
7.58144e-09
4.78709e-09
-1.51835e-18
1
1
1
1
1
1
1
1
1
1
1
1
1
1
1
1
1
1
1
1
1
1
1
1
0.998695
0.996
0.990274
0.980717
0.971934
0.958085
0.944688
0.94513
0.95121
0.967571
0.983359
0.999435
1
1
1
1
0.995167
0.997886
0.897644
1
0.999999
0.999999
0.893637
1
1
0.999999
0.999999
1
1
1
0.925235
7.0019e-17
1.31621e-11
7.74396e-09
5.50711e-10
0.765495
1
1
1
1
1
1
0.947859
0.651279
0.352802
0.169422
0.0744405
-1.0089e-19
-4.44657e-21
-8.39295e-21
-1.30497e-20
3.79274e-25
4.154e-05
0.000280478
0.000401073
0.000291482
3.07883e-05
-2.46097e-21
3.99462e-22
-1.09649e-21
1.07165e-22
-1.58528e-21
-1.0443e-22
1.74909e-21
-9.55234e-22
-3.59555e-21
-2.44629e-22
-6.49991e-21
2.4788e-21
5.19579e-21
4.4441e-21
6.77809e-22
-8.65357e-21
-9.48911e-21
1.01717e-20
1.20319e-20
1
0.999577
0.58366
0.999997
0.999596
0.99903
0.999303
0.901692
0.983296
0.999999
1
0.999999
0.999998
1
1
0.153346
1.98953e-11
7.93687e-10
2.00155e-17
1
1
1
1
1
0.969108
0.103946
-1.23764e-21
-4.13164e-20
-2.24219e-20
-2.58224e-20
-2.66522e-20
-2.45722e-20
-2.28037e-20
-2.2289e-20
-2.263e-20
-2.31624e-20
-2.33436e-20
-2.29316e-20
-2.20102e-20
-2.0845e-20
-1.9766e-20
-1.89624e-20
-1.84008e-20
-1.80294e-20
-1.77731e-20
-1.75507e-20
-1.73154e-20
-1.70626e-20
-1.67815e-20
-1.64472e-20
-1.60314e-20
-1.55188e-20
-1.49155e-20
-1.42481e-20
-1.35567e-20
-1.28911e-20
-1.23031e-20
-1.18358e-20
-1.15336e-20
-1.14366e-20
1
0.957182
0.932245
0.999799
0.999976
1
1
1
0.977966
0.997526
0.999795
0.999998
0.999993
1
1
0.228508
5.66308e-11
2.47042e-17
0.851638
1
1
1
1
0.972171
1.00427e-18
-1.94701e-20
-2.03805e-20
-1.90238e-20
-1.70204e-20
-1.56821e-20
-1.46132e-20
-1.35823e-20
-1.25366e-20
-1.15641e-20
-1.08467e-20
-1.04926e-20
-1.04378e-20
-1.05158e-20
-1.05837e-20
-1.05849e-20
-1.05357e-20
-1.04836e-20
-1.04645e-20
-1.04808e-20
-1.05075e-20
-1.05005e-20
-1.04266e-20
-1.02835e-20
-1.00828e-20
-9.84185e-21
-9.58208e-21
-9.32971e-21
-9.11419e-21
-8.96094e-21
-8.88277e-21
-8.8771e-21
-8.9295e-21
-9.0188e-21
-9.12096e-21
-9.21186e-21
1
0.976149
0.731609
1
0.999611
1
1
1
0.965488
0.999113
0.999993
0.999255
1
1
0.933936
2.28672e-29
5.12167e-11
0.00848914
1
1
1
1
1
0.0278976
-9.58224e-21
-9.52365e-21
-1.05001e-20
-1.01868e-20
-1.01224e-20
-9.82712e-21
-9.24379e-21
-8.57634e-21
-7.97065e-21
-7.50775e-21
-7.21302e-21
-7.05885e-21
-6.98435e-21
-6.92586e-21
-6.84462e-21
-6.73423e-21
-6.60916e-21
-6.487e-21
-6.37856e-21
-6.28523e-21
-6.20207e-21
-6.12109e-21
-6.03923e-21
-5.96224e-21
-5.89808e-21
-5.85323e-21
-5.83221e-21
-5.83857e-21
-5.87468e-21
-5.93971e-21
-6.02769e-21
-6.12765e-21
-6.22554e-21
-6.30664e-21
-6.3579e-21
-6.37011e-21
1
0.997267
0.509153
1
0.99955
1
0.98929
0.997623
0.994684
0.989707
0.999971
0.999627
0.999975
1
1
0.042385
2.99628e-14
0.825416
1
1
1
1
0.285434
-6.99745e-20
-1.20188e-20
-1.10018e-20
-9.75998e-21
-8.24613e-21
-7.1222e-21
-6.39029e-21
-5.88423e-21
-5.50953e-21
-5.21877e-21
-4.99188e-21
-4.82226e-21
-4.7004e-21
-4.60705e-21
-4.51934e-21
-4.42162e-21
-4.3112e-21
-4.19403e-21
-4.08076e-21
-3.98146e-21
-3.90227e-21
-3.84465e-21
-3.8067e-21
-3.78672e-21
-3.78497e-21
-3.80184e-21
-3.83639e-21
-3.88609e-21
-3.9473e-21
-4.01564e-21
-4.08609e-21
-4.15278e-21
-4.20936e-21
-4.24965e-21
-4.26857e-21
-4.26295e-21
-4.23242e-21
0.702654
0.86724
0.843538
1
0.99991
0.969543
0.686547
1
0.995857
0.835114
0.835115
0.990346
0.999815
1
1
0.0526365
-8.06664e-19
1
1
1
1
0.980532
5.15152e-19
-1.56276e-20
-1.08614e-20
-8.22625e-21
-6.64873e-21
-5.42585e-21
-4.56395e-21
-4.01506e-21
-3.67171e-21
-3.45232e-21
-3.30578e-21
-3.19947e-21
-3.11295e-21
-3.03362e-21
-2.95381e-21
-2.86997e-21
-2.78279e-21
-2.69681e-21
-2.61789e-21
-2.55134e-21
-2.50176e-21
-2.47116e-21
-2.45874e-21
-2.46177e-21
-2.4773e-21
-2.50297e-21
-2.53655e-21
-2.57547e-21
-2.61691e-21
-2.65807e-21
-2.69641e-21
-2.72959e-21
-2.7552e-21
-2.77079e-21
-2.77416e-21
-2.76377e-21
-2.73919e-21
-2.70155e-21
0.781557
0.994322
1
0.931087
0.996162
0.941697
0.761652
1
0.988621
0.845927
0.835115
0.938504
0.999996
0.999982
0.993034
2.11967e-38
0.632457
1
1
1
1
0.131011
-4.03141e-20
-1.27651e-20
-7.58168e-21
-5.54417e-21
-4.31493e-21
-3.49415e-21
-2.94528e-21
-2.58295e-21
-2.34345e-21
-2.18281e-21
-2.07111e-21
-1.98742e-21
-1.91743e-21
-1.85241e-21
-1.78824e-21
-1.72464e-21
-1.66385e-21
-1.60925e-21
-1.56401e-21
-1.53097e-21
-1.51094e-21
-1.50328e-21
-1.50643e-21
-1.51811e-21
-1.53603e-21
-1.55819e-21
-1.58274e-21
-1.60782e-21
-1.63162e-21
-1.65252e-21
-1.66919e-21
-1.68047e-21
-1.68529e-21
-1.68275e-21
-1.67224e-21
-1.65364e-21
-1.62748e-21
-1.59507e-21
0.835075
0.656255
0.351954
0.0546912
1
1
0.628297
0.997252
0.999211
1
1
1
0.99999
0.999987
0.809824
6.15669e-22
0.985754
1
1
1
0.942029
-1.99668e-19
-2.44023e-20
-8.52131e-21
-5.31607e-21
-3.95032e-21
-3.03277e-21
-2.39987e-21
-1.97092e-21
-1.679e-21
-1.47838e-21
-1.33864e-21
-1.23837e-21
-1.16222e-21
-1.09998e-21
-1.04572e-21
-9.96777e-22
-9.5269e-22
-9.1413e-22
-8.81999e-22
-8.56882e-22
-8.38869e-22
-8.2765e-22
-8.23331e-22
-8.25604e-22
-8.32325e-22
-8.42254e-22
-8.5425e-22
-8.6713e-22
-8.79684e-22
-8.9076e-22
-8.99366e-22
-9.04727e-22
-9.06279e-22
-9.03644e-22
-8.96653e-22
-8.85375e-22
-8.70163e-22
-8.51665e-22
-8.30902e-22
1
0.0588587
3.74694e-08
0.329136
1
1
0.621399
1
1
1
1
1
0.999999
1
0.25007
0.0576474
1
1
1
1
0.136749
1.20728e-37
-7.67645e-21
-5.89998e-21
-4.02804e-21
-2.89991e-21
-2.15004e-21
-1.63844e-21
-1.29061e-21
-1.05268e-21
-8.88151e-22
-7.72542e-22
-6.89051e-22
-6.2623e-22
-5.76719e-22
-5.36133e-22
-5.02104e-22
-4.73477e-22
-4.49673e-22
-4.30318e-22
-4.15055e-22
-4.03489e-22
-3.95184e-22
-3.89703e-22
-3.86814e-22
-3.86876e-22
-3.9014e-22
-3.94847e-22
-3.99949e-22
-4.04758e-22
-4.08643e-22
-4.11108e-22
-4.11823e-22
-4.10614e-22
-4.0745e-22
-4.02432e-22
-3.95784e-22
-3.8785e-22
-3.79093e-22
-3.70137e-22
0.985771
1
0.913962
1
0.999999
1
0.610779
1
0.183053
0.69341
0.943453
1
1
0.980274
-9.15662e-38
0.747675
1
1
1
1
-7.15977e-19
-1.05275e-20
-7.72899e-21
-4.71419e-21
-3.06192e-21
-2.10357e-21
-1.48858e-21
-1.07978e-21
-8.06351e-22
-6.2256e-22
-4.97746e-22
-4.115e-22
-3.50382e-22
-3.0563e-22
-2.71692e-22
-2.45127e-22
-2.23832e-22
-2.06524e-22
-1.92382e-22
-1.80857e-22
-1.71555e-22
-1.64168e-22
-1.58428e-22
-1.54082e-22
-1.50885e-22
-1.48646e-22
-1.4732e-22
-1.47082e-22
-1.4812e-22
-1.49531e-22
-1.50524e-22
-1.50949e-22
-1.5075e-22
-1.49936e-22
-1.4857e-22
-1.46762e-22
-1.44655e-22
-1.42424e-22
-1.40265e-22
-1.38423e-22
1.34234e-34
0.89694
1
1
1
0.453476
0.22429
0.0360334
9.56183e-16
2.40623e-20
3.37232e-19
0.0127441
0.0842128
-1.23619e-19
-1.23229e-19
0.997448
1
1
1
0.278382
-2.27179e-20
-1.06011e-20
-6.31082e-21
-3.65396e-21
-2.29069e-21
-1.49746e-21
-9.992e-22
-6.80396e-22
-4.75571e-22
-3.4329e-22
-2.56963e-22
-1.99599e-22
-1.60479e-22
-1.32945e-22
-1.12877e-22
-9.77528e-23
-8.60235e-23
-7.67289e-23
-6.92677e-23
-6.32481e-23
-5.84027e-23
-5.4531e-23
-5.14688e-23
-4.90701e-23
-4.72005e-23
-4.57383e-23
-4.45764e-23
-4.36333e-23
-4.28783e-23
-4.23663e-23
-4.22421e-23
-4.2404e-23
-4.24953e-23
-4.24869e-23
-4.24144e-23
-4.23185e-23
-4.22388e-23
-4.22122e-23
-4.2274e-23
-4.24676e-23
0.000463425
5.44771e-23
4.17417e-05
0.00844357
9.64135e-05
0.0491649
0.00530676
2.39387e-07
5.9341e-12
1.66008e-11
1.18149e-12
2.46159e-15
1.1223e-28
1.15e-07
0.107246
1
1
1
1
-6.89816e-19
-1.13395e-20
-7.2378e-21
-4.42066e-21
-2.72296e-21
-1.67913e-21
-1.03637e-21
-6.44012e-22
-4.0624e-22
-2.62245e-22
-1.74667e-22
-1.20819e-22
-8.7042e-23
-6.52271e-23
-5.06291e-23
-4.04776e-23
-3.31499e-23
-2.76906e-23
-2.35244e-23
-2.02961e-23
-1.7775e-23
-1.58014e-23
-1.42578e-23
-1.30522e-23
-1.21104e-23
-1.13723e-23
-1.07892e-23
-1.03237e-23
-9.94769e-24
-9.64165e-24
-9.39307e-24
-9.19529e-24
-9.05086e-24
-8.99155e-24
-9.06384e-24
-9.18806e-24
-9.32509e-24
-9.46845e-24
-9.61191e-24
-9.74744e-24
-9.86783e-24
0.000680551
1.07824e-25
1.18352e-06
1.65878e-06
2.28713e-05
4.73465e-06
1.62984e-06
1.08403e-08
2.03575e-11
1.35057e-11
1.30353e-13
2.00821e-05
5.52393e-05
2.08744e-36
0.776396
1
1
1
0.660306
9.29102e-21
-6.60451e-21
-4.57229e-21
-3.22831e-21
-2.01957e-21
-1.19163e-21
-6.8645e-22
-3.93589e-22
-2.27411e-22
-1.33848e-22
-8.11353e-23
-5.11256e-23
-3.36505e-23
-2.31315e-23
-1.65393e-23
-1.22294e-23
-9.29924e-24
-7.2411e-24
-5.75934e-24
-4.67432e-24
-3.87084e-24
-3.27115e-24
-2.82082e-24
-2.4806e-24
-2.22174e-24
-2.02334e-24
-1.87019e-24
-1.75139e-24
-1.65918e-24
-1.58811e-24
-1.53431e-24
-1.49492e-24
-1.46768e-24
-1.45059e-24
-1.44165e-24
-1.43978e-24
-1.45286e-24
-1.47335e-24
-1.48788e-24
-1.49066e-24
-1.47729e-24
0.00126318
3.3494e-25
2.69256e-07
2.45336e-06
1.68166e-12
2.98153e-08
4.86995e-07
1.04837e-11
9.28331e-11
2.6796e-11
1.30353e-13
0.000254042
9.21197e-05
-1.25415e-19
1
1
1
1
0.107988
-2.13975e-20
-6.74242e-21
-3.89331e-21
-2.48511e-21
-1.46924e-21
-8.11717e-22
-4.32007e-22
-2.26225e-22
-1.18269e-22
-6.25763e-23
-3.39964e-23
-1.91961e-23
-1.13394e-23
-7.01286e-24
-4.52415e-24
-3.02803e-24
-2.0921e-24
-1.48704e-24
-1.08557e-24
-8.13799e-25
-6.26777e-25
-4.96194e-25
-4.03747e-25
-3.3739e-25
-2.89122e-25
-2.5357e-25
-2.271e-25
-2.07222e-25
-1.92194e-25
-1.80775e-25
-1.7204e-25
-1.6527e-25
-1.59878e-25
-1.55353e-25
-1.51236e-25
-1.47099e-25
-1.42536e-25
-1.37177e-25
-1.31418e-25
-1.25067e-25
-1.16897e-25
0.00126185
6.10459e-11
1.96182e-08
2.52428e-13
5.01477e-13
1.4937e-12
1.90441e-11
1.14394e-10
1.09554e-10
2.96833e-11
1.30353e-13
0.000555853
1.28903e-05
0.278216
1
1
1
1
2.78524e-19
-9.95442e-21
-5.30287e-21
-3.0145e-21
-1.84426e-21
-1.03043e-21
-5.28828e-22
-2.57296e-22
-1.21478e-22
-5.661e-23
-2.64917e-23
-1.26735e-23
-6.28854e-24
-3.2634e-24
-1.77399e-24
-1.00734e-24
-5.94931e-25
-3.64117e-25
-2.30497e-25
-1.50896e-25
-1.02266e-25
-7.18482e-26
-5.23769e-26
-3.96191e-26
-3.10616e-26
-2.51857e-26
-2.10566e-26
-1.80865e-26
-1.58972e-26
-1.4239e-26
-1.2942e-26
-1.1888e-26
-1.0992e-26
-1.01924e-26
-9.44408e-27
-8.71454e-27
-7.98174e-27
-7.23268e-27
-6.4627e-27
-5.67487e-27
-4.87945e-27
-4.1225e-27
6.00333e-05
9.51704e-30
7.85645e-10
4.1341e-12
6.43105e-12
2.90112e-11
6.24801e-11
3.94052e-10
2.24802e-09
1.26426e-09
1.30844e-13
0.00055964
-1.78425e-23
0.882447
1
1
1
0.440868
-2.07318e-20
-6.28523e-21
-3.67612e-21
-2.29231e-21
-1.34211e-21
-6.98603e-22
-3.28804e-22
-1.44265e-22
-6.04572e-23
-2.46868e-23
-1.00273e-23
-4.13649e-24
-1.76246e-24
-7.83075e-25
-3.63806e-25
-1.76535e-25
-8.92533e-26
-4.69461e-26
-2.57026e-26
-1.46752e-26
-8.76273e-27
-5.48588e-27
-3.60632e-27
-2.48861e-27
-1.79863e-27
-1.35616e-27
-1.06105e-27
-8.56106e-28
-7.07795e-28
-5.95812e-28
-5.07618e-28
-4.35345e-28
-3.73996e-28
-3.20427e-28
-2.72724e-28
-2.29766e-28
-1.90969e-28
-1.5609e-28
-1.25063e-28
-9.79103e-29
-7.46467e-29
-5.52129e-29
7.98677e-09
4.72169e-07
9.78802e-29
2.24439e-11
3.29118e-11
7.29634e-11
1.05199e-10
6.81495e-10
9.69781e-11
2.41037e-05
0.000644999
5.59518e-05
-1.71133e-18
1
1
1
1
0.0424865
-1.15258e-20
-4.64496e-21
-3.0381e-21
-1.78851e-21
-9.6072e-22
-4.5694e-22
-1.9414e-22
-7.5574e-23
-2.76157e-23
-9.6854e-24
-3.33971e-24
-1.1587e-24
-4.1209e-25
-1.51888e-25
-5.8297e-26
-2.33191e-26
-9.72676e-27
-4.23774e-27
-1.93554e-27
-9.31224e-28
-4.74406e-28
-2.56923e-28
-1.48153e-28
-9.08135e-29
-5.88965e-29
-4.01236e-29
-2.84677e-29
-2.0845e-29
-1.56167e-29
-1.1876e-29
-9.10383e-30
-6.99212e-30
-5.35275e-30
-4.06613e-30
-3.05307e-30
-2.25796e-30
-1.63967e-30
-1.16562e-30
-8.08809e-31
-5.46108e-31
-3.57615e-31
-2.26198e-31
2.24097e-06
2.12103e-07
-6.51438e-29
1.20776e-10
1.336e-10
9.89836e-11
7.05832e-11
0.000701005
0.0018397
0.000248897
0.000662071
4.58261e-23
0.652514
1
1
1
0.996615
-2.14154e-19
-7.90772e-21
-4.10743e-21
-2.48905e-21
-1.3597e-21
-6.66462e-22
-2.86229e-22
-1.08079e-22
-3.66635e-23
-1.14467e-23
-3.36974e-24
-9.60404e-25
-2.71743e-25
-7.78781e-26
-2.28964e-26
-6.95619e-27
-2.19284e-27
-7.20298e-28
-2.48061e-28
-9.02681e-29
-3.50086e-29
-1.45882e-29
-6.56478e-30
-3.19217e-30
-1.67022e-30
-9.32293e-31
-5.49047e-31
-3.37129e-31
-2.13424e-31
-1.37895e-31
-9.01412e-32
-5.91837e-32
-3.87877e-32
-2.5243e-32
-1.62433e-32
-1.0296e-32
-6.40744e-33
-3.90366e-33
-2.32157e-33
-1.34348e-33
-7.52703e-34
-4.03315e-34
-1.96193e-34
1.1185e-06
3.56634e-06
4.02285e-10
1.76902e-10
1.14142e-10
7.05832e-11
0.000354535
0.00203758
0.000460114
0.000661595
4.3822e-05
-2.00417e-20
0.999703
1
1
1
0.303023
2.17754e-36
-6.25225e-21
-3.62384e-21
-1.98022e-21
-9.96152e-22
-4.44069e-22
-1.70375e-22
-5.62519e-23
-1.63e-23
-4.24762e-24
-1.02091e-24
-2.3264e-25
-5.16204e-26
-1.13958e-26
-2.5409e-27
-5.78084e-28
-1.35373e-28
-3.29412e-29
-8.42647e-30
-2.29641e-30
-6.75791e-31
-2.17105e-31
-7.6575e-32
-2.9611e-32
-1.24518e-32
-5.62173e-33
-2.68562e-33
-1.33845e-33
-6.87153e-34
-3.59522e-34
-1.89989e-34
-1.00661e-34
-5.31464e-35
-2.78214e-35
-1.43797e-35
-7.31188e-36
-3.64585e-36
-1.77595e-36
-8.39354e-37
-3.7748e-37
-1.50627e-37
-3.69223e-38
4.08168e-38
0.00576353
4.89083e-08
1.17809e-07
2.36215e-10
5.62795e-10
7.05832e-11
0.00141372
0.00171466
9.47129e-07
0.000626523
-7.39966e-24
0.330534
1
1
1
1
0.00346478
-5.21623e-21
-5.1124e-21
-2.90581e-21
-1.49973e-21
-7.00272e-22
-2.82618e-22
-9.56334e-23
-2.71156e-23
-6.56198e-24
-1.38768e-24
-2.63016e-25
-4.59285e-26
-7.5935e-27
-1.21638e-27
-1.92069e-28
-3.03443e-29
-4.86523e-30
-8.04726e-31
-1.39973e-31
-2.61335e-32
-5.33795e-33
-1.20961e-33
-3.05782e-34
-8.58734e-35
-2.64725e-35
-8.81551e-36
-3.11752e-36
-1.15301e-36
-4.40114e-37
-1.71487e-37
-6.76006e-38
-2.67629e-38
-1.05771e-38
-4.15245e-39
-1.6126e-39
-6.17252e-40
-2.32009e-40
-8.51976e-41
-3.02449e-41
-1.00871e-41
-2.7762e-42
4.34154e-43
1.49942e-41
0.00661189
7.08783e-05
4.52423e-07
1.04272e-09
1.61597e-09
2.85281e-09
4.20509e-06
7.87883e-05
4.13218e-05
3.81667e-05
-3.96406e-20
0.932993
1
1
1
0.826154
5.37527e-20
-8.43917e-21
-4.44565e-21
-2.21415e-21
-1.08766e-21
-4.71385e-22
-1.7059e-22
-5.01451e-23
-1.19645e-23
-2.35437e-24
-3.90302e-25
-5.58028e-26
-7.05689e-27
-8.10484e-28
-8.6587e-29
-8.77621e-30
-8.60753e-31
-8.35504e-32
-8.23537e-33
-8.49119e-34
-9.43256e-35
-1.15801e-35
-1.59856e-36
-2.49524e-37
-4.37857e-38
-8.52038e-39
-1.80701e-39
-4.10474e-40
-9.83371e-41
-2.45193e-41
-6.29341e-42
-1.64798e-42
-4.36949e-43
-1.16567e-43
-3.11168e-44
-8.26557e-45
-2.17012e-45
-5.56979e-46
-1.34861e-46
-2.08859e-47
8.33388e-47
7.45999e-46
7.33108e-45
6.48372e-44
0.00661256
0.00661186
-2.61261e-22
2.04582e-09
1.28017e-10
6.18901e-07
3.0683e-10
4.93282e-05
0.000297266
2.29667e-06
0.100904
1
1
1
1
0.145086
0
-6.56137e-21
-3.1601e-21
-1.61919e-21
-7.617e-22
-3.02662e-22
-9.68488e-23
-2.4287e-23
-4.76025e-24
-7.37641e-25
-9.16767e-26
-9.30467e-27
-7.86606e-28
-5.65666e-29
-3.53675e-30
-1.96232e-31
-9.8985e-33
-4.69429e-34
-2.17935e-35
-1.03608e-36
-5.27107e-38
-2.96735e-39
-1.88883e-40
-1.37096e-41
-1.1306e-42
-1.04875e-43
-1.07917e-44
-1.21475e-45
-1.47548e-46
-1.90957e-47
-2.60538e-48
-3.71082e-49
-5.46759e-50
-8.26444e-51
-1.2682e-51
-1.90824e-52
-1.35245e-53
1.15732e-52
5.74758e-52
4.71019e-51
4.06761e-50
3.39546e-49
2.72452e-48
1.90517e-47
0.00181041
0.00102507
-3.12887e-24
1.06941e-27
1.06383e-07
1.35004e-08
0.000198384
5.42696e-05
0.000161622
-1.65969e-20
0.87956
1
1
1
1
-1.2702e-19
-7.06395e-21
-4.93775e-21
-2.44034e-21
-1.18535e-21
-5.16001e-22
-1.84289e-22
-5.12094e-23
-1.07279e-23
-1.67752e-24
-1.96171e-25
-1.7214e-26
-1.1371e-27
-5.67313e-29
-2.15094e-30
-6.22315e-32
-1.37867e-33
-2.38418e-35
-3.35698e-37
-4.13009e-39
-4.84377e-41
-5.90448e-43
-7.95443e-45
-1.22498e-46
-2.18448e-48
-4.51125e-50
-1.07135e-51
-2.89337e-53
-8.78981e-55
-2.9696e-56
-1.10248e-57
-4.48216e-59
-4.18367e-60
-1.06047e-59
-4.5191e-59
-1.76929e-58
-6.20073e-58
-1.80437e-57
-3.52016e-57
3.40292e-57
1.70751e-55
1.50989e-54
1.01766e-53
5.89435e-53
2.79046e-52
0.000187654
1.05533e-22
2.19383e-07
1.92684e-06
2.97709e-10
1.43888e-29
0.000213847
0.000173808
2.10719e-23
0.0532077
1
1
1
1
0.431704
3.93899e-36
-6.68348e-21
-3.67584e-21
-1.84102e-21
-8.4803e-22
-3.3506e-22
-1.05534e-22
-2.49554e-23
-4.25413e-24
-5.11326e-25
-4.26343e-26
-2.4157e-27
-9.02962e-29
-2.13229e-30
-2.97738e-32
-2.18689e-34
-6.74003e-37
-4.8518e-40
-1.17809e-44
-2.03193e-59
-1.40174e-61
-4.0611e-64
9.26002e-65
1.44231e-64
7.12731e-65
-3.62341e-65
-2.52598e-64
-1.48151e-63
-8.35798e-63
-4.42649e-62
-2.22236e-61
-1.07972e-60
-5.00477e-60
-2.2529e-59
-9.82215e-59
-4.13372e-58
-1.66245e-57
-6.26562e-57
-2.18098e-56
-6.94119e-56
-2.014e-55
-5.34705e-55
-1.30837e-54
-2.97385e-54
-6.29943e-54
7.39169e-06
4.45101e-06
1.04401e-08
1.26094e-08
1.85665e-07
3.17627e-05
8.46798e-05
9.78313e-06
-5.89533e-20
0.878765
1
1
1
1
0.0157461
-3.59534e-21
-4.28866e-21
-2.80536e-21
-1.38255e-21
-5.84954e-22
-2.06102e-22
-5.62191e-23
-1.10602e-23
-1.48503e-24
-1.30406e-25
-7.13093e-27
-2.25869e-28
-3.67199e-30
-2.39957e-32
-2.82867e-35
-1.30143e-41
-9.13524e-54
-8.38883e-56
-7.73459e-58
-6.91373e-60
-5.81185e-62
-4.50635e-64
-3.30824e-66
-9.94251e-67
-7.25516e-66
-4.92587e-65
-3.07503e-64
-1.77785e-63
-1.00375e-62
-5.2409e-62
-2.62272e-61
-1.26092e-60
-5.70168e-60
-2.51422e-59
-1.05438e-58
-4.23539e-58
-1.62067e-57
-5.80658e-57
-1.9219e-56
-5.79375e-56
-1.58257e-55
-3.93162e-55
-8.96156e-55
-1.88699e-54
-3.63718e-54
5.33091e-05
9.31826e-09
1.54731e-06
2.88234e-06
1.7207e-09
2.10454e-05
5.99852e-05
6.05224e-24
0.153949
1
1
1
1
0.825861
-8.45176e-20
-6.95038e-21
-4.14849e-21
-2.25021e-21
-1.00515e-21
-3.83154e-22
-1.1881e-22
-2.75575e-23
-4.38561e-24
-4.44291e-25
-2.64611e-26
-8.28064e-28
-1.10947e-29
-3.75427e-32
-6.41963e-37
-1.10607e-49
-1.07629e-51
-1.08705e-53
-1.11835e-55
-1.13276e-57
-1.08873e-59
-9.65402e-62
-7.77622e-64
-5.72248e-66
-6.11109e-67
-4.56136e-66
-3.30878e-65
-2.20242e-64
-1.35156e-63
-7.67473e-63
-4.04613e-62
-1.98457e-61
-9.08158e-61
-3.91063e-60
-1.65401e-59
-6.45371e-59
-2.41325e-58
-8.46686e-58
-2.75706e-57
-8.28682e-57
-2.25273e-56
-5.50208e-56
-1.20914e-55
-2.41303e-55
-4.4034e-55
-7.23054e-55
2.87575e-05
3.24884e-07
3.33125e-06
9.48036e-08
2.53864e-10
2.61472e-09
2.79652e-05
7.52714e-21
0.962132
1
1
1
1
0.114407
-1.21517e-20
-5.80257e-21
-3.37579e-21
-1.68659e-21
-6.92229e-22
-2.36092e-22
-6.35937e-23
-1.22849e-23
-1.52971e-24
-1.0995e-25
-3.94831e-27
-5.45861e-29
-1.36249e-31
-3.07821e-37
-9.96868e-48
-1.07988e-49
-1.21031e-51
-1.39517e-53
-1.61108e-55
-1.79136e-57
-1.84687e-59
-1.72461e-61
-1.44513e-63
-1.0861e-65
-1.91603e-67
-1.05705e-66
-8.57259e-66
-6.33235e-65
-4.26371e-64
-2.62231e-63
-1.47611e-62
-7.62038e-62
-3.61223e-61
-1.57375e-60
-6.29917e-60
-2.31499e-59
-7.79525e-59
-2.39932e-58
-6.87545e-58
-1.81222e-57
-4.26358e-57
-9.01569e-57
-1.70276e-56
-2.89837e-56
-4.47937e-56
-6.29973e-56
1.25008e-09
4.32493e-07
1.27072e-11
6.65298e-09
1.76841e-08
4.75218e-05
-1.71335e-23
0.607027
1
1
1
1
0.993243
-2.04951e-19
-1.24686e-20
-4.49026e-21
-2.56796e-21
-1.20354e-21
-4.49845e-22
-1.35916e-22
-3.13683e-23
-4.92804e-24
-4.58441e-25
-2.12851e-26
-3.72021e-28
-1.11825e-30
-2.24019e-36
-7.28045e-46
-8.88324e-48
-1.11358e-49
-1.43859e-51
-1.88852e-53
-2.42971e-55
-2.92716e-57
-3.19046e-59
-3.10188e-61
-2.68962e-63
-2.0861e-65
-1.51585e-67
-6.94138e-68
-6.56865e-67
-5.72929e-66
-4.50208e-65
-3.17384e-64
-2.00496e-63
-1.13538e-62
-5.7657e-62
-2.62737e-61
-1.07371e-60
-3.92811e-60
-1.28335e-59
-3.73129e-59
-9.62387e-59
-2.19655e-58
-4.43846e-58
-7.97523e-58
-1.2861e-57
-1.89434e-57
-2.54993e-57
-3.4196e-57
9.87466e-10
2.81646e-11
1.57982e-10
2.12377e-09
1.61352e-05
1.00532e-05
0.0697441
1
1
1
1
1
0.178408
-7.49215e-22
-3.89493e-21
-3.42034e-21
-1.92786e-21
-8.17113e-22
-2.73799e-22
-7.26727e-23
-1.41821e-23
-1.76001e-24
-1.14475e-25
-2.91434e-27
-1.46977e-29
-7.51098e-35
-4.22396e-44
-5.86656e-46
-8.26926e-48
-1.19753e-49
-1.77397e-51
-2.61848e-53
-3.66243e-55
-4.62016e-57
-5.17113e-59
-5.15921e-61
-4.60235e-63
-3.68089e-65
-2.64658e-67
-3.83036e-69
-2.10722e-68
-1.93811e-67
-1.65744e-66
-1.31283e-65
-9.49844e-65
-6.16844e-64
-3.54658e-63
-1.79215e-62
-7.91411e-62
-3.04097e-61
-1.01362e-60
-2.92062e-60
-7.25328e-60
-1.55156e-59
-2.868e-59
-4.62477e-59
-6.60682e-59
-8.57856e-59
-1.07741e-58
-1.49195e-58
6.48284e-10
5.41134e-08
2.93408e-09
1.8559e-09
1.4708e-05
2.35147e-07
0.989489
1
1
1
1
1
8.17943e-20
-3.619e-21
-4.09774e-21
-2.81359e-21
-1.37381e-21
-5.18162e-22
-1.55101e-22
-3.6023e-23
-5.87089e-24
-5.56431e-25
-2.28718e-26
-2.27585e-28
-7.44113e-33
-1.93691e-42
-3.07232e-44
-4.9009e-46
-7.95863e-48
-1.32283e-49
-2.21362e-51
-3.56063e-53
-5.16867e-55
-6.64811e-57
-7.61467e-59
-7.78876e-61
-7.13995e-63
-5.88089e-65
-4.35844e-67
-2.96555e-69
-5.83509e-70
-5.42256e-69
-4.80308e-68
-3.91472e-67
-2.91459e-66
-1.95929e-65
-1.1781e-64
-6.29625e-64
-2.97761e-63
-1.2332e-62
-4.40753e-62
-1.33805e-61
-3.41598e-61
-7.30103e-61
-1.31042e-60
-1.99613e-60
-2.63477e-60
-3.12762e-60
-3.63792e-60
-4.62176e-60
1.1137e-06
1.46812e-07
3.58332e-10
1.68787e-06
1.42741e-07
0.876123
1
1
1
1
1
0.17471
0
-4.72105e-21
-3.68973e-21
-2.09905e-21
-8.99152e-22
-3.04038e-22
-8.17004e-23
-1.66233e-23
-2.24703e-24
-1.56951e-25
-3.494e-27
-6.39492e-30
-1.39012e-33
-1.27459e-42
-2.30433e-44
-4.21214e-46
-7.82802e-48
-1.47116e-49
-2.69345e-51
-4.48771e-53
-6.61678e-55
-8.67545e-57
-1.01512e-58
-1.06299e-60
-9.99636e-63
-8.46158e-65
-6.45725e-67
-4.44778e-69
-3.99742e-71
-1.23527e-70
-1.13851e-69
-9.65844e-69
-7.47582e-68
-5.23719e-67
-3.29023e-66
-1.83691e-65
-9.02445e-65
-3.8605e-64
-1.42083e-63
-4.44166e-63
-1.16557e-62
-2.54383e-62
-4.59716e-62
-6.89702e-62
-8.69558e-62
-9.47596e-62
-9.59207e-62
-1.02905e-61
0.000217876
1.19188e-08
5.18412e-07
1.39295e-07
0.794705
1
1
1
1
1
0.965905
4.93611e-19
-6.54554e-21
-4.70072e-21
-2.9443e-21
-1.42855e-21
-5.42189e-22
-1.65721e-22
-4.03509e-23
-7.25256e-24
-8.19672e-25
-4.16983e-26
-4.79581e-28
-2.14376e-30
-7.98237e-34
-8.60087e-43
-1.7713e-44
-3.68861e-46
-7.74098e-48
-1.59777e-49
-3.04097e-51
-5.12332e-53
-7.66608e-55
-1.02267e-56
-1.22042e-58
-1.30644e-60
-1.25804e-62
-1.09189e-64
-8.55529e-67
-6.05777e-69
-3.89489e-71
-2.52261e-72
-2.21048e-71
-1.95489e-70
-1.57857e-69
-1.15381e-68
-7.56719e-68
-4.40833e-67
-2.25711e-66
-1.00404e-65
-3.82938e-65
-1.23472e-64
-3.31868e-64
-7.34125e-64
-1.32571e-63
-1.95313e-63
-2.36887e-63
-2.40762e-63
-2.15357e-63
-1.97312e-63
0.000203251
1.77279e-08
9.33904e-19
0.850133
1
1
1
1
1
1
0.103723
-2.02718e-20
-6.4226e-21
-4.02726e-21
-2.10897e-21
-8.88973e-22
-3.03201e-22
-8.50871e-23
-1.91107e-23
-3.11238e-24
-3.08503e-25
-1.26273e-26
-2.00601e-28
-1.60633e-30
-3.20677e-34
-5.92016e-43
-1.38321e-44
-3.24647e-46
-7.50914e-48
-1.62318e-49
-3.11212e-51
-5.29491e-53
-8.02133e-55
-1.08632e-56
-1.31932e-58
-1.44008e-60
-1.41663e-62
-1.2576e-64
-1.00912e-66
-7.32369e-69
-4.80649e-71
-3.19292e-73
-3.49616e-73
-3.21967e-72
-2.72135e-71
-2.0827e-70
-1.43027e-69
-8.71869e-69
-4.66538e-68
-2.16426e-67
-8.57856e-67
-2.86145e-66
-7.89973e-66
-1.77668e-65
-3.21648e-65
-4.66722e-65
-5.45857e-65
-5.21259e-65
-4.21844e-65
-3.40874e-65
0.208022
0.118544
1
1
1
1
1
1
1
0.674163
1.49173e-20
-5.7638e-21
-4.96292e-21
-2.90537e-21
-1.32809e-21
-5.05329e-22
-1.60344e-22
-4.24269e-23
-9.0507e-24
-1.40802e-24
-1.3694e-25
-6.21024e-27
-1.72564e-28
-1.22247e-30
-7.29133e-35
-4.12275e-43
-1.0829e-44
-2.80824e-46
-6.86892e-48
-1.49554e-49
-2.88283e-51
-4.93926e-53
-7.55617e-55
-1.03581e-56
-1.27674e-58
-1.41747e-60
-1.42083e-62
-1.28708e-64
-1.05452e-66
-7.82262e-69
-5.25091e-71
-3.18727e-73
-5.43477e-75
-3.638e-74
-3.27439e-73
-2.67295e-72
-1.95837e-71
-1.27358e-70
-7.25776e-70
-3.57756e-69
-1.50048e-68
-5.26302e-68
-1.51494e-67
-3.51042e-67
-6.44316e-67
-9.28852e-67
-1.05584e-66
-9.57157e-67
-7.12966e-67
-5.16261e-67
1
1
1
1
1
1
1
1
1
1
1
1
1
1
1
1
1
1
1
1
1
1
1
1
1
1
1
1
1
1
1
1
1
1
1
1
1
1
1
1
1
1
1
1
1
1
1
1
1
1
1
1
1
1
1
1
1
1
1
1
1
1
1
1
1
1
1
1
1
1
1
1
1
1
1
1
1
1
1
1
1
1
1
1
1
1
1
1
1
1
1
1
1
1
1
1
1
1
1
1
1
1
1
1
1
1
1
1
1
1
1
1
1
1
1
1
1
1
1
1
1
1
1
1
1
1
1
1
1
1
1
1
1
1
1
1
1
1
1
1
1
1
1
1
1
1
1
1
1
1
1
1
1
1
1
1
1
1
1
1
1
1
1
1
1
1
1
1
1
1
1
1
1
1
1
1
1
1
1
1
1
1
1
1
1
1
1
1
1
1
1
1
1
1
1
1
1
1
1
1
1
1
1
1
1
1
1
1
1
1
1
1
1
1
1
1
1
1
1
1
1
1
1
1
1
1
1
1
1
1
1
1
1
1
1
1
1
1
1
1
0.687888
1
1
1
1
1
1
1
1
1
1
0.999669
0.996857
0.987519
0.965713
0.923843
0.851299
0.728917
0.526655
0.289568
-5.82132e-28
0.0604852
0.0465255
0.019902
0.013217
0.0209746
0.0206871
0.0127723
-1.18341e-21
-1.91483e-22
-7.16463e-23
-4.77211e-23
-2.89328e-23
-1.78723e-23
-1.43825e-23
-1.42827e-23
-1.64071e-23
-1.74611e-25
-1.44921e-24
-1.47787e-24
-5.30839e-29
-6.08097e-28
-5.82882e-27
-1.12938e-25
-5.59195e-27
-8.57456e-26
-1.53033e-25
-2.56095e-25
-3.81362e-25
-4.79643e-25
-5.50603e-25
-5.96124e-25
-6.13778e-25
-6.02855e-25
-5.66657e-25
-5.16982e-25
-4.78333e-25
-4.33271e-25
-3.5531e-25
-2.65942e-25
-9.3975e-30
-3.93609e-29
-2.52939e-28
-9.11637e-28
-2.027e-27
-3.86116e-27
-6.79307e-27
-1.08288e-26
-1.49883e-26
-1.82391e-26
-2.04196e-26
-2.14908e-26
-2.14191e-26
-2.03019e-26
-1.84168e-26
-1.62053e-26
-1.40576e-26
-1.17711e-26
-9.12947e-27
-6.51514e-27
-1.361e-30
-1.93301e-30
-7.1417e-30
-2.60061e-29
-6.5959e-29
-1.38657e-28
-2.54182e-28
-4.0951e-28
-5.79918e-28
-7.33877e-28
-8.49223e-28
-9.11932e-28
-9.16609e-28
-8.68223e-28
-7.80912e-28
-6.73045e-28
-5.58712e-28
-4.4194e-28
-3.27112e-28
-2.25316e-28
-1.44823e-31
-1.12845e-31
-3.04701e-31
-1.00432e-30
-2.75665e-30
-6.28053e-30
-1.21923e-29
-2.04518e-29
-3.00211e-29
-3.92036e-29
-4.63213e-29
-5.01954e-29
-5.04121e-29
-4.73437e-29
-4.19158e-29
-3.52228e-29
-2.81616e-29
-2.13175e-29
-1.5155e-29
-1.00832e-29
-1.20975e-32
-6.46567e-33
-1.41718e-32
-4.605e-32
-1.34712e-31
-3.28919e-31
-6.71154e-31
-1.15877e-30
-1.72475e-30
-2.26019e-30
-2.65932e-30
-2.85524e-30
-2.83292e-30
-2.62196e-30
-2.27856e-30
-1.86601e-30
-1.44032e-30
-1.04453e-30
-7.08983e-31
-4.49923e-31
-7.82919e-34
-2.86932e-34
-5.90072e-34
-2.08378e-33
-6.57232e-33
-1.68768e-32
-3.52332e-32
-6.07017e-32
-8.88851e-32
-1.14171e-31
-1.31995e-31
-1.39803e-31
-1.37051e-31
-1.24933e-31
-1.0604e-31
-8.37968e-32
-6.1634e-32
-4.22074e-32
-2.69689e-32
-1.61613e-32
-3.51182e-35
-7.94864e-36
-1.97041e-35
-8.18979e-35
-2.76234e-34
-7.22836e-34
-1.49177e-33
-2.48331e-33
-3.49894e-33
-4.36877e-33
-4.97227e-33
-5.21358e-33
-5.0354e-33
-4.4641e-33
-3.62597e-33
-2.70334e-33
-1.86057e-33
-1.19262e-33
-7.19742e-34
-4.13613e-34
-7.19928e-37
-1.43853e-37
-4.88033e-37
-2.40234e-36
-8.29668e-36
-2.1424e-35
-4.25769e-35
-6.71255e-35
-9.05308e-35
-1.10773e-34
-1.25135e-34
-1.29352e-34
-1.20765e-34
-1.01278e-34
-7.66543e-35
-5.30524e-35
-3.41809e-35
-2.08638e-35
-1.22187e-35
-6.91176e-36
-1.66158e-39
-2.40973e-39
-7.49954e-39
-3.93866e-38
-1.33134e-37
-3.33923e-37
-6.35169e-37
-9.49637e-37
-1.24374e-36
-1.51747e-36
-1.70423e-36
-1.70491e-36
-1.49434e-36
-1.15489e-36
-8.06045e-37
-5.24043e-37
-3.25312e-37
-1.9478e-37
-1.12459e-37
-6.26079e-38
-2.13759e-43
-1.02225e-41
-4.35578e-41
-2.13397e-40
-6.7668e-40
-1.63632e-39
-2.99373e-39
-4.31224e-39
-5.61446e-39
-6.92405e-39
-7.68348e-39
-7.30902e-39
-5.92122e-39
-4.21639e-39
-2.77497e-39
-1.754e-39
-1.07291e-39
-6.29088e-40
-3.5223e-40
-1.89811e-40
1
1
1
1
1
1
1
1
1
1
1
1
1
1
1
1
1
1
1
1
1
1
1
1
1
1
1
1
0.999999
0.999999
1
1
1
1
1
1
1
1
1
1
1
1
1
1
1
1
1
1
1
1
1
1
1
1
1
1
1
1
1
1
1
1
1
1
1
1