/*--------------------------------*- C++ -*----------------------------------*\
| =========                 |                                                 |
| \\      /  F ield         | OpenFOAM: The Open Source CFD Toolbox           |
|  \\    /   O peration     | Version:  v1912                                 |
|   \\  /    A nd           | Website:  www.openfoam.com                      |
|    \\/     M anipulation  |                                                 |
\*---------------------------------------------------------------------------*/
FoamFile
{
    version     2.0;
    format      ascii;
    class       volScalarField;
    location    "20";
    object      epsilon;
}
// * * * * * * * * * * * * * * * * * * * * * * * * * * * * * * * * * * * * * //

dimensions      [0 2 -3 0 0 0 0];


internalField   nonuniform List<scalar> 
20320
(
4.44069e-05
0.000214438
0.000220348
0.000226205
0.000231963
0.000237575
0.000242984
0.000248118
0.000252892
0.000257208
0.000260949
0.000263972
0.00026611
0.000267177
0.000267207
0.000270597
0.00032628
0.000732767
0.00238302
0.00459239
4.40083e-05
4.39228e-05
4.46469e-05
4.63698e-05
4.96013e-05
5.49512e-05
6.31621e-05
7.51533e-05
9.20445e-05
0.000115135
0.000145871
0.000185729
0.000236103
0.00029792
0.000375015
0.000541723
0.00135709
0.00400502
0.00763078
0.0110012
4.44126e-05
4.49035e-05
4.60876e-05
4.8069e-05
5.12791e-05
5.62867e-05
6.38991e-05
7.52746e-05
9.20867e-05
0.000116659
0.000152038
0.000201935
0.000270289
0.000360637
0.000496693
0.000951472
0.00297136
0.00742897
0.0120167
0.0163815
4.49923e-05
4.64642e-05
4.87089e-05
5.17654e-05
5.60814e-05
6.22517e-05
7.11165e-05
8.39262e-05
0.00010254
0.000129717
0.000169453
0.000227074
0.000308415
0.000421088
0.000638732
0.00157185
0.00492505
0.0106297
0.0158536
0.021521
4.57108e-05
4.84981e-05
5.21691e-05
5.66945e-05
6.25368e-05
7.0316e-05
8.09284e-05
9.56952e-05
0.000116607
0.000146692
0.000190488
0.000254412
0.000345885
0.0004811
0.000824947
0.00241355
0.00702466
0.0136069
0.0193293
0.0264672
4.65477e-05
5.09916e-05
5.64957e-05
6.29698e-05
7.08667e-05
8.0833e-05
9.38025e-05
0.000111153
0.000134987
0.000168484
0.000216529
0.000286094
0.000385892
0.000547262
0.00107357
0.0034357
0.00915082
0.0163975
0.0225635
0.0312551
4.74753e-05
5.38872e-05
6.16329e-05
7.0555e-05
8.10977e-05
9.38991e-05
0.000109911
0.000130576
0.000158059
0.000195674
0.000248551
0.00032387
0.000431689
0.000626489
0.00139506
0.00458082
0.0112427
0.0190382
0.0256345
0.0359282
4.84593e-05
5.71062e-05
6.74774e-05
7.93654e-05
9.31954e-05
0.000109561
0.000129428
0.000154258
0.000186254
0.00022887
0.00028737
0.000368996
0.000485637
0.000724116
0.00178954
0.00579662
0.0132774
0.021566
0.0285999
0.0405361
4.94582e-05
6.05374e-05
7.38577e-05
8.92112e-05
0.000106976
0.000127715
0.000152371
0.000182372
0.000219977
0.00026871
0.000333888
0.000422757
0.000549821
0.000843871
0.00224822
0.00704366
0.0152544
0.0240208
0.031514
0.0451387
5.04237e-05
6.403e-05
8.05224e-05
9.9755e-05
0.000122071
0.000148038
0.000178517
0.000214917
0.000259521
0.00031583
0.00038918
0.000486731
0.000626526
0.000988095
0.00275701
0.00829577
0.0171864
0.0264478
0.0344353
0.0498099
5.13023e-05
6.73984e-05
8.71331e-05
0.000110502
0.000137899
0.000169911
0.000207342
0.000251618
0.000304968
0.000370827
0.000454511
0.000562928
0.000718533
0.00115806
0.00330028
0.00953861
0.0190974
0.0289029
0.0374359
0.0546435
5.20397e-05
7.04328e-05
9.32758e-05
0.000120822
0.000153644
0.000192398
0.000237965
0.000291821
0.000356096
0.000434189
0.000531296
0.00065389
0.00082938
0.0013546
0.00386411
0.0107688
0.0210244
0.0314609
0.0406138
0.0597651
5.25871e-05
7.29197e-05
9.85026e-05
0.000129996
0.000168298
0.000214277
0.000269115
0.000334403
0.000412272
0.000506169
0.00062105
0.00076279
0.000963738
0.00157934
0.00443929
0.0119953
0.023024
0.0342315
0.0441146
0.0653581
5.29073e-05
7.46688e-05
0.000102391
0.00013729
0.000180748
0.000234105
0.000299113
0.000377688
0.000472267
0.000586515
0.000725133
0.000893349
0.00112772
0.00183611
0.00502368
0.0132419
0.0251842
0.0373864
0.0481711
0.07172
5.2981e-05
7.55432e-05
0.000104608
0.000142065
0.000189929
0.000250339
0.000325945
0.000419417
0.000534042
0.000674092
0.000844314
0.00104951
0.0013291
0.00213273
0.00562516
0.0145532
0.0276468
0.0412126
0.053192
0.0793222
5.28101e-05
7.54857e-05
0.000104978
0.000143885
0.000194984
0.000261527
0.000347433
0.000456789
0.000594556
0.000766395
0.000978007
0.00123459
0.00157706
0.00248241
0.00626432
0.0160042
0.0306468
0.046224
0.0599573
0.089089
5.2417e-05
7.45293e-05
0.000103507
0.000142606
0.000195421
0.00026653
0.000361493
0.000486633
0.000649667
0.000859002
0.00112311
0.00144958
0.00188056
0.00290359
0.00697492
0.0177091
0.0345767
0.0533956
0.0701213
0.103076
5.18413e-05
7.27915e-05
0.000100391
0.000138413
0.000191217
0.000264745
0.000366474
0.000505745
0.000694268
0.000945138
0.00127253
0.00169025
0.00224413
0.00341571
0.00779625
0.0198153
0.0400667
0.0646502
0.0876403
0.126837
5.11329e-05
7.04515e-05
9.59732e-05
0.000131786
0.000182839
0.000256271
0.000361518
0.000511449
0.000722881
0.00101585
0.00141411
0.00194359
0.00266061
0.00402862
0.00874937
0.0224434
0.0479891
0.0837006
0.123055
0.179999
5.03447e-05
6.77185e-05
9.06824e-05
0.00012341
0.000171169
0.000241933
0.000346828
0.000502243
0.000730692
0.00106108
0.00153075
0.00218507
0.00310155
0.00472315
0.0097914
0.0254932
0.0589894
0.116228
0.204136
0.369484
3.15558
7.11903
10.0118
11.3755
11.8128
12.1965
18.3077
38.0285
81.9064
173.866
359.437
629.005
841.422
879.09
810.072
839.061
1050.72
1497.05
2218.21
3397.33
4590.62
3952.63
2245.62
1437.64
1017.65
764.486
595.915
476.803
389.551
324.08
274.035
235.168
204.747
180.443
160.658
144.284
130.528
118.818
108.76
100.061
92.4907
85.8863
80.1061
75.0216
70.5276
66.5256
62.934
59.6794
56.7057
53.9824
51.5
49.2541
47.2475
45.4731
43.9177
42.5751
41.4361
40.4976
39.7554
39.2036
6.10851
3.37074
4.35402
5.12861
5.80044
7.0304
11.1615
22.6887
49.1985
107.613
234.481
465.816
685.054
720.211
557.268
494.839
609.518
898.924
1392.93
2303.46
4031.34
1923.14
968.524
630.242
452.296
343.303
270.155
218.133
179.646
150.332
127.492
109.378
94.8214
82.966
73.1926
65.0487
58.1952
52.3739
47.3875
43.0851
39.3506
36.094
33.2427
30.7367
28.5238
26.5586
24.8026
23.2252
21.802
20.5137
19.3455
18.2874
17.3319
16.4733
15.7062
15.0255
14.4262
13.9033
13.453
13.0726
7.89883
3.43241
4.16296
4.97105
5.81066
7.05284
10.1876
18.8192
40.0436
90.4323
230.039
698.135
808.099
1053.47
989.334
695.711
690.967
979.621
1575.15
2708.07
4559
1569.67
801.651
525.759
382.52
293.606
233.257
190.134
158.182
133.772
114.632
99.2977
86.802
76.4756
67.8485
60.5746
54.3927
49.1004
44.5378
40.5783
37.1233
34.094
31.4273
29.0705
26.9789
25.1142
23.4439
21.9407
20.5825
19.3512
18.2331
17.2173
16.2956
15.4612
14.7079
14.0302
13.4236
12.8838
12.4075
11.9937
9.33721
3.89206
4.51279
5.43135
6.41852
7.65466
10.0021
15.8192
30.1068
63.3389
145.915
341.226
436.623
627.974
672.507
696.656
750.286
1011.6
1677.29
2514.07
2129.06
1071.33
625.709
426.507
318.236
249.172
201.306
166.698
140.829
120.847
104.958
92.0334
81.3378
72.367
64.7706
58.2911
52.7294
47.9271
43.7557
40.1109
36.9092
34.0838
31.5801
29.3525
27.3625
25.5776
23.9702
22.517
21.1987
19.9993
18.9066
17.9105
17.0029
16.1763
15.4243
14.7414
14.1234
13.5666
13.0686
12.6315
10.7439
4.48891
5.12182
6.216
7.40155
8.71341
10.6323
14.5869
23.6484
43.5359
84.5774
161.899
231.48
324.115
469.391
564.69
723.955
1025.98
1719
2080.22
1261.27
745.222
473.618
333.892
254.485
203.17
167.403
141.451
121.854
106.441
93.9209
83.5301
74.7784
67.3279
60.9315
55.4098
50.6196
46.4439
42.7852
39.562
36.7084
34.1702
31.9027
29.8686
28.0363
26.3799
24.8774
23.5101
22.2622
21.1212
20.077
19.1212
18.2456
17.4428
16.7064
16.0313
15.4137
14.8512
14.3423
13.8927
12.2901
5.18146
5.92536
7.26857
8.74155
10.2514
12.0486
15.0247
21.1585
34.0451
59.2352
102.979
159.072
237.684
364.518
541.241
719.856
1217.64
1875.54
1451.68
896.983
556.364
364.559
259.998
199.869
161.705
135.709
117.058
102.874
91.5255
82.13
74.2006
67.4181
61.5634
56.475
52.0253
48.1185
44.6738
41.6235
38.9101
36.4842
34.3042
32.3358
30.5503
28.9238
27.438
26.0771
24.8267
23.6758
22.6162
21.6408
20.7426
19.9138
19.1468
18.4356
17.7758
17.1649
16.6017
16.0863
15.6286
13.9101
5.99172
6.91644
8.59371
10.4628
12.3258
14.2642
16.8615
21.5328
30.9733
49.3899
82.1545
134.233
221.552
377.415
631.879
874.137
1864.96
2075.13
1224.09
725.932
443.526
288.655
204.739
157.545
128.777
109.665
96.1367
85.9229
77.7596
70.964
65.2223
60.2615
55.9417
52.1473
48.7905
45.8021
43.1255
40.7255
38.568
36.6168
34.835
33.1982
31.6882
30.2898
28.995
27.7919
26.6701
25.6241
24.652
23.7511
22.9146
22.1338
21.401
20.7117
20.063
19.4537
18.8843
18.3578
17.8886
15.731
6.9479
8.11843
10.2317
12.6255
15.0245
17.3744
20.0437
24.1281
31.9353
47.3911
76.4825
129.982
235.897
462.561
913.525
1398.02
3304.88
2100.36
1101
610.461
360.344
230.897
163.006
126.609
104.939
90.023
79.645
71.9967
66.1034
61.3158
57.2714
53.8463
50.8419
48.1726
45.7744
43.6027
41.6262
39.8198
38.1548
36.6072
35.1715
33.8282
32.5641
31.3722
30.256
29.2065
28.2115
27.2725
26.3922
25.5705
24.8001
24.0709
23.3753
22.7114
22.0797
21.4809
20.9177
20.3957
19.9329
18.0014
8.10569
9.58534
12.2568
15.3367
18.4874
21.5587
24.7417
28.8899
36.1308
50.5515
79.1445
136.769
264.497
590.602
1481.06
2787.92
4621.78
1956.29
937.769
495.114
286.438
183.427
131.159
105.385
87.3069
74.9674
66.6352
60.8066
56.5443
53.2323
50.5425
48.2253
46.1614
44.2949
42.5805
40.988
39.4959
38.0965
36.7847
35.5464
34.366
33.2343
32.1499
31.1194
30.1517
29.2337
28.3547
27.5182
26.7281
25.9851
25.2828
24.612
23.9667
23.3474
22.7568
22.1977
21.6743
21.1925
20.7696
20.7656
9.574
11.4159
14.7861
18.7624
22.9361
27.104
31.33
36.2164
43.7861
58.4493
88.4971
152.057
299.703
704.086
2078.48
5190.07
3854.47
1548.53
721.95
378.132
221.019
145.144
107.55
86.7028
72.5648
63.035
56.5599
52.0669
48.8845
46.5196
44.7048
43.1962
41.8362
40.5732
39.3761
38.2245
37.1051
36.0193
34.9755
33.9683
32.984
32.0186
31.0792
30.1785
29.327
28.5154
27.735
26.9883
26.279
25.6076
24.969
24.3565
23.7663
23.2
22.6616
22.1551
21.6847
21.2556
20.883
24.2448
11.5146
13.7851
17.9932
23.1363
28.7072
34.4756
40.4495
46.9526
55.9176
72.1418
105.5
177.343
344.924
790.243
2182.77
5812.15
2421.87
1058.02
512.765
277.742
168.857
116.492
90.3957
73.2876
61.4545
53.6411
48.404
44.8326
42.3783
40.6541
39.4227
38.4762
37.6455
36.8569
36.0772
35.2892
34.4852
33.6699
32.8546
32.0413
31.2244
30.4062
29.5979
28.815
28.0676
27.3515
26.661
25.9978
25.3648
24.7624
24.1872
23.6348
23.1036
22.5958
22.1156
21.6671
21.2539
20.8798
20.5581
30.0615
14.2011
16.9424
22.1461
28.7841
36.272
44.3651
53.0987
62.5228
74.4648
94.2671
133.713
217.513
409.143
905.073
2504.21
3442.35
1479.34
694.165
357.858
204.268
131.281
96.6418
77.2151
63.1545
53.0289
46.179
41.6375
38.6251
36.6361
35.3318
34.4887
33.9237
33.4779
33.0591
32.6218
32.1446
31.6195
31.0504
30.4478
29.8179
29.1628
28.4904
27.8146
27.1512
26.5103
25.8914
25.2923
24.7143
24.16
23.6299
23.122
22.6343
22.1666
21.7215
21.3028
20.914
20.5581
20.2373
19.9634
42.5344
18.0577
21.2812
27.6475
36.1333
46.2428
57.7306
70.7571
85.1517
102.68
129.624
180.325
284.284
510.841
1066.09
2594.79
2037.76
947.432
474.652
257.807
154.709
105.701
82.4343
66.9041
55.1141
46.3994
40.2442
36.0805
33.3405
31.5872
30.5099
29.8918
29.5612
29.3714
29.2209
29.0513
28.8319
28.5495
28.2038
27.8019
27.3516
26.8606
26.3394
25.8033
25.2672
24.741
24.2273
23.7264
23.2399
22.7702
22.3183
21.8837
21.4659
21.0657
20.686
20.33
20.0006
19.6998
19.4291
19.199
61.5913
23.5484
27.3053
35.061
45.7063
59.3718
75.8858
95.5848
118.229
145.714
186.148
258.358
401.057
692.034
1359.74
2925.63
1345.38
664.265
345.526
193.462
121.414
88.6652
71.3969
58.5127
48.5776
41.0049
35.4394
31.536
28.9171
27.2423
26.2427
25.714
25.4939
25.4453
25.4648
25.4839
25.4619
25.3782
25.2257
25.0069
24.7283
24.3989
24.031
23.639
23.2367
22.8329
22.4319
22.0358
21.6469
21.2675
20.8991
20.5424
20.1981
19.8679
19.5543
19.2603
18.9882
18.7394
18.515
18.3247
75.5614
30.8799
35.3178
44.6473
58.1543
76.5248
100.394
130.566
166.851
211.543
276.337
389.411
611.078
1036.14
1928.53
2126.54
1017.3
502.911
261.466
149.057
98.398
76.4494
62.435
51.6131
43.1229
36.4874
31.446
27.776
25.2308
23.5625
22.553
22.022
21.8204
21.8218
21.9252
22.0576
22.1705
22.2355
22.2387
22.177
22.0536
21.8761
21.6556
21.4047
21.135
20.855
20.5695
20.2809
19.992
19.7054
19.4228
19.1458
18.8759
18.6153
18.3665
18.1321
17.914
17.7134
17.5315
17.3772
97.5934
39.7767
45.1969
57.0594
74.3259
98.644
132.825
179.44
238.608
312.378
419.215
601.985
983.821
1730.31
3170.56
1786.22
810.942
386.424
198.555
116.455
82.2777
66.6831
55.0106
45.8298
38.4831
32.6189
28.0428
24.6028
22.1333
20.4577
19.4062
18.8272
18.5897
18.5797
18.7029
18.8862
19.0774
19.242
19.3603
19.4237
19.4313
19.3875
19.3006
19.1801
19.0352
18.8727
18.6974
18.5126
18.3211
18.1251
17.9265
17.7273
17.5296
17.3358
17.1484
16.9696
16.8015
16.6452
16.5018
16.3801
134.853
50.7688
57.8661
73.2554
95.2735
126.71
174.259
246.02
342.615
465.765
645.256
927.945
1582.46
3225.53
3781.54
1460.26
620.685
286.711
148.609
92.3304
70.9256
58.4828
48.7452
40.8947
34.4738
29.2485
25.0828
21.8691
19.492
17.8233
16.732
16.0948
15.7992
15.7456
15.8486
16.0388
16.2635
16.4855
16.6807
16.8359
16.9462
17.0121
17.0383
17.0309
16.9961
16.9393
16.8643
16.774
16.6712
16.5583
16.4376
16.3111
16.1806
16.0485
15.9174
15.7895
15.6667
15.5504
15.4421
15.3499
151.767
63.908
73.326
93.799
122.505
162.007
224.727
320.866
413.21
572.89
820.422
1268.73
2173.7
4558.13
2820.42
1036.5
433.5
202.246
110.331
75.1497
61.7451
51.6845
43.4662
36.6521
30.9714
26.2746
22.4681
19.4726
17.2034
15.5637
14.4513
13.7656
13.4122
13.3049
13.3685
13.5393
13.767
14.0139
14.2537
14.4702
14.6546
14.8041
14.9195
15.0038
15.0606
15.093
15.1039
15.0956
15.0704
15.0306
14.9781
14.9153
14.8442
14.7673
14.6865
14.6039
14.5216
14.4411
14.3645
14.2989
176.588
76.4662
88.8329
115.405
151.787
200.733
261.869
324.22
408.399
553.616
789.798
1218.58
2116.13
3621.97
1497.15
626.174
278.758
138.58
83.1885
63.6817
54.2714
46.0583
38.9936
32.9762
27.8831
23.6238
20.131
17.3429
15.1923
13.6024
12.4912
11.7756
11.3761
11.2191
11.2386
11.3779
11.5905
11.8399
12.0997
12.3515
12.5843
12.7921
12.9729
13.1265
13.2543
13.3576
13.4379
13.4969
13.5363
13.5578
13.5632
13.5546
13.534
13.5037
13.4659
13.4227
13.3758
13.3271
13.2789
13.2372
192.709
84.8126
97.5142
123.935
160.162
203.214
249.233
305.246
386.145
515.68
723.501
1047.61
1646.93
1521.86
761.442
358.665
174.949
96.0437
65.3625
55.5881
48.1823
41.2949
35.13
29.7469
25.1315
21.2403
18.024
15.4314
13.4053
11.8816
10.7918
10.066
9.63663
9.44027
9.41964
9.52465
9.71319
9.95142
10.2134
10.4806
10.7401
10.9842
11.2082
11.4101
11.5891
11.7449
11.878
11.9892
12.0795
12.15
12.2024
12.2382
12.2594
12.2679
12.2658
12.2553
12.2385
12.2174
12.1944
12.1741
196.313
86.7238
98.0678
123.001
155.51
193.495
237.019
294.251
373.393
487.225
653.078
860.132
1139.21
762.638
409.956
211.335
112.805
69.6538
54.3923
49.2549
43.2095
37.2396
31.7441
26.8695
22.6534
19.0795
16.1112
13.7031
11.8042
10.3582
9.306
8.58733
8.14374
7.92035
7.8672
7.94021
8.10183
8.32112
8.5738
8.84146
9.11089
9.373
9.62179
9.85351
10.0658
10.2575
10.4279
10.5769
10.705
10.8129
10.9016
10.9723
11.0267
11.0664
11.0936
11.1101
11.1184
11.1206
11.1193
11.1177
182.243
82.8745
92.9361
115.604
144.997
180.604
225.562
286.334
363.567
460.778
581.281
719.217
718.848
429.65
240.862
131.441
76.6117
53.86
48.0444
44.1753
39.0336
33.7184
28.7342
24.2757
20.4016
17.1086
14.3665
12.1335
10.362
9.00127
7.99834
7.30026
6.85573
6.61672
6.53939
6.58492
6.71996
6.91672
7.1528
7.41078
7.67758
7.94367
8.20223
8.44854
8.67936
8.89247
9.08656
9.26085
9.4151
9.54952
9.66471
9.76155
9.84127
9.90539
9.95566
9.99414
10.0231
10.0449
10.0621
10.0762
145.083
75.8824
84.8146
104.525
130.665
163.892
208.405
268.602
339.874
423.591
507.339
610.271
451.883
266.342
150.778
86.0042
55.3741
44.6932
43.4926
40.0705
35.4334
30.5897
26.0166
21.9121
18.3403
15.3019
12.7697
10.7036
9.05865
7.78726
6.84143
6.17365
5.73838
5.49306
5.39902
5.42198
5.53237
5.70537
5.92071
6.16225
6.41757
6.67723
6.9342
7.18324
7.42057
7.64344
7.84991
8.03868
8.20905
8.36075
8.49396
8.60916
8.70729
8.78956
8.85758
8.91328
8.95894
8.99703
9.02978
9.05711
102.34
67.5943
75.7068
91.98
114.174
143.414
182.988
232.806
295.203
377.701
450.632
481.143
295.333
171.546
97.6005
58.9969
42.9177
39.7361
39.7196
36.514
32.229
27.756
23.5313
19.7402
16.4431
13.6406
11.3058
9.39967
7.87898
6.69879
5.81472
5.18369
4.76488
4.52029
4.41556
4.42036
4.50848
4.65781
4.85023
5.07116
5.30905
5.55495
5.802
6.04489
6.27956
6.50294
6.71275
6.90732
7.08551
7.24674
7.39075
7.51776
7.62832
7.7234
7.80443
7.87322
7.93201
7.98327
8.02892
8.06722
66.5076
59.6725
66.7976
79.586
97.6332
122.153
154.21
196.126
258.554
328.483
396.531
320.121
192.204
110.666
64.5087
42.8164
35.8749
37.2546
36.5599
33.3915
29.3314
25.1575
21.2384
17.7328
14.6908
12.11
9.96265
8.21035
6.81098
5.72199
4.90203
4.31171
3.91411
3.67523
3.56441
3.55466
3.62278
3.74923
3.9179
4.11575
4.33241
4.55963
4.79095
5.02124
5.24645
5.46338
5.66955
5.86304
6.04246
6.20691
6.35586
6.48919
6.6072
6.71061
6.80062
6.87892
6.94769
7.00935
7.06539
7.11247
51.4522
51.1896
58.3262
68.3425
82.9801
103.765
131.408
170.984
229.994
282.595
314.494
208.567
123.202
71.2383
44.1791
33.4605
32.3249
35.014
33.7657
30.5582
26.6714
22.7544
19.112
15.8714
13.0697
10.6992
8.73074
7.12631
5.84484
4.84589
4.09075
3.54322
3.16985
2.94007
2.82649
2.80509
2.8553
2.9599
3.10472
3.27832
3.4715
3.6769
3.8886
4.10181
4.31267
4.51802
4.71529
4.90246
5.07797
5.24067
5.38983
5.52509
5.64647
5.75449
5.85013
5.93493
6.01097
6.08053
6.14464
6.19847
56.133
42.8718
49.9814
58.8997
71.4019
90.0755
117.079
156.804
204.668
246.794
215.586
133.145
78.3989
46.8
32.3504
28.4855
31.0548
32.9681
31.2011
27.9304
24.1956
20.5156
17.1323
14.1424
11.5691
9.39913
7.60195
6.13961
4.97229
4.06136
3.37063
2.86678
2.51947
2.30119
2.1874
2.15669
2.19086
2.27481
2.39621
2.54516
2.71369
2.89537
3.08495
3.27811
3.47122
3.6613
3.84582
4.02272
4.19036
4.34746
4.49311
4.62677
4.74828
4.85791
4.95644
5.04524
5.12622
5.20147
5.27155
5.33024
69.6824
36.4521
42.8149
51.7986
63.7908
81.863
109.218
148.904
189.755
209.28
143.134
86.4649
50.9089
32.5742
25.9584
26.2974
30.5966
30.9532
28.7379
25.4422
21.8663
18.4185
15.2849
12.5352
10.1805
8.2025
6.5692
5.24321
4.18589
3.36055
2.7333
2.27345
1.95346
1.74853
1.63665
1.59872
1.61865
1.68326
1.78198
1.90641
2.04983
2.20676
2.37269
2.5438
2.71685
2.88903
3.05797
3.22167
3.37843
3.52694
3.6662
3.79548
3.91451
4.02336
4.12256
4.2133
4.29729
4.3763
4.45037
4.51216
74.4321
34.811
38.7139
47.7483
60.6389
79.8609
108.226
148.102
183.642
160.631
98.318
57.6087
34.5918
24.7303
22.8632
25.9256
29.6079
28.9285
26.3643
23.0721
19.6662
16.4502
13.5602
11.0424
8.8973
7.10298
5.6265
4.43097
3.4794
2.73699
2.17208
1.75642
1.46496
1.27522
1.16744
1.12444
1.13201
1.17877
1.25581
1.35619
1.47447
1.60617
1.74751
1.89528
2.04661
2.19901
2.35026
2.49848
2.64204
2.77961
2.91012
3.03283
3.14727
3.25336
3.35147
3.44249
3.52781
3.60885
3.68509
3.74829
71.77
34.2615
36.9015
46.462
61.5857
84.1942
116.105
156.045
175.217
116.784
68.322
39.1325
25.0147
20.6253
21.7562
26.5757
28.2971
26.8518
24.0533
20.8129
17.59
14.6056
11.9528
9.65845
7.71441
6.09551
4.76846
3.69753
2.84739
2.18524
1.68166
1.31066
1.04936
0.87717
0.776189
0.730754
0.728213
0.758896
0.815466
0.892508
0.985898
1.09212
1.20824
1.3317
1.46004
1.59114
1.723
1.8539
1.98231
2.10693
2.22673
2.34091
2.44894
2.55061
2.64608
2.73592
2.82116
2.90264
2.97926
3.04222
66.072
31.9677
35.6947
46.5493
65.2124
93.5893
132.86
169.253
144.175
84.1055
46.7624
27.0817
19.5198
18.7218
21.9229
26.6026
26.7824
24.7442
21.8105
18.6643
15.6367
12.882
10.4596
8.37971
6.62751
5.17552
3.99057
3.03823
2.28521
1.70081
1.25821
0.933174
0.704339
0.552875
0.462167
0.417824
0.408345
0.425377
0.463182
0.517855
0.586637
0.667157
0.757446
0.855737
0.959835
1.0682
1.17902
1.29081
1.40219
1.51196
1.61913
1.72291
1.82273
1.91832
2.00961
2.09689
2.18063
2.26102
2.33623
2.39732
57.6199
29.2933
34.4652
47.2986
70.0981
106.287
152.797
169.839
105.829
57.6335
31.0081
19.4952
16.5896
18.2118
23.0031
25.8568
24.9639
22.5791
19.6319
16.626
13.8059
11.2783
9.07779
7.20278
5.63289
4.33907
3.28871
2.44895
1.78927
1.28204
0.900522
0.622321
0.428441
0.301791
0.226524
0.1885
0.176666
0.18369
0.205328
0.239275
0.284188
0.339035
0.402836
0.474515
0.552822
0.636572
0.724353
0.814988
0.907255
0.999962
1.09236
1.18358
1.27313
1.36064
1.44593
1.52894
1.6096
1.68726
1.75922
1.81664
48.8069
26.5818
33.2507
48.6704
76.0013
121.782
166.826
133.017
70.9546
36.3727
20.3353
15.1703
15.3406
18.6735
23.8287
24.5956
23.0116
20.4285
17.5392
14.7042
12.0984
9.79326
7.80577
6.12521
4.72763
3.58303
2.6597
1.92794
1.36018
0.927278
0.605652
0.375855
0.221145
0.125737
0.073576
0.0493227
0.0412846
0.0429261
0.0516992
0.0671036
0.08939
0.118899
0.155777
0.199882
0.25077
0.307793
0.370096
0.436806
0.507
0.579803
0.654493
0.730296
0.806901
0.883655
0.960369
1.03675
1.11213
1.18501
1.2516
1.3032
39.8299
23.9455
32.1701
51.3585
84.8187
134.448
158.432
84.3334
42.006
21.5504
14.1754
13.12
15.2557
19.8612
23.3851
23.0699
21.0325
18.3523
15.5583
12.9067
10.5148
8.42521
6.64067
5.14405
3.90871
2.90441
2.10239
1.47605
0.99465
0.633097
0.37126
0.192754
0.0832271
0.0275869
0.0071368
0.00217865
0.00129788
0.00145001
0.00233805
0.00440594
0.00852168
0.0158196
0.0274503
0.0443353
0.06703
0.0957194
0.130257
0.170281
0.215283
0.264692
0.31796
0.374559
0.4341
0.496184
0.560499
0.62654
0.693198
0.758301
0.816683
0.858962
31.4526
21.4612
31.3658
55.7856
101.585
149.42
94.9319
46.5408
22.4864
13.3044
11.2832
12.5645
16.041
21.1894
22.4936
21.3333
19.0295
16.3523
13.6925
11.2343
9.05363
7.17139
5.57967
4.25633
3.17321
2.30202
1.61799
1.08939
0.689528
0.397231
0.195947
0.0725489
0.0144155
0.000774007
7.00915e-05
5.34318e-05
5.34179e-05
5.51994e-05
5.86351e-05
6.65822e-05
8.99935e-05
0.000169675
0.000449988
0.0013294
0.00359458
0.00835054
0.0167114
0.0295348
0.0473194
0.0702368
0.0982574
0.13124
0.169012
0.211367
0.25802
0.308394
0.361153
0.413424
0.458963
0.48366
25.2997
19.6902
32.4795
65.7816
117.265
107.605
49.4597
22.6073
12.3193
9.684
10.3463
12.9997
17.5459
21.2854
21.1493
19.4166
17.0048
14.4195
11.9345
9.68153
7.71065
6.02836
4.61955
3.45928
2.5193
1.77773
1.20241
0.764926
0.4426
0.218155
0.07866
0.0131467
0.000290705
5.00114e-05
4.87315e-05
4.92944e-05
5.01104e-05
5.10978e-05
5.22078e-05
5.3426e-05
5.47804e-05
5.63313e-05
5.81985e-05
6.08265e-05
6.61652e-05
8.25086e-05
0.000142149
0.000363378
0.0010952
0.00306715
0.00737508
0.0152123
0.0275647
0.0450895
0.0681224
0.0964694
0.128988
0.162677
0.190702
0.196476
23.3232
21.0213
41.6183
102.987
107.253
48.2685
21.4624
11.0941
8.24508
8.51774
10.5289
14.157
19.2242
20.5272
19.4725
17.4193
15.0067
12.5668
10.2829
8.24447
6.4819
4.99257
3.75728
2.75
1.94969
1.32749
0.852562
0.50041
0.25233
0.0947544
0.0171984
0.0003685
4.92341e-05
4.78589e-05
4.79173e-05
4.82227e-05
4.87438e-05
4.94329e-05
5.02327e-05
5.11168e-05
5.21056e-05
5.32296e-05
5.44651e-05
5.57154e-05
5.68757e-05
5.7929e-05
5.8963e-05
6.01599e-05
6.18883e-05
6.52146e-05
7.42677e-05
0.000106436
0.000233663
0.000724276
0.0023162
0.00633628
0.0140122
0.0248049
0.0346318
0.0338536
33.6405
35.1755
80.6813
116.738
47.5201
19.7228
9.68
6.9167
7.01354
8.57111
11.4252
15.9076
19.2735
19.2286
17.6437
15.4401
13.0875
10.8166
8.74392
6.92221
5.36465
4.06104
2.99002
2.13039
1.46034
0.947694
0.565832
0.294088
0.1175
0.0251883
0.000809225
5.09497e-05
4.79002e-05
4.75214e-05
4.73831e-05
4.74552e-05
4.77273e-05
4.81666e-05
4.87135e-05
4.93287e-05
5.00287e-05
5.0857e-05
5.18125e-05
5.28169e-05
5.37704e-05
5.46319e-05
5.54346e-05
5.62563e-05
5.71817e-05
5.8283e-05
5.96346e-05
6.13344e-05
6.3545e-05
6.65985e-05
7.13862e-05
8.09032e-05
0.000106176
0.000175542
0.000286716
0.000256193
101.973
144.584
105.802
39.8667
15.6734
7.69104
5.59003
5.7275
7.03764
9.32512
12.8669
17.3627
18.5216
17.6441
15.7534
13.5133
11.2696
9.18375
7.32501
5.71738
4.35888
3.23255
2.31768
1.59907
1.04753
0.635567
0.340304
0.144689
0.0366132
0.00198917
5.64558e-05
4.85093e-05
4.77431e-05
4.72455e-05
4.69558e-05
4.68478e-05
4.69211e-05
4.7159e-05
4.75058e-05
4.79089e-05
4.83717e-05
4.89455e-05
4.96517e-05
5.04321e-05
5.11914e-05
5.18772e-05
5.25069e-05
5.31436e-05
5.3859e-05
5.47137e-05
5.57621e-05
5.7067e-05
5.87092e-05
6.07976e-05
6.34892e-05
6.70027e-05
7.15638e-05
7.70466e-05
8.21974e-05
8.20696e-05
35.0654
55.0377
20.2313
8.81354
5.18109
4.28717
4.62154
5.79276
7.76268
10.5924
14.8009
17.2998
17.2289
15.824
13.8051
11.634
9.55339
7.67267
6.03075
4.63244
3.46544
2.50675
1.74327
1.15188
0.707868
0.388712
0.174436
0.0507564
0.00438124
7.29293e-05
4.93809e-05
4.82579e-05
4.74625e-05
4.68868e-05
4.64956e-05
4.62614e-05
4.61869e-05
4.627e-05
4.64671e-05
4.67168e-05
4.70049e-05
4.73779e-05
4.78758e-05
4.84634e-05
4.90543e-05
4.95876e-05
5.00659e-05
5.05398e-05
5.10697e-05
5.1705e-05
5.24854e-05
5.34542e-05
5.46611e-05
5.61622e-05
5.80256e-05
6.03314e-05
6.31365e-05
6.6271e-05
6.91283e-05
6.89154e-05
4.95262e-05
6.47995e-05
8.49581e-05
0.000114046
0.000157343
0.000223165
0.000323743
0.000478352
0.000714874
0.00107182
0.00160294
0.00237944
0.00351144
0.00542983
0.0107701
0.0283091
0.0717438
0.162989
0.370464
1.2498
4.86963e-05
6.18438e-05
7.9123e-05
0.000104288
0.000142335
0.000201403
0.000294037
0.000441219
0.000674862
0.00104211
0.00161341
0.00248871
0.0038183
0.00603227
0.0114578
0.0296134
0.0807745
0.20082
0.482395
1.5571
4.78822e-05
5.89217e-05
7.33626e-05
9.45446e-05
0.000126937
0.000178018
0.00025978
0.000393347
0.000612365
0.00096957
0.00154879
0.0024752
0.00393869
0.00636803
0.0116228
0.028254
0.0792666
0.203624
0.472331
1.08962
4.71132e-05
5.61479e-05
6.79167e-05
8.52801e-05
0.000112036
0.000154655
0.000223819
0.000339179
0.000533249
0.000859585
0.00140807
0.00231796
0.00380636
0.00628422
0.0111262
0.0245356
0.0667427
0.174574
0.39369
0.781972
4.64117e-05
5.361e-05
6.29658e-05
7.68461e-05
9.83284e-05
0.000132713
0.000188903
0.000283823
0.000446246
0.000725447
0.0012078
0.00203104
0.00341538
0.00573586
0.00995526
0.0198338
0.0490492
0.12773
0.289798
0.558038
4.5793e-05
5.13652e-05
5.86162e-05
6.94475e-05
8.62521e-05
0.000113164
0.000157193
0.00023188
0.00036065
0.000584719
0.000978336
0.0016627
0.00283351
0.00481319
0.00824561
0.0151509
0.032759
0.0802395
0.185268
0.36428
4.52656e-05
4.94408e-05
5.49087e-05
6.31529e-05
7.59799e-05
9.64981e-05
0.000129965
0.000186495
0.000283892
0.000453804
0.000753488
0.00127768
0.00217906
0.00370736
0.00628133
0.010891
0.0206946
0.0447836
0.100613
0.204885
4.4834e-05
4.78411e-05
5.18235e-05
5.79122e-05
6.74668e-05
8.27578e-05
0.000107564
0.000149062
0.000220169
0.000343387
0.00055852
0.000931743
0.00156877
0.0026375
0.0043944
0.00729453
0.0125171
0.0233762
0.0473158
0.0952354
4.45012e-05
4.65504e-05
4.92826e-05
5.35775e-05
6.05018e-05
7.16604e-05
8.96638e-05
0.000119497
0.00017008
0.000256274
0.000403846
0.000656388
0.00108279
0.00178708
0.00292044
0.004712
0.00761094
0.0127104
0.0225412
0.0418717
4.42726e-05
4.55424e-05
4.71725e-05
5.00408e-05
5.537e-05
6.52024e-05
8.46913e-05
0.000127209
0.00022238
0.000429923
0.000849426
0.00161468
0.00289214
0.00490649
0.00800243
0.0127485
0.0201016
0.031671
0.0501512
0.0797953
4.45408e-05
4.53231e-05
5.02929e-05
8.39156e-05
0.000273053
0.00109798
0.00330881
0.00726885
0.0127297
0.0192384
0.026531
0.034669
0.0440031
0.0551016
0.0687652
0.0861662
0.109068
0.139907
0.182365
0.241493
0.000654815
0.000433303
0.00493409
0.0199553
0.0415491
0.0612821
0.0769412
0.089878
0.101541
0.112838
0.124552
0.137665
0.153167
0.171956
0.195065
0.224054
0.26206
0.314146
0.383083
0.469072
0.460092
0.160695
0.237608
0.260943
0.257936
0.248232
0.241107
0.238281
0.239646
0.245233
0.254963
0.269663
0.290077
0.316638
0.349326
0.387743
0.437583
0.518386
0.627408
0.749852
2.55975
1.15413
0.795819
0.600149
0.491623
0.430963
0.392841
0.369968
0.36297
0.369271
0.382881
0.405324
0.437129
0.478384
0.527667
0.575429
0.629007
0.739234
0.86374
0.990052
1.24537
0.999693
0.734654
0.619963
0.552134
0.48789
0.439209
0.408744
0.395154
0.389621
0.392631
0.406858
0.431482
0.466017
0.508329
0.550803
0.603432
0.682662
0.748076
0.804652
0.721324
0.522106
0.424898
0.399069
0.377136
0.351574
0.334243
0.327264
0.325399
0.322669
0.322584
0.328226
0.339812
0.356692
0.37761
0.402393
0.43886
0.487504
0.528981
0.560592
0.488189
0.336032
0.263556
0.243727
0.235627
0.230217
0.228549
0.230514
0.233534
0.23546
0.237393
0.240953
0.246808
0.255026
0.265622
0.279561
0.299409
0.324354
0.347677
0.366409
0.338858
0.224006
0.16548
0.148167
0.144214
0.144879
0.147825
0.151969
0.156155
0.159664
0.16272
0.165899
0.169621
0.174145
0.179773
0.1871
0.196801
0.20827
0.219244
0.228177
0.221853
0.138594
0.0953328
0.0835883
0.0823271
0.0847501
0.0885827
0.0928435
0.0969295
0.100523
0.103619
0.106382
0.109002
0.111662
0.114574
0.117987
0.122033
0.126377
0.130198
0.132802
0.125303
0.069354
0.0438699
0.0392879
0.0403718
0.0432929
0.0468276
0.0504339
0.0538067
0.0567796
0.0593009
0.0613962
0.0631284
0.0645785
0.065838
0.0669859
0.0680207
0.0687759
0.0689443
0.0682451
0.0543872
0.0212578
0.0128139
0.0129758
0.0148243
0.0172146
0.0197587
0.022248
0.0245424
0.0265477
0.0282098
0.0295077
0.0304438
0.0310358
0.0313079
0.0312764
0.0309272
0.0302007
0.0290094
0.0272883
0.0161375
0.00263275
0.00170615
0.00221381
0.00308287
0.00414921
0.0053103
0.00647792
0.0075748
0.00853662
0.00931428
0.00987461
0.0101994
0.0102834
0.010131
0.00975208
0.00915726
0.008358
0.00737488
0.00624974
0.00517252
0.00032913
0.000132773
0.000174594
0.000265651
0.000406536
0.000592894
0.000809658
0.00103407
0.00124063
0.0014057
0.00151107
0.00154612
0.00150875
0.00140504
0.00124786
0.00105487
0.00084635
0.000643022
0.000463075
0.00187222
9.07224e-05
4.70955e-05
4.72507e-05
4.95682e-05
5.35757e-05
5.94279e-05
6.69773e-05
7.55283e-05
8.38497e-05
9.04644e-05
9.41065e-05
9.41396e-05
9.0748e-05
8.48283e-05
7.7649e-05
7.04432e-05