/*--------------------------------*- C++ -*----------------------------------*\
| =========                 |                                                 |
| \\      /  F ield         | OpenFOAM: The Open Source CFD Toolbox           |
|  \\    /   O peration     | Version:  v1912                                 |
|   \\  /    A nd           | Website:  www.openfoam.com                      |
|    \\/     M anipulation  |                                                 |
\*---------------------------------------------------------------------------*/
FoamFile
{
    version     2.0;
    format      ascii;
    class       volScalarField;
    location    "20";
    object      k;
}
// * * * * * * * * * * * * * * * * * * * * * * * * * * * * * * * * * * * * * //

dimensions      [0 2 -2 0 0 0 0];


internalField   nonuniform List<scalar> 
20320
(
0.00413898
0.00425522
0.00433305
0.0044095
0.00448401
0.00455605
0.00462494
0.00468986
0.00474982
0.00480371
0.00485017
0.00488756
0.00491392
0.00492704
0.0049274
0.00496879
0.00562736
0.0096458
0.0211732
0.0327993
0.00415045
0.00414893
0.00419304
0.00428682
0.00445044
0.00470249
0.00505898
0.00553314
0.00613486
0.00686941
0.00773746
0.00873438
0.00985011
0.0110524
0.0122879
0.0144018
0.024486
0.0527335
0.0810245
0.0817453
0.00417665
0.00421619
0.00430074
0.00443617
0.00464737
0.00496367
0.00542093
0.00606166
0.00693453
0.00808927
0.00956791
0.0113935
0.0135452
0.015872
0.0182326
0.0239468
0.048542
0.095172
0.129464
0.118239
0.00421394
0.00431685
0.00446836
0.00466939
0.00494486
0.00532518
0.00584913
0.00656835
0.00754961
0.00887617
0.0106444
0.012941
0.0157621
0.0188416
0.0224361
0.0346309
0.075355
0.133988
0.169944
0.148772
0.00425974
0.00444598
0.00468464
0.00497136
0.00533037
0.00579154
0.00639462
0.00719299
0.00825906
0.00969039
0.0116116
0.0141548
0.0173297
0.020851
0.0261889
0.0474551
0.103056
0.169331
0.204938
0.175206
0.0043125
0.00460124
0.00494768
0.00534267
0.00580818
0.00637341
0.00707749
0.00797362
0.00913652
0.0106676
0.012704
0.0153925
0.0187299
0.0225463
0.0304224
0.0622758
0.13041
0.201685
0.236086
0.198761
0.00437027
0.00477755
0.0052503
0.00577426
0.00636921
0.00706178
0.00788943
0.00890541
0.0101836
0.0118272
0.013978
0.0167763
0.0201878
0.024312
0.0356107
0.0784357
0.156769
0.231537
0.264472
0.220296
0.00443073
0.00496884
0.00558306
0.00625499
0.00700159
0.00784516
0.00882143
0.0099815
0.0113972
0.0131733
0.0154496
0.01835
0.0218064
0.0263587
0.041856
0.0952339
0.181885
0.259355
0.29087
0.240445
0.00449128
0.00516763
0.00593378
0.00676957
0.00768749
0.00870632
0.00985815
0.0111898
0.0127718
0.0147067
0.0171288
0.0201398
0.0236466
0.0288
0.0490208
0.112107
0.205739
0.28561
0.315925
0.259737
0.004549
0.00536491
0.00628755
0.00729764
0.00840332
0.00962095
0.0109764
0.0125127
0.0142972
0.0164265
0.0190269
0.0221724
0.0257602
0.0316939
0.0568512
0.128661
0.228446
0.310778
0.340243
0.278668
0.00460087
0.00555061
0.00662696
0.00781448
0.00911983
0.0105568
0.0121452
0.0139249
0.0159568
0.018329
0.0211573
0.0244812
0.0282038
0.035066
0.0650656
0.144646
0.250211
0.335389
0.364468
0.297767
0.00464392
0.00571425
0.00693292
0.00829257
0.00980256
0.0114742
0.0133254
0.0153922
0.017726
0.0204066
0.023534
0.0271069
0.0310444
0.0389286
0.0734144
0.159939
0.271333
0.360077
0.389376
0.317646
0.00467558
0.00584588
0.00718652
0.00870378
0.0104139
0.0123289
0.0144704
0.0168701
0.0195712
0.0226446
0.0261692
0.0300984
0.0343647
0.0433056
0.081725
0.17454
0.292248
0.385701
0.416017
0.339136
0.004694
0.00593711
0.00737111
0.00902173
0.010916
0.0130739
0.0155261
0.0183032
0.0214452
0.0250154
0.0290671
0.0335065
0.0382641
0.0482569
0.0899323
0.18858
0.313595
0.413499
0.445948
0.363476
0.00469822
0.00598219
0.00747448
0.00922481
0.0112754
0.0136629
0.0164336
0.0196251
0.0232842
0.0274704
0.0322129
0.0373738
0.0428552
0.0539012
0.0981146
0.202364
0.336347
0.445423
0.481732
0.392589
0.0046884
0.00597896
0.00749054
0.00929921
0.0114667
0.0140549
0.0171335
0.0207606
0.0250046
0.0299312
0.035558
0.0417152
0.0482489
0.0604265
0.106524
0.216425
0.362034
0.484744
0.527961
0.430064
0.00466574
0.00592913
0.00742028
0.00924119
0.0114761
0.0142193
0.0175717
0.0216296
0.0265021
0.0322811
0.0389994
0.0464839
0.0545155
0.0680661
0.115583
0.231567
0.39302
0.537208
0.593682
0.483477
0.00463234
0.00583808
0.00727169
0.00905788
0.0113044
0.0141407
0.0177066
0.0221545
0.0276559
0.03436
0.0423574
0.0515242
0.0616083
0.0770075
0.125783
0.248757
0.432668
0.612979
0.698399
0.571719
0.00459088
0.00571404
0.00705858
0.00876648
0.0109667
0.0138226
0.0175172
0.0222721
0.0283428
0.0359723
0.0453655
0.0565267
0.0692581
0.0872205
0.137396
0.268586
0.484593
0.728435
0.885953
0.752486
0.00454429
0.00556685
0.00679858
0.00839178
0.0104916
0.0132893
0.0170092
0.0219478
0.028458
0.0369107
0.0476848
0.0610064
0.0768657
0.0982072
0.149982
0.289881
0.548845
0.900008
1.24026
1.25102
1.46069
1.74527
2.19032
2.38485
2.44549
2.50024
3.28187
5.34186
8.90105
14.6952
23.8668
34.7295
42.2099
43.438
41.0679
41.9765
48.7499
61.7479
80.3187
106.899
130.948
118.249
81.0162
60.1432
47.7561
39.4578
33.4178
28.7995
25.1672
22.2613
19.9054
17.9752
16.389
15.0646
13.942
12.9779
12.1394
11.4026
10.75
10.1689
9.64973
9.18485
8.76787
8.39307
8.05453
7.74701
7.46583
7.20647
6.9654
6.74088
6.53267
6.34156
6.16812
6.01248
5.87457
5.75402
5.65066
5.56467
5.49607
5.44467
2.27559
4.97289
6.20411
6.90103
7.30662
7.58364
9.05136
13.6393
22.6261
38.1938
66.1197
109.235
145.651
156.661
138.351
128.149
141.09
178.893
235.646
323.26
461.28
287.463
187.918
141.532
113.271
94.0148
79.8948
69.0756
60.558
53.7208
48.1425
43.5249
39.6559
36.3845
33.5902
31.1775
29.0722
27.2185
25.5753
24.1118
22.8039
21.6321
20.5797
19.6318
18.7741
17.9948
17.2831
16.629
16.0244
15.4656
14.9523
14.4856
14.066
13.6929
13.3652
13.0814
12.8407
12.6428
12.4873
12.3736
2.70915
6.45508
8.09828
9.19566
9.96497
10.5519
11.8962
15.9889
24.9057
41.4292
75.6656
155.052
180.947
220.151
220.886
189.956
188.003
230.037
308.171
423.674
559.313
294.323
199.98
155.285
127.442
107.762
92.9478
81.4235
72.2634
64.8398
58.7127
53.5739
49.2046
45.4546
42.2091
39.3763
36.8828
34.6721
32.7013
30.9365
29.3516
27.9246
26.6361
25.4691
24.4083
23.4413
22.5573
21.7455
20.9975
20.3089
19.6788
19.1073
18.5943
18.1379
17.736
17.3865
17.0879
16.8396
16.6409
16.4914
3.03791
7.61872
9.65159
11.1376
12.2551
13.1419
14.4021
17.5614
24.6911
38.092
63.8181
109.624
134.873
173.885
187.686
202.367
215.252
255.41
348.036
440.438
383.56
251.131
183.668
147.386
124.33
107.536
94.5266
84.2176
75.9045
69.0573
63.3005
58.3807
54.1241
50.4116
47.1546
44.2805
41.7282
39.4484
37.4029
35.5611
33.8981
32.393
31.0266
29.7817
28.6442
27.6031
26.6493
25.7733
24.9673
24.2273
23.5525
22.9426
22.3964
21.9109
21.4828
21.1091
20.788
20.5185
20.3003
20.1337
3.34545
8.67558
11.1337
13.0315
14.5212
15.7124
17.0095
19.4926
24.8502
34.8787
51.7922
77.4878
101.082
128.165
163.332
187.128
220.002
267.455
362.154
400.998
289.835
208.545
159.646
131.392
113.409
100.266
89.973
81.7292
74.9687
69.2659
64.3458
60.0433
56.2507
52.8888
49.8994
47.2315
44.8394
42.6845
40.7363
38.9703
37.3658
35.9045
34.5692
33.3444
32.2178
31.1818
30.2301
29.355
28.5504
27.8134
27.1439
26.5413
26.0032
25.5253
25.1031
24.7333
24.4135
24.143
23.9217
23.7517
3.67036
9.71677
12.6477
14.9967
16.9094
18.4429
19.8802
22.0032
26.1602
33.9232
46.7375
65.3125
86.8595
112.423
146.508
187.644
222.66
293.877
373.196
317.396
234.191
174.729
137.1
114.741
100.732
90.7422
83.0354
76.8691
71.7236
67.2703
63.3324
59.8215
56.6774
53.8528
51.3082
49.0096
46.9259
45.0288
43.2975
41.7157
40.2673
38.9375
37.7119
36.5776
35.5258
34.5529
33.6559
32.8292
32.0689
31.3742
30.7458
30.1828
29.6814
29.2358
28.8408
28.4926
28.1893
27.9302
27.7163
27.5513
3.99915
10.8158
14.2609
17.1145
19.5124
21.4588
23.136
25.1311
28.5446
34.8341
45.3595
60.9081
81.3338
108.311
146.663
200.533
244.253
362.522
379.49
273.907
199.321
149.604
118.828
100.728
89.7281
82.1445
76.3427
71.7146
67.8433
64.47
61.4531
58.7569
56.3187
54.1121
52.1045
50.2688
48.5817
47.022
45.5825
44.2565
43.0321
41.8937
40.8303
39.8335
38.899
38.0295
37.2236
36.4767
35.7882
35.1607
34.5967
34.0938
33.6459
33.2458
32.8882
32.5702
32.2898
32.0474
31.8456
31.6895
4.35522
12.0239
16.0327
19.461
22.4178
24.8683
26.9055
28.9632
31.9503
37.2449
46.3208
60.3296
80.5206
110.351
158.228
234.319
304.789
484.798
365.725
246.532
174.289
130.493
104.82
90.2153
81.8138
75.9521
71.1412
67.3773
64.304
61.7343
59.4885
57.4744
55.696
54.0703
52.5723
51.1803
49.8789
48.6578
47.5097
46.4271
45.4038
44.4424
43.5324
42.6679
41.8494
41.0871
40.38
39.7208
39.1128
38.5612
38.0691
37.6321
37.2412
36.8879
36.5687
36.2825
36.0287
35.8093
35.6286
35.4913
4.78033
13.3842
18.0281
22.1193
25.7285
28.7896
31.3304
33.6506
36.4775
41.1125
49.2184
62.4164
82.9809
116.377
177.408
298.854
436.233
579.575
340.42
219.084
152.516
115.068
94.29
82.9518
77.1644
71.6337
67.2002
63.8712
61.3357
59.3429
57.6843
56.2555
54.9643
53.7624
52.6319
51.5558
50.5235
49.5271
48.5686
47.6534
46.7794
45.9399
45.1306
44.3535
43.6186
42.9395
42.3103
41.7236
41.1836
40.6953
40.2608
39.875
39.5285
39.2133
38.9275
38.6718
38.4476
38.2581
38.1076
37.9973
5.27577
14.9822
20.3371
25.1897
29.5702
33.3707
36.5801
39.3969
42.35
46.6439
54.1225
66.9609
88.336
125.294
197.189
365.451
632.915
512.303
293.908
188.049
132.397
102.466
86.6156
78.3204
72.8596
67.9851
64.1213
61.1965
58.998
57.3398
56.0313
54.9734
54.0503
53.1769
52.3311
51.5003
50.6766
49.8555
49.0441
48.2555
47.4917
46.7453
46.0149
45.3085
44.6408
44.0253
43.4574
42.9304
42.4469
42.0107
41.6223
41.2766
40.9653
40.6821
40.4261
40.1992
40.0041
39.8445
39.7233
39.6377
5.87022
16.9349
23.113
28.8048
34.0967
38.8054
42.8888
46.4839
49.9071
54.2347
61.4356
74.2713
96.8141
137.211
215.449
386.743
680.926
395.099
238.809
157.852
115.092
92.6797
81.3884
75.4195
70.0868
65.3046
61.6167
58.8631
56.8324
55.3522
54.2566
53.4362
52.7748
52.1646
51.5607
50.945
50.3093
49.6518
48.9805
48.31
47.6459
46.9859
46.3326
45.6972
45.0958
44.5407
44.0297
43.5581
43.1267
42.7377
42.3907
42.0809
41.8017
41.5486
41.3216
41.1231
40.9563
40.8243
40.7283
40.6624
6.79913
19.4067
26.5401
33.1523
39.4994
45.3319
50.5631
55.2963
59.6379
64.4969
71.9243
85.2139
109.241
153.074
237.462
422.725
508.506
301.396
192.08
133.079
101.601
85.6523
78.212
73.2157
68.003
63.1907
59.3879
56.5808
54.5653
53.1504
52.1708
51.5019
51.0247
50.6242
50.233
49.8193
49.3692
48.88
48.3583
47.8166
47.2632
46.7013
46.1378
45.5859
45.0613
44.5751
44.1275
43.7155
43.3394
43
42.6963
42.4243
42.1792
41.9582
41.7617
41.5924
41.4532
41.3466
41.2717
41.2209
8.59518
22.7365
30.907
38.4909
46.0031
53.2205
59.9738
66.3381
72.2164
78.3269
86.7945
101.353
127.682
175.332
265.299
445.011
376.766
236.832
158.226
114.663
91.8292
81.0141
76.0907
71.3158
66.1455
61.3225
57.3422
54.3404
52.1968
50.7303
49.7692
49.1718
48.8104
48.5657
48.3534
48.1255
47.8581
47.5428
47.1821
46.7854
46.3613
45.9174
45.4633
45.0133
44.5819
44.1794
43.8075
43.4653
43.1527
42.8699
42.6157
42.3873
42.1813
41.9964
41.8334
41.6947
41.5831
41.4998
41.443
41.4042
11.0387
27.3676
36.5408
45.1391
53.8442
62.7603
71.5725
80.2649
88.547
96.9536
107.748
125.127
155.812
209.397
307.245
477.109
298.214
194.667
134.44
101.397
85.103
78.2951
74.2586
69.4515
64.3537
59.5229
55.3924
52.1635
49.8101
48.1961
47.1605
46.5532
46.2376
46.0894
46.012
45.9423
45.8436
45.6988
45.5039
45.2634
44.9847
44.6767
44.3506
44.0202
43.699
43.3957
43.1135
42.8527
42.6135
42.396
42.1992
42.0213
41.8604
41.716
41.5896
41.4832
41.3991
41.338
41.2974
41.2688
12.6979
33.071
43.4633
53.107
63.2694
74.2356
85.8169
97.8745
109.825
121.999
137.01
159.844
199.169
264.292
375.087
394.986
251.713
165.899
117.058
91.8482
80.6973
76.5409
72.4518
67.5902
62.5261
57.6944
53.4583
50.0314
47.4532
45.6428
44.4668
43.7809
43.4462
43.3351
43.3428
43.3934
43.4379
43.4486
43.4135
43.3309
43.2051
43.0438
42.8578
42.6594
42.4601
42.2681
42.0869
41.9176
41.7605
41.616
41.4836
41.3624
41.2517
41.1519
41.0645
40.9917
40.9353
40.8958
40.8704
40.8516
15.1119
39.3031
51.3701
62.5946
74.5482
87.8967
103.068
120.026
137.634
155.594
177.406
208.888
264.55
356.094
497.079
351.875
218.481
143.442
103.605
84.9883
78.0262
74.9212
70.5936
65.6708
60.6161
55.7879
51.4849
47.9082
45.1312
43.1195
41.7733
40.9653
40.5624
40.4381
40.4831
40.6128
40.7677
40.9099
41.0185
41.0852
41.1093
41.0959
41.0534
40.9917
40.92
40.8451
40.7705
40.698
40.6284
40.5621
40.4988
40.4385
40.3815
40.3288
40.2821
40.2437
40.2152
40.1971
40.1871
40.1786
18.8156
46.5
60.6975
73.9209
87.9495
103.918
123.409
147.4
173.456
200.278
232.911
275.303
355.655
515.346
556.445
310.328
187.603
123.941
92.9079
80.1548
76.5026
73.1198
68.6138
63.6455
58.5992
53.7809
49.4422
45.7628
42.8295
40.6393
39.1236
38.1764
37.6767
37.5033
37.547
37.7182
37.9496
38.1946
38.4243
38.6232
38.7855
38.912
39.0075
39.0789
39.133
39.1747
39.2071
39.2321
39.2505
39.2632
39.2705
39.273
39.2712
39.2666
39.2612
39.2574
39.2571
39.2608
39.2669
39.2699
20.4194
54.4691
71.2544
87.0843
103.822
122.461
146.462
176.436
198.949
232.31
275.849
340.966
444.319
655.733
471.28
257.681
156.684
106.868
84.5606
76.9105
74.8942
71.1896
66.5322
61.5127
56.4713
51.669
47.3184
43.5763
40.5309
38.1976
36.532
35.4493
34.8429
34.6004
34.616
34.7984
35.0757
35.3949
35.72
36.0293
36.3114
36.5625
36.7835
36.9778
37.1493
37.3013
37.4359
37.5546
37.6583
37.7477
37.8238
37.8874
37.9398
37.9829
38.0187
38.0494
38.0773
38.1035
38.127
38.1431
22.6726
61.8297
81.405
100.191
119.834
141.502
164.051
183.043
204.405
237.222
283.525
353.624
468.817
604.781
342.818
201.692
128.52
92.821
78.3438
74.9779
73.0518
69.1343
64.3485
59.2768
54.2379
49.4572
45.1137
41.3419
38.2242
35.7853
33.9981
32.7957
32.0863
31.7676
31.7394
31.9116
32.2099
32.5771
32.9723
33.3681
33.7484
34.1046
34.4338
34.7358
35.0118
35.2633
35.4911
35.6961
35.8791
36.0407
36.1817
36.3034
36.4074
36.4957
36.5708
36.6354
36.6917
36.7413
36.7837
36.8146
24.1218
66.4524
87.412
106.396
126.065
145.721
163.568
182.021
205.243
238.523
285.642
347.609
436.55
389.962
246.831
156.006
105.822
82.0245
73.9773
73.4129
70.9959
66.8915
62.0305
56.9318
51.9051
47.1556
42.836
39.0612
35.9049
33.3952
31.5165
30.2157
29.4147
29.0216
28.9424
29.0902
29.3905
29.7839
30.2258
30.685
31.1408
31.581
31.9987
32.3907
32.7556
33.0929
33.4024
33.6841
33.9382
34.1651
34.3657
34.5412
34.6933
34.8242
34.9365
35.0333
35.1174
35.191
35.254
35.3013
24.5111
67.4343
88.5471
107.326
125.815
144.101
162.191
182.934
208.338
240.972
283.102
327.222
369.618
275.452
182.917
122.429
88.6734
74.1203
71.1635
71.5483
68.7733
64.5029
59.5814
54.4784
49.4809
44.7758
40.4966
36.7414
33.5744
31.0238
29.0809
27.704
26.8259
26.3646
26.2329
26.3478
26.6363
27.038
27.5065
28.0075
28.5173
29.0203
29.5067
29.9704
30.4076
30.8161
31.1945
31.5419
31.8577
32.1422
32.396
32.62
32.8161
32.9865
33.1339
33.2617
33.3731
33.4708
33.5552
33.6202
23.4191
65.1727
86.0144
104.273
121.988
140.076
159.941
183.688
210.606
240.734
273.419
303.2
289.966
203.744
139.631
97.9108
76.0643
68.6054
69.6116
69.4064
66.3719
61.9755
57.0149
51.9285
46.9784
42.3333
38.1105
34.394
31.2391
28.6722
26.689
25.2557
24.3149
23.7931
23.6101
23.6873
23.9537
24.3497
24.8277
25.3519
25.8962
26.4427
26.9789
27.4964
27.9898
28.4549
28.8892
29.2909
29.6589
29.9928
30.2928
30.5598
30.7955
31.002
31.1823
31.3397
31.4781
31.6004
31.707
31.7902
20.1954
60.8399
81.1578
98.5238
115.428
133.358
154.24
179.274
205.789
233.208
256.131
276.696
221.749
155.433
108.414
79.858
67.0773
65.0708
68.0345
67.1351
63.8126
59.3151
54.3438
49.2969
44.4131
39.8441
35.6928
32.0314
28.9073
26.344
24.3395
22.8666
21.8756
21.3009
21.0687
21.1051
21.3421
21.721
22.1946
22.7261
23.2881
23.8607
24.4298
24.9851
25.5193
26.0274
26.5053
26.9505
27.3611
27.7362
28.0757
28.3801
28.6509
28.8902
29.101
29.2868
29.4517
29.5989
29.7285
29.8303
16.0648
55.0753
74.9787
91.1755
106.879
123.891
143.836
166.164
190.853
218.72
237.997
237.727
170.566
119.238
85.0475
66.8267
61.0511
63.2015
66.1018
64.6463
61.1008
56.5392
51.5858
46.6015
41.8027
37.3254
33.2598
29.6677
26.5896
24.0455
22.035
20.5354
19.5042
18.8828
18.6034
18.597
18.7986
19.1516
19.6094
20.135
20.7003
21.2843
21.8715
22.4503
23.0121
23.5505
24.0607
24.5391
24.9834
25.3921
25.7645
26.1011
26.4028
26.6717
26.9107
27.1235
27.3143
27.4865
27.6394
27.76
12.1008
47.9002
67.9519
83.0755
97.3715
112.918
130.402
150.327
175.705
199.47
216.475
182.797
129.399
90.9799
67.7736
57.9423
57.4534
62.4838
64.019
62.0438
58.2831
53.6765
48.7631
43.8617
39.1648
34.7935
30.8264
27.316
24.2961
21.7837
19.7788
18.2628
17.199
16.5353
16.2102
16.1592
16.3208
16.6408
17.0734
17.5823
18.1392
18.7223
19.3151
19.905
20.4825
21.0402
21.5724
22.0749
22.5447
22.9798
23.3792
23.7428
24.0714
24.3669
24.632
24.8705
25.0866
25.2835
25.4598
25.5989
10.2327
40.5569
60.261
74.8042
88.0079
102.258
118.114
137.247
161.174
178.279
182.9
137.153
96.5952
69.5603
55.7845
52.4466
55.82
61.332
61.7881
59.3356
55.3897
50.756
45.8997
41.0972
36.5168
32.264
28.4066
24.9885
22.0372
19.5666
17.5767
16.0519
14.9611
14.2585
13.8884
13.7913
13.9092
14.1902
14.5904
15.0739
15.6126
16.1844
16.7722
17.3627
17.9457
18.5129
19.058
19.5763
20.0641
20.5191
20.9399
21.3259
21.6778
21.997
22.2862
22.5491
22.7897
23.0109
23.2101
23.3671
10.8859
35.9339
53.0037
67.1136
79.6905
93.149
108.668
127.413
146.019
158.168
140.034
100.642
71.6386
54.4914
48.2707
49.5938
55.7014
59.9205
59.4265
56.538
52.4365
47.7967
43.0141
38.3249
33.8736
29.7503
26.0125
22.696
19.8224
17.4022
15.4348
13.9076
12.7943
12.0555
11.6412
11.4969
11.5682
11.806
12.1677
12.6188
13.1313
13.6831
14.2569
14.8389
15.4182
15.9861
16.536
17.0624
17.5614
18.0303
18.4671
18.8713
19.2429
19.5833
19.8947
20.1807
20.4448
20.6896
20.9108
21.0845
12.6286
34.0731
47.8623
61.0879
73.3775
86.407
101.536
119.134
133.4
135.876
103.689
73.8974
54.093
44.9664
44.2144
48.7086
56.0238
58.2299
56.8956
53.6473
49.4317
44.8121
40.1213
35.559
31.248
27.264
23.6543
20.4477
17.6599
15.2979
13.3605
11.837
10.706
9.9338
9.47667
9.28486
9.30802
9.49936
9.81828
10.2311
10.7106
11.2348
11.7864
12.3514
12.9187
13.4793
14.0261
14.5535
15.0571
15.534
15.982
16.4
16.7881
17.147
17.4788
17.7865
18.0732
18.3404
18.5823
18.7712
13.2494
34.5233
45.6083
57.5446
69.7163
82.6795
97.0757
112.939
123.209
108.748
77.4492
55.0606
42.8028
39.7108
42.6056
49.2949
55.5501
56.2938
54.2375
50.6809
46.3888
41.815
37.234
32.8118
28.6509
24.8148
21.3413
18.252
15.5577
13.2619
11.3624
9.84995
8.70735
7.90656
7.40988
7.1724
7.14743
7.29076
7.56351
7.93313
8.37329
8.86265
9.38409
9.92389
10.4709
11.016
11.5519
12.0729
12.5745
13.0534
13.5073
13.9349
14.3358
14.7106
15.0608
15.3887
15.6966
15.9848
16.2453
16.4474
12.9833
34.8184
44.7073
55.9241
68.3593
81.8212
95.9571
109.442
111.739
83.3971
58.0281
42.2347
36.2534
37.3757
42.658
50.7546
54.5419
54.1028
51.4535
47.6579
43.3256
38.821
34.3648
30.094
26.0925
22.4117
19.081
16.1163
13.5234
11.3027
9.45064
7.95935
6.81493
5.9942
5.46535
5.18768
5.11755
5.21321
5.43731
5.75887
6.15305
6.59941
7.08176
7.58715
8.10446
8.625
9.14144
9.64801
10.1401
10.6143
11.0682
11.5003
11.91
12.2975
12.6636
13.0099
13.3373
13.6444
13.9211
14.1335
12.3382
33.4173
43.6247
54.7568
67.9794
82.5615
97.3404
106.946
92.1361
63.1535
43.5141
34.0559
33.0092
36.9178
43.855
51.388
53.1361
51.6941
48.567
44.5961
40.2592
35.8438
31.5265
27.4163
23.5814
20.0623
16.881
14.0477
11.5646
9.42927
7.63834
6.18376
5.05316
4.22792
3.68084
3.3751
3.26863
3.32035
3.49451
3.7623
4.10147
4.49389
4.92544
5.38474
5.86052
6.34527
6.83146
7.31352
7.78696
8.24818
8.69473
9.12492
9.53792
9.93365
10.3123
10.6743
11.0189
11.3421
11.631
11.8502
11.3091
31.2775
41.8238
53.3041
67.3373
83.3607
98.1673
98.9227
70.118
46.392
33.1354
29.5074
31.9347
37.6852
45.8986
51.0234
51.2161
49.0367
45.5807
41.5079
37.2032
32.8967
28.7292
24.7879
21.1258
17.7739
14.7477
12.0527
9.68994
7.65828
5.94757
4.54891
3.45393
2.64956
2.11223
1.80467
1.68156
1.69952
1.82417
2.03092
2.30235
2.62518
2.98856
3.38301
3.79991
4.23212
4.67271
5.11647
5.55868
5.99534
6.42439
6.84355
7.25209
7.64942
8.03518
8.40837
8.76619
9.10149
9.39782
9.61849
10.1687
28.7373
39.3933
51.376
66.0097
83.294
94.6919
77.6827
49.9231
33.0851
26.7254
27.6317
32.2616
39.3039
47.5037
49.9075
48.9532
46.2084
42.5253
38.4108
34.1714
29.9919
25.9848
22.2185
18.7344
15.5545
12.6891
10.1437
7.9213
6.00887
4.39758
3.08253
2.06136
1.32808
0.860326
0.609492
0.511708
0.514021
0.586576
0.71597
0.895864
1.12161
1.38827
1.69021
2.0213
2.37549
2.74679
3.13008
3.52077
3.91514
4.31055
4.7045
5.09652
5.48462
5.86811
6.24478
6.60908
6.95011
7.24631
7.45946
8.919
25.9641
36.4659
49.0509
64.238
79.8062
82.1704
52.3804
32.993
24.3123
23.8203
27.5419
33.5449
41.545
47.4801
48.2904
46.4638
43.2851
39.4414
35.3262
31.1773
27.1397
23.3018
19.7167
16.415
13.4119
10.7178
8.34175
6.27077
4.49527
3.01165
1.82401
0.944911
0.386644
0.123733
0.0444522
0.0282221
0.0297775
0.0425802
0.0707706
0.122333
0.205693
0.326757
0.487543
0.686576
0.92015
1.18335
1.47114
1.77876
2.10204
2.43768
2.78307
3.13655
3.49644
3.86099
4.22644
4.58461
4.9203
5.20379
5.38966
7.65341
23.081
33.1534
46.0297
62.1585
73.7928
52.2299
31.8877
21.829
20.3156
23.3399
28.5907
35.5606
43.7645
46.7466
46.2252
43.7511
40.2765
36.3441
32.2672
28.2314
24.3492
20.6889
17.2904
14.1755
11.3581
8.85521
6.6561
4.75105
3.13708
1.82202
0.832215
0.221884
0.0202049
0.00539809
0.00498763
0.00502819
0.00512575
0.00526739
0.00550872
0.00605505
0.00761302
0.0124698
0.0261948
0.0580093
0.118062
0.213322
0.346136
0.51508
0.716669
0.947115
1.20301
1.48155
1.78022
2.09597
2.42344
2.75176
3.06013
3.30864
3.41633
6.64933
20.4746
30.2114
43.2433
56.1661
50.313
29.3228
18.9811
17.0351
19.6053
24.2436
30.4087
38.2148
44.3581
45.2855
43.7367
40.8138
37.1755
33.2332
29.2382
25.3403
21.6282
18.1542
14.9483
12.0265
9.4159
7.10985
5.0988
3.37941
1.96107
0.875831
0.201298
0.0101835
0.00479383
0.00476517
0.00480393
0.00485896
0.00492517
0.00499913
0.00507959
0.00516768
0.00526536
0.0053736
0.00549713
0.00567262
0.00606481
0.00726254
0.0112296
0.023129
0.0521236
0.109181
0.202688
0.336183
0.509333
0.719247
0.959049
1.21522
1.46189
1.64867
1.66265
6.32945
19.2293
29.4911
45.4259
43.6085
25.0282
15.8163
14.0344
16.3737
20.51
25.9357
32.8248
40.8842
43.7428
43.2122
40.9354
37.7115
34.0035
30.1157
26.2447
22.5107
18.9845
15.7065
12.6991
9.99277
7.59442
5.49358
3.68602
2.17985
1.007
0.24849
0.0115936
0.00475485
0.00470538
0.00470953
0.00473036
0.00476577
0.00481242
0.00486636
0.00492572
0.0049917
0.00506616
0.00514743
0.00522916
0.00530459
0.00537246
0.00543759
0.00550855
0.00559738
0.00573029
0.00599978
0.00675829
0.00932486
0.0181339
0.0437246
0.101201
0.198229
0.319106
0.417032
0.400908
8.10992
21.6868
34.4815
39.5659
21.1547
12.8839
11.4829
13.6824
17.4106
22.1822
28.1666
35.7602
41.3715
42.2492
40.7277
37.9448
34.5188
30.7998
27.0103
23.2968
19.751
16.4268
13.355
10.5648
8.08395
5.90456
4.02137
2.43964
1.18724
0.338352
0.019756
0.00481864
0.00470722
0.0046815
0.00467203
0.00467698
0.00469558
0.00472551
0.0047627
0.00480445
0.00485173
0.00490733
0.00497105
0.00503768
0.0051007
0.00515744
0.0052101
0.00526375
0.00532382
0.00539487
0.00548141
0.00558908
0.00572647
0.00590846
0.0061663
0.00658212
0.00740074
0.00912919
0.0114526
0.0105504
17.0568
38.9329
30.2903
15.5682
9.76545
9.35843
11.525
14.8809
19.1292
24.3309
30.853
38.1165
40.6508
40.1721
37.9446
34.8173
31.277
27.5971
23.9405
20.4119
17.0758
13.9686
11.1172
8.56343
6.31232
4.36189
2.71472
1.39238
0.45795
0.0396471
0.00499501
0.00474769
0.00469604
0.00466183
0.00464187
0.00463442
0.00463941
0.00465566
0.00467936
0.00470693
0.00473853
0.00477749
0.00482514
0.00487756
0.00492841
0.00497423
0.00501618
0.00505841
0.00510564
0.00516178
0.00523027
0.00531498
0.00542075
0.00555396
0.00572344
0.00594043
0.0062122
0.00651345
0.00673269
0.00653621
8.41346
13.7957
8.13608
6.85603
7.80709
9.92533
12.872
16.6374
21.291
26.8919
33.9882
38.3591
39.0293
37.5623
34.862
31.5489
27.995
24.4135
20.9268
17.6088
14.503
11.6273
9.02277
6.70801
4.69292
2.98708
1.60471
0.59552
0.0759783
0.0054207
0.00480481
0.00473119
0.00467656
0.00463681
0.00460969
0.00459342
0.00458817
0.00459376
0.00460719
0.00462431
0.00464412
0.00466968
0.00470361
0.00474349
0.0047835
0.00481958
0.00485187
0.00488376
0.00491926
0.00496165
0.00501349
0.00507754
0.00515684
0.00525475
0.00537514
0.00552204
0.00569569
0.00587429
0.00598932
0.00581999
0.00449536
0.0054067
0.00651066
0.00796257
0.00991658
0.0125824
0.0162178
0.021187
0.0279418
0.0369994
0.0489571
0.0643464
0.0834826
0.108801
0.161947
0.307793
0.61277
1.10662
1.8003
2.80871
0.00444517
0.00524123
0.00620934
0.00750189
0.00927409
0.0117428
0.0151862
0.0200193
0.0267775
0.0361202
0.0488789
0.0659329
0.0880222
0.117345
0.17093
0.31412
0.645162
1.23751
2.11788
3.53339
0.00439539
0.00507413
0.00590315
0.00702593
0.00859078
0.0108097
0.0139642
0.0184947
0.024989
0.0342149
0.0472111
0.0651787
0.0893139
0.12174
0.174376
0.302277
0.616681
1.20801
2.07589
3.07788
0.00434783
0.00491209
0.00560486
0.00655636
0.00790164
0.00983741
0.0126313
0.0167186
0.0226954
0.0313762
0.0439286
0.0617679
0.0864751
0.120114
0.170342
0.274487
0.53195
1.0468
1.81261
2.65639
0.004304
0.00476073
0.00532543
0.00611219
0.00723868
0.00887873
0.0112728
0.0148233
0.0200891
0.0278587
0.0393115
0.0559211
0.0794518
0.111921
0.158021
0.238464
0.421583
0.811234
1.43312
2.17812
0.00426498
0.00462421
0.00507277
0.00570742
0.00662679
0.00797794
0.00996719
0.0129433
0.0173945
0.0240227
0.0338987
0.0483904
0.0691735
0.098195
0.138261
0.199215
0.316933
0.568112
1.0135
1.613
0.00423145
0.00450512
0.00485156
0.00535026
0.00608161
0.00716615
0.00877397
0.0111893
0.0148175
0.0202408
0.0283343
0.0402273
0.0572987
0.0812198
0.113769
0.158912
0.231496
0.371458
0.636234
1.04517
0.00420381
0.00440458
0.00466301
0.00504268
0.00560923
0.00645869
0.00772579
0.0096322
0.0125059
0.0167969
0.0231483
0.0323928
0.0455324
0.063748
0.0881618
0.120098
0.164244
0.235625
0.364613
0.584097
0.00418238
0.00432239
0.00450438
0.00478029
0.00520606
0.00585433
0.00682458
0.00828106
0.0104625
0.01367
0.0183232
0.0249987
0.0343901
0.0472546
0.06432
0.0862821
0.114734
0.154948
0.219981
0.333097
0.00416756
0.00425735
0.00436909
0.00455265
0.00485648
0.00531651
0.00599392
0.00704138
0.0087907
0.0119192
0.0175406
0.0270354
0.0419093
0.0639527
0.0956848
0.141018
0.206288
0.301786
0.443606
0.654247
0.00416251
0.00421411
0.00427695
0.00457779
0.00608373
0.0126884
0.0303143
0.0613906
0.103734
0.154094
0.210799
0.274351
0.347009
0.432256
0.534809
0.661351
0.821559
1.02783
1.29619
1.64485
0.00636977
0.00607297
0.0297488
0.108794
0.222234
0.330904
0.426419
0.514648
0.601023
0.688834
0.781312
0.882979
0.998569
1.13238
1.28933
1.47699
1.71
2.00795
2.37454
2.80407
1.00216
0.499123
0.786054
0.93502
1.00981
1.06097
1.11461
1.17801
1.2536
1.34331
1.44836
1.57356
1.72267
1.89753
2.09787
2.32384
2.60084
2.99308
3.47476
3.99161
4.3184
2.52435
2.1287
1.89615
1.78559
1.74872
1.74401
1.76826
1.83388
1.93919
2.06809
2.22768
2.42046
2.64634
2.89949
3.15095
3.43473
3.90874
4.41796
4.91733
3.05044
2.7458
2.38882
2.25028
2.18955
2.12266
2.07698
2.06985
2.1087
2.17217
2.26337
2.39275
2.55882
2.75987
2.98778
3.21869
3.49082
3.85345
4.16768
4.44961
2.24637
2.02775
1.90051
1.90237
1.9047
1.89209
1.89896
1.93602
1.99009
2.04247
2.10546
2.19041
2.2986
2.42775
2.57326
2.73549
2.94403
3.19585
3.41687
3.59892
1.69056
1.5558
1.45551
1.46308
1.49188
1.52336
1.56533
1.61974
1.67806
1.73233
1.78701
1.84877
1.92058
2.00285
2.09587
2.20397
2.33735
2.48984
2.63118
2.74916
1.21431
1.14422
1.05625
1.06186
1.09978
1.1481
1.20219
1.25936
1.31529
1.36707
1.41591
1.46465
1.51545
1.56967
1.62884
1.69573
1.7729
1.85595
1.93272
1.99528
0.786291
0.758943
0.688358
0.699849
0.742059
0.794221
0.849102
0.903222
0.954106
1.00041
1.04232
1.08092
1.11736
1.15276
1.18825
1.22504
1.26334
1.30048
1.33113
1.35091
0.424755
0.408848
0.364714
0.388092
0.432
0.48139
0.530911
0.578015
0.621183
0.659589
0.693066
0.721898
0.746574
0.767651
0.785677
0.800998
0.813277
0.820988
0.821684
0.813193
0.172485
0.140065
0.12893
0.156303
0.19287
0.231605
0.269636
0.305329
0.337594
0.365714
0.3893
0.408219
0.422512
0.432315
0.437776
0.438919
0.435469
0.426753
0.411888
0.39024
0.0487967
0.0214569
0.0231248
0.0348927
0.0514328
0.0706778
0.0909053
0.1107
0.128937
0.144762
0.157561
0.166938
0.172678
0.174709
0.173064
0.167822
0.159074
0.146941
0.131689
0.113892
0.0183212
0.00539195
0.00511925
0.00611602
0.0080776
0.0111223
0.015139
0.0197695
0.0245124
0.0288428
0.0323014
0.0345498
0.0353968
0.0348047
0.0328794
0.0298484
0.0260324
0.0218164
0.0176141
0.0138112
0.0110469
0.00451036
0.00418762
0.00417721
0.00423017
0.00433029
0.00448079
0.00467826
0.00490507
0.00512959
0.00531392
0.00542562
0.00544817
0.0053855
0.00525929
0.00510066
0.00494013
0.0047998
0.00469005
0.0046108
1.53395
2.23089
2.7323
3.20293
3.66483
3.95572
4.10777
4.14194
4.08634
4.02764
3.95945
3.8863
3.833
3.83223
3.94824
3.13931
6.46254
8.50649
9.5777
10.1198
10.2669
10.1602
9.86738
9.44465
8.94598
8.42063
7.91169
7.45386
7.0701
6.7654
4.00453
4.31865
5.6973
7.30855
8.4249
8.63272
8.30391
7.79381
7.24926
6.7316
6.2739
5.9026
5.64855
5.55616
5.68944
3.64932
4.14456
4.28612
4.37811
4.39529
4.41163
4.42091
4.38545
4.32036
4.26181
4.25348
4.34518
4.59425
5.06027
5.79377
2.95835
3.63191
4.00436
4.14069
4.14551
4.0891
4.01364
3.94846
3.92365
3.97952
4.16438
4.52786
5.11155
5.94145
7.03634
2.27892
2.90707
3.38049
3.68159
3.84132
3.89774
3.90633
3.93392
4.0505
4.31557
4.77092
5.44132
6.33885
7.47262
8.86814
1.5712
2.12254
2.59335
2.95245
3.20362
3.39847
3.61461
3.92526
4.3798
5.00314
5.8101
6.81233
8.02058
9.45607
11.1695
0.918789
1.33626
1.75914
2.1603
2.57046
3.05882
3.65318
4.36317
5.19796
6.17408
7.31365
8.63326
10.1469
11.9002
13.9959
0.538086
0.873179
1.34173
1.95462
2.68624
3.51078
4.42396
5.43828
6.57493
7.85287
9.30057
10.9363
12.7887
14.9573
17.2252
0.978738
1.46318
2.09449
2.84793
3.71935
4.70471
5.81528
7.06545
8.47428
10.039
11.8335
13.8515
15.7618
17.2316
18.1553
2.10099
2.68283
3.38664
4.22323
5.20565
6.35162
7.67588
9.21815
11.0435
12.7667
14.1974
15.5731
16.1047