/*--------------------------------*- C++ -*----------------------------------*\
| =========                 |                                                 |
| \\      /  F ield         | OpenFOAM: The Open Source CFD Toolbox           |
|  \\    /   O peration     | Version:  v1912                                 |
|   \\  /    A nd           | Website:  www.openfoam.com                      |
|    \\/     M anipulation  |                                                 |
\*---------------------------------------------------------------------------*/
FoamFile
{
    version     2.0;
    format      ascii;
    class       volScalarField;
    location    "20";
    object      nut;
}
// * * * * * * * * * * * * * * * * * * * * * * * * * * * * * * * * * * * * * //

dimensions      [0 2 -1 0 0 0 0];


internalField   nonuniform List<scalar> 
20320
(
0.03472
0.00759949
0.00766867
0.00773603
0.00780111
0.00786352
0.00792275
0.00797816
0.00802901
0.00807442
0.00811338
0.00814459
0.00816652
0.00817742
0.00817768
0.00821146
0.00873499
0.0114275
0.0169312
0.021083
0.0352289
0.0352717
0.0354413
0.0356679
0.0359381
0.0362177
0.036468
0.0366639
0.0368006
0.036887
0.0369377
0.0369681
0.0369848
0.0369028
0.0362365
0.0344586
0.039762
0.0624902
0.0774295
0.0546674
0.0353503
0.0356289
0.0361198
0.0368462
0.0379068
0.0393951
0.04139
0.0439315
0.046998
0.0504828
0.0541905
0.0578559
0.061092
0.0628689
0.0602351
0.0542429
0.0713711
0.109732
0.125533
0.0768088
0.0355207
0.0360959
0.0368919
0.0379073
0.0392403
0.0409977
0.0432967
0.0462655
0.0500261
0.0546636
0.0601778
0.0663758
0.0724994
0.0758761
0.0709282
0.0686686
0.103766
0.152002
0.163955
0.0925597
0.0357264
0.0366819
0.0378601
0.039233
0.0408903
0.0429315
0.0454748
0.0486599
0.0526477
0.0576129
0.0637032
0.0708782
0.0781437
0.0813322
0.0748256
0.0839751
0.13607
0.189653
0.195556
0.104384
0.0359586
0.0373674
0.0389969
0.0407969
0.042843
0.0452269
0.0480602
0.0514795
0.0556559
0.0607882
0.0670825
0.0745335
0.0818179
0.0835983
0.0775884
0.101594
0.167264
0.223262
0.222319
0.113759
0.0362068
0.0381213
0.0402529
0.0425312
0.04502
0.0477979
0.0509673
0.0546621
0.0590507
0.064339
0.0707479
0.07821
0.0849668
0.0849122
0.081811
0.120873
0.19674
0.253428
0.245571
0.121569
0.03646
0.0389108
0.0415747
0.0443675
0.0473414
0.0505581
0.0541118
0.0581281
0.0627678
0.0682402
0.0747539
0.0821285
0.0881253
0.086354
0.0881084
0.140816
0.224244
0.280713
0.266241
0.128361
0.0367066
0.0397011
0.0429052
0.0462323
0.0497194
0.0534156
0.0574026
0.0617916
0.0667374
0.0724421
0.0790854
0.0863498
0.0915287
0.0884608
0.0961977
0.160588
0.249737
0.305634
0.285041
0.134512
0.0369352
0.040456
0.0441864
0.0480477
0.0520631
0.0562736
0.0607418
0.0655649
0.0708875
0.0768919
0.0837201
0.0909033
0.0953236
0.0914947
0.105508
0.179589
0.273292
0.328666
0.302564
0.140315
0.0371352
0.0411409
0.0453616
0.049736
0.0542818
0.0590313
0.0640276
0.0693562
0.075141
0.0815362
0.088638
0.0958195
0.0996345
0.0955618
0.11545
0.19741
0.29504
0.350266
0.319354
0.146035
0.0372972
0.041724
0.0463773
0.051224
0.0562866
0.061587
0.0671571
0.0730682
0.0794143
0.0863186
0.0938201
0.101134
0.104581
0.100686
0.125532
0.213787
0.315156
0.370906
0.335975
0.151944
0.0374141
0.0421792
0.047188
0.052448
0.0579946
0.0638437
0.0700267
0.0765967
0.0836165
0.0911753
0.0992427
0.106887
0.110283
0.10687
0.135406
0.22857
0.333862
0.391126
0.353087
0.158377
0.0374811
0.0424867
0.0477583
0.0533559
0.0593332
0.0657117
0.0725319
0.0798292
0.0876424
0.0960239
0.104865
0.113104
0.116849
0.114147
0.144895
0.241705
0.35144
0.411603
0.371556
0.165789
0.0374963
0.0426351
0.048066
0.0539099
0.0602445
0.0671118
0.0745696
0.0826455
0.0913673
0.100752
0.110611
0.119782
0.124363
0.122604
0.154019
0.253251
0.368276
0.43327
0.392651
0.174873
0.0374605
0.0426215
0.048103
0.0540904
0.0606902
0.0679803
0.0760438
0.0849194
0.0946435
0.105205
0.116352
0.126856
0.132852
0.13238
0.163028
0.263404
0.384907
0.457508
0.418412
0.186847
0.0373775
0.0424519
0.0478757
0.0538966
0.0606545
0.0682739
0.0768723
0.0865246
0.0972998
0.109181
0.121881
0.134154
0.142231
0.143605
0.172382
0.272521
0.402059
0.486432
0.452377
0.204097
0.0372535
0.0421407
0.0474046
0.0533482
0.0601465
0.0679756
0.076996
0.0873444
0.0991499
0.112423
0.126891
0.141356
0.15222
0.156253
0.182641
0.281055
0.420502
0.523075
0.500894
0.231933
0.0370966
0.0417099
0.0467227
0.0524836
0.0592009
0.0671004
0.0763906
0.0872899
0.100014
0.114643
0.130982
0.14796
0.162257
0.169951
0.194183
0.28928
0.440407
0.570552
0.574071
0.283119
0.0369164
0.0411865
0.0458729
0.0513571
0.0578761
0.0656974
0.0750755
0.0863196
0.0997508
0.115558
0.13369
0.153295
0.171447
0.183779
0.206764
0.296659
0.459588
0.627227
0.678186
0.381217
0.0608526
0.0385075
0.0431269
0.0449983
0.0455642
0.0461289
0.0529485
0.0675333
0.0870576
0.111783
0.14263
0.172578
0.190571
0.193174
0.18738
0.189
0.203566
0.229219
0.261742
0.302731
0.336178
0.318382
0.263057
0.226447
0.201698
0.18329
0.168661
0.156557
0.146335
0.137623
0.130131
0.123655
0.118068
0.113192
0.108891
0.105059
0.101608
0.098484
0.0956288
0.093009
0.0906097
0.0884022
0.0863704
0.0845079
0.0827873
0.0811936
0.07971
0.0783184
0.0770031
0.0757571
0.074579
0.073484
0.0724718
0.0715477
0.070722
0.0699889
0.0693525
0.0688165
0.0683836
0.0680549
0.0762947
0.660291
0.79563
0.835739
0.828352
0.736238
0.660615
0.737936
0.936501
1.22001
1.67802
2.30542
2.78704
3.06696
3.09133
2.98682
2.93932
3.20411
3.58786
4.08287
4.75032
3.86719
3.28149
2.86052
2.55302
2.31717
2.12651
1.96866
1.83725
1.72773
1.63612
1.5588
1.49263
1.43607
1.3874
1.34489
1.3071
1.27308
1.24228
1.21444
1.18935
1.16682
1.14664
1.12851
1.11213
1.09732
1.0839
1.07156
1.06001
1.04938
1.04011
1.03267
1.02739
1.02437
1.02358
1.02499
1.02865
1.03468
1.04319
1.05407
0.0836267
1.09256
1.41783
1.53095
1.53804
1.42083
1.25023
1.22258
1.39414
1.70817
2.23995
3.09927
3.64654
4.14056
4.43849
4.6679
4.60379
4.86162
5.42631
5.9655
6.17564
4.96686
4.48983
4.12776
3.82134
3.55965
3.33339
3.13821
2.97113
2.82853
2.70647
2.60142
2.51029
2.4315
2.36327
2.30367
2.25086
2.20353
2.16094
2.12272
2.08863
2.05843
2.03178
2.00825
1.98744
1.96919
1.95338
1.93969
1.92789
1.91826
1.91152
1.90844
1.90955
1.91503
1.92488
1.93911
1.95773
1.98089
2.00869
2.0408
0.0889562
1.34223
1.85779
2.05551
2.10592
2.03066
1.86639
1.7546
1.82246
2.06176
2.51206
3.16966
3.7496
4.33336
4.71422
5.2906
5.5579
5.80376
6.49954
6.94441
6.21901
5.29808
4.85217
4.58381
4.37161
4.17687
3.9948
3.82928
3.68201
3.55161
3.4359
3.333
3.24139
3.16055
3.08968
3.02737
2.972
2.92227
2.87753
2.83747
2.80194
2.77074
2.74344
2.71955
2.69873
2.68102
2.66651
2.65504
2.64653
2.64142
2.6406
2.64496
2.65507
2.67106
2.69288
2.72046
2.75378
2.79294
2.83802
2.88826
0.0937537
1.50903
2.17821
2.45879
2.56405
2.54998
2.44904
2.34434
2.35018
2.51487
2.85441
3.33784
3.97264
4.5612
5.11505
5.58098
6.01705
6.2749
6.86678
6.95693
5.99426
5.25239
4.84318
4.65342
4.54856
4.45342
4.35216
4.25002
4.15111
4.0567
3.96753
3.88445
3.80822
3.73917
3.67783
3.62343
3.57473
3.53064
3.49069
3.45487
3.42315
3.39542
3.37127
3.35021
3.33206
3.3172
3.30609
3.29877
3.29532
3.29635
3.30283
3.31568
3.33533
3.36177
3.39481
3.43429
3.48013
3.53235
3.59094
3.65464
0.0986523
1.63996
2.42968
2.78475
2.94382
2.98618
2.9522
2.90006
2.91099
3.04215
3.31889
3.72807
4.26859
4.78579
5.29965
5.8549
6.19845
6.38345
6.68331
6.24563
5.50299
4.9387
4.64037
4.55729
4.56907
4.58288
4.57258
4.54302
4.50051
4.44987
4.39533
4.3406
4.28831
4.23972
4.19526
4.15519
4.11865
4.0848
4.0535
4.02512
3.99984
3.97769
3.95836
3.94147
3.92712
3.91613
3.90936
3.90701
3.90936
3.91714
3.93134
3.95275
3.98161
4.0177
4.06069
4.11034
4.16647
4.22902
4.29792
4.37126
0.103478
1.75713
2.64639
3.06753
3.27502
3.36229
3.37733
3.37109
3.40557
3.52586
3.74923
4.06407
4.43535
4.76551
5.12938
5.7277
6.14249
6.34223
6.24597
5.51613
4.92555
4.54159
4.40253
4.46009
4.59934
4.71584
4.78311
4.8147
4.82112
4.81065
4.78951
4.76391
4.73704
4.7108
4.68556
4.66128
4.63769
4.61436
4.59168
4.57056
4.55142
4.53444
4.51952
4.50654
4.49597
4.48911
4.48705
4.49004
4.49856
4.51342
4.53552
4.56544
4.60312
4.64816
4.70011
4.75868
4.82359
4.89471
4.97189
5.05238
0.108519
1.87276
2.84961
3.33139
3.58245
3.70455
3.74987
3.76668
3.80775
3.90936
4.07471
4.28293
4.48925
4.64595
4.87125
5.40926
5.98035
6.40044
5.73135
4.96821
4.47845
4.25302
4.28268
4.49364
4.75808
4.94751
5.05977
5.12993
5.16898
5.18885
5.19441
5.19103
5.18483
5.17534
5.16365
5.15022
5.13528
5.11895
5.10162
5.08437
5.06829
5.05413
5.04184
5.0316
5.02429
5.02159
5.02455
5.03328
5.04841
5.07071
5.10093
5.13931
5.18556
5.23905
5.29928
5.36589
5.4386
5.51722
5.60146
5.68743
0.114249
1.989
3.05166
3.59258
3.88452
4.03495
4.09781
4.11907
4.1452
4.2103
4.31284
4.43015
4.53117
4.60849
4.79617
5.42736
6.14328
6.54112
5.33138
4.60645
4.22835
4.16029
4.36225
4.72169
5.08508
5.28967
5.4214
5.50996
5.56825
5.60519
5.62578
5.63527
5.63806
5.63536
5.62842
5.61807
5.60496
5.58954
5.57273
5.556
5.54059
5.52707
5.51568
5.50705
5.50243
5.50357
5.51126
5.52561
5.54716
5.57651
5.61414
5.66004
5.71368
5.77432
5.8414
5.91452
5.9934
6.07778
6.16715
6.25633
0.120634
2.11009
3.26072
3.86221
4.19434
4.36973
4.44323
4.45868
4.45701
4.47194
4.51044
4.55991
4.61861
4.71424
4.97031
5.78303
6.94641
6.12817
5.02051
4.40836
4.17209
4.27532
4.65194
5.13313
5.5104
5.7325
5.87036
5.95917
6.01666
6.05318
6.07391
6.08407
6.08687
6.08327
6.07468
6.06218
6.04665
6.02886
6.01007
5.99201
5.97592
5.96232
5.95163
5.94474
5.94304
5.94811
5.96061
5.9806
6.0084
6.04439
6.08872
6.14114
6.20098
6.26741
6.33982
6.41779
6.50097
6.58908
6.68128
6.7712
0.127918
2.2416
3.48777
4.15014
4.52244
4.72103
4.80196
4.80766
4.77427
4.73423
4.70863
4.70578
4.7567
4.9124
5.28654
6.16708
7.17969
5.80103
4.85119
4.37348
4.29234
4.57818
5.11765
5.6632
6.03231
6.24563
6.37002
6.4424
6.48396
6.50682
6.51693
6.51879
6.51485
6.50551
6.49175
6.4746
6.45501
6.43396
6.41281
6.39323
6.37654
6.36331
6.35408
6.34981
6.3518
6.36137
6.37902
6.40478
6.4387
6.48087
6.53117
6.58912
6.65393
6.72476
6.80095
6.88201
6.96759
7.05734
7.15005
7.23845
0.138401
2.38685
3.74174
4.46654
4.87832
5.09892
5.18644
5.18263
5.11975
5.0277
4.93894
4.88754
4.93775
5.1543
5.60723
6.42225
6.76053
5.5265
4.7835
4.45401
4.54822
5.02943
5.69671
6.24812
6.59014
6.77698
6.87375
6.91985
6.93755
6.93978
6.93318
6.92168
6.90718
6.88971
6.86958
6.84745
6.82414
6.80063
6.77823
6.7584
6.74237
6.73086
6.72446
6.72403
6.73071
6.74548
6.7687
6.80027
6.84005
6.88783
6.94322
7.0056
7.0741
7.14786
7.22619
7.30861
7.39472
7.48408
7.57523
7.66024
0.156319
2.57649
4.03979
4.82285
5.27118
5.5126
5.60736
5.59756
5.51215
5.37748
5.2305
5.12696
5.16117
5.41598
5.94185
6.8688
6.2695
5.32812
4.74705
4.58982
4.90556
5.58834
6.32118
6.84166
7.14463
7.29408
7.35341
7.36572
7.35458
7.33274
7.30672
7.27984
7.25346
7.22733
7.20117
7.17509
7.14959
7.12545
7.10378
7.0858
7.07248
7.0645
7.0625
7.06722
7.07952
7.10008
7.1291
7.16634
7.21147
7.26407
7.32353
7.38912
7.45992
7.53511
7.61399
7.69607
7.78096
7.86817
7.95598
8.03621
0.178057
2.86256
4.40101
5.23028
5.7088
5.9708
6.07539
6.06604
5.9685
5.80589
5.61312
5.45414
5.448
5.70236
6.24824
7.00259
5.9491
5.13438
4.70785
4.78292
5.36862
6.22241
6.95115
7.41916
7.67277
7.77633
7.79215
7.76549
7.72188
7.67401
7.62767
7.58527
7.54738
7.5134
7.48249
7.45422
7.42863
7.40613
7.38748
7.37355
7.3651
7.36264
7.36665
7.37765
7.39624
7.4229
7.45765
7.50016
7.54992
7.60635
7.66873
7.73623
7.80796
7.8831
7.96103
8.04127
8.12346
8.20705
8.29019
8.36466
0.192046
3.18758
4.81387
5.68527
6.19511
6.48134
6.60209
6.60317
6.50609
6.33227
6.11373
5.90511
5.84239
6.06727
6.56568
6.60285
5.60537
4.9254
4.71664
5.09366
5.95626
6.89692
7.56681
7.96618
8.15937
8.21045
8.17913
8.1107
8.03236
7.95731
7.89062
7.83349
7.78545
7.74521
7.7114
7.68302
7.65955
7.64095
7.6275
7.61967
7.61787
7.62242
7.63362
7.65177
7.6772
7.71008
7.75023
7.79735
7.85085
7.91005
7.97416
8.04232
8.11368
8.18751
8.26322
8.34041
8.41872
8.49761
8.57516
8.64332
0.2106
3.49515
5.25478
6.18
6.7294
7.04883
7.19789
7.22564
7.14509
6.97505
6.75683
6.52357
6.40241
6.59551
7.01387
6.23859
5.2976
4.79217
4.86542
5.58216
6.6595
7.57594
8.15318
8.46915
8.59308
8.58724
8.50709
8.39611
8.28228
8.17959
8.09285
8.0221
7.96559
7.92106
7.88641
7.85999
7.84071
7.82795
7.8215
7.82132
7.82748
7.84003
7.85905
7.88465
7.91693
7.95586
8.00116
8.05232
8.10871
8.16964
8.2344
8.30215
8.37211
8.44362
8.51618
8.58944
8.66311
8.73665
8.80812
8.86981
0.236274
3.83312
5.73007
6.71332
7.30697
7.6703
7.86584
7.94814
7.90342
7.75072
7.56644
7.35092
7.19394
7.41036
7.36918
5.93543
5.10329
4.82201
5.2276
6.26263
7.42663
8.22781
8.69228
8.91479
8.96471
8.90012
8.77124
8.61857
8.46976
8.33964
8.23324
8.14983
8.08636
8.03936
8.00574
7.98311
7.96968
7.96425
7.96602
7.97449
7.98933
8.01033
8.03735
8.07033
8.10919
8.15374
8.20361
8.25826
8.317
8.37911
8.44381
8.51037
8.57822
8.64677
8.71562
8.78451
8.8532
8.92115
8.98646
9.04183
0.247258
4.17818
6.23171
7.27653
7.91897
8.33115
8.59086
8.73163
8.62094
8.47827
8.34736
8.24697
8.17395
8.49004
7.0874
5.76549
5.09683
5.08231
5.83286
7.08414
8.17591
8.82503
9.16546
9.29122
9.26697
9.14464
8.96886
8.77644
8.5941
8.43728
8.31157
8.21602
8.14651
8.09825
8.06701
8.04942
8.04294
8.04569
8.05632
8.07384
8.09758
8.12706
8.16195
8.20204
8.24711
8.29685
8.35084
8.40847
8.46909
8.53196
8.59638
8.66165
8.72721
8.79262
8.85764
8.92212
8.98588
9.04843
9.10788
9.15738
0.261989
4.49953
6.71383
7.82841
8.51472
8.97733
9.24944
9.30061
9.20753
9.14837
9.16025
9.23576
9.34777
9.08854
7.06491
5.84689
5.33283
5.59544
6.6403
7.945
8.84981
9.33948
9.5571
9.58985
9.49526
9.31861
9.09897
8.86951
8.65557
8.47297
8.32817
8.22042
8.14493
8.09572
8.0673
8.05519
8.05598
8.0671
8.08661
8.1131
8.14556
8.18328
8.22578
8.27269
8.32369
8.37838
8.43625
8.4967
8.55906
8.62264
8.68677
8.75087
8.81443
8.87713
8.93876
8.99925
9.05855
9.11623
9.17045
9.21476
0.271742
4.68602
7.05207
8.22054
8.93047
9.4044
9.6613
9.76868
9.81816
9.92942
10.1496
10.3806
10.4144
8.99314
7.20123
6.10711
5.76077
6.30465
7.53548
8.7258
9.41504
9.75186
9.8577
9.80643
9.64816
9.4221
9.16236
8.89874
8.65516
8.44767
8.28367
8.163
8.08067
8.02973
8.00347
7.99628
8.0038
8.02273
8.05059
8.08556
8.12632
8.17197
8.22184
8.27544
8.33231
8.39197
8.45384
8.5173
8.58168
8.64632
8.71061
8.77403
8.83618
8.89682
8.95584
9.01326
9.06904
9.12277
9.17268
9.21267
0.275435
4.71918
7.19556
8.42842
9.1611
9.65852
9.9888
10.2356
10.4619
10.7262
11.0449
11.2037
10.7931
8.95396
7.34537
6.38326
6.27336
7.09859
8.37953
9.35389
9.8515
10.0553
10.0647
9.94101
9.72712
9.45716
9.16118
8.86613
8.59458
8.36272
8.17892
8.04394
7.95295
7.8984
7.87252
7.86863
7.88145
7.90696
7.94216
7.98484
8.03338
8.08666
8.14381
8.20419
8.26718
8.33218
8.39854
8.46558
8.53264
8.59909
8.66435
8.72799
8.78967
8.84925
8.90672
8.96215
9.01559
9.06665
9.11348
9.1502
0.270851
4.61267
7.16473
8.46475
9.23671
9.77788
10.207
10.6055
10.9799
11.3195
11.5748
11.5038
10.5268
8.69551
7.28516
6.56405
6.79688
7.86488
9.07742
9.81436
10.1572
10.2522
10.1817
9.99729
9.73585
9.42737
9.09873
8.77448
8.47607
8.2198
8.01504
7.86363
7.76128
7.70021
7.67189
7.66872
7.68459
7.71486
7.75602
7.80545
7.86124
7.92196
7.98652
8.05403
8.12368
8.19471
8.26638
8.33793
8.40869
8.47802
8.5454
8.61045
8.67292
8.73274
8.78998
8.8448
8.8973
8.94706
8.99218
9.0268
0.253007
4.39014
6.98928
8.35806
9.1771
9.7662
10.2737
10.7689
11.2142
11.5553
11.6378
11.2908
9.79352
8.16374
7.01581
6.67359
7.31286
8.52656
9.57824
10.1232
10.3429
10.3514
10.2162
9.98155
9.67965
9.33734
8.97891
8.62707
8.30224
8.02086
7.79328
7.6226
7.50539
7.43401
7.39954
7.39369
7.40975
7.4425
7.48798
7.54314
7.60569
7.67384
7.74613
7.82137
7.8985
7.97655
8.05461
8.13187
8.20758
8.28114
8.35205
8.41995
8.4847
8.54628
8.60485
8.66064
8.71379
8.76383
8.80867
8.84235
0.226959
4.03875
6.68318
8.13402
9.00448
9.63231
10.1755
10.6739
11.1051
11.3991
11.3126
10.5712
8.86574
7.45914
6.66982
6.81261
7.81616
9.04714
9.90064
10.3008
10.4253
10.3654
10.1778
9.90128
9.56464
9.19217
8.80607
8.42746
8.07597
7.76809
7.51516
7.32167
7.18536
7.09917
7.0541
7.04159
7.05449
7.08716
7.1352
7.19511
7.26407
7.33977
7.42033
7.50413
7.58975
7.67597
7.76173
7.84607
7.9282
8.0075
8.08349
8.15588
8.22456
8.2896
8.35123
8.40975
8.46527
8.51725
8.56333
8.59723
0.198152
3.46054
6.22134
7.80462
8.73994
9.39425
9.92431
10.3701
10.7463
10.9015
10.636
9.39431
7.84044
6.73161
6.40833
7.05706
8.28103
9.43187
10.0892
10.3754
10.423
10.3073
10.0763
9.76419
9.39699
8.99693
8.58447
8.17929
7.80021
7.46381
7.18237
6.96191
6.80165
6.69549
6.63487
6.61125
6.61738
6.64733
6.69623
6.76
6.83517
6.91877
7.0083
7.1016
7.19688
7.29257
7.3874
7.48029
7.57038
7.65702
7.73977
7.81836
7.89275
7.96306
8.0296
8.09268
8.15241
8.20805
8.25687
8.29213
0.183154
2.89195
5.6034
7.36892
8.40064
9.06955
9.55486
9.91492
10.1652
10.1222
9.57318
8.11725
6.8161
6.11297
6.33946
7.39852
8.67532
9.66885
10.176
10.3692
10.3527
10.1895
9.921
9.57744
9.1825
8.75647
8.31818
7.88602
7.47794
7.11052
6.79694
6.54482
6.3552
6.22343
6.14186
6.10245
6.09811
6.12274
6.17097
6.23797
6.31939
6.4114
6.51073
6.6146
6.72072
6.82719
6.93249
7.0354
7.13499
7.23059
7.32177
7.40831
7.49021
7.56767
7.64101
7.71055
7.77633
7.83736
7.8904
7.92805
0.190001
2.71069
5.05879
6.88256
8.00472
8.66945
9.07748
9.31777
9.37589
9.12313
8.18636
6.84669
5.89152
5.71021
6.48232
7.77096
8.99181
9.80164
10.1867
10.3002
10.2276
10.022
9.71961
9.34721
8.92618
8.47498
8.01089
7.55092
7.11212
6.71087
6.36115
6.0723
5.84749
5.68407
5.57586
5.51586
5.49744
5.51443
5.56081
5.63073
5.7187
5.8198
5.92985
6.04535
6.16346
6.28194
6.39901
6.51331
6.62385
6.72994
6.83116
6.92735
7.01855
7.10499
7.18702
7.26494
7.33858
7.40664
7.46527
7.50626
0.205983
2.86644
4.81541
6.48388
7.59644
8.20829
8.49556
8.57849
8.44039
7.93958
6.76029
5.68409
5.17286
5.58656
6.77788
8.11973
9.2324
9.85893
10.1378
10.1808
10.0572
9.81246
9.47828
9.07843
8.63212
8.15599
7.6657
7.17689
6.70549
6.26753
5.87761
5.54678
5.28069
5.07925
4.93853
4.85313
4.81731
4.82481
4.86868
4.94166
5.03676
5.14776
5.26944
5.39751
5.52863
5.66014
5.79006
5.91693
6.03966
6.15759
6.27032
6.37771
6.47987
6.57706
6.6696
6.75769
6.84096
6.91758
6.98301
7.02816
0.212262
3.08142
4.83574
6.24156
7.21372
7.70378
7.8367
7.75121
7.4397
6.62609
5.49091
4.73626
4.76664
5.73892
7.14562
8.43562
9.38005
9.85913
10.0421
10.0194
9.848
9.56613
9.20142
8.77485
8.30351
7.80232
7.28529
6.76651
6.26075
5.7834
5.3494
4.97143
4.65789
4.41196
4.23283
4.11751
4.06155
4.05844
4.09984
4.17649
4.27955
4.40127
4.53531
4.67664
4.82139
4.96661
5.11012
5.25035
5.38621
5.51702
5.64242
5.76236
5.87694
5.98646
6.09119
6.19115
6.2856
6.37215
6.44543
6.49536
0.211384
3.18459
4.87477
6.05819
6.82901
7.15635
7.13749
6.90814
6.4132
5.35993
4.43566
4.10244
4.72875
6.09566
7.52767
8.72386
9.46151
9.8109
9.906
9.82152
9.60432
9.28661
8.89205
8.43908
7.94273
7.41619
6.87177
6.32208
5.7805
5.26149
4.77999
4.35018
3.9833
3.68655
3.46347
3.3145
3.23674
3.22308
3.2629
3.3443
3.45614
3.58908
3.7357
3.89039
4.04879
4.20778
4.36502
4.51889
4.66829
4.81258
4.95144
5.08485
5.21301
5.33617
5.45452
5.56781
5.67484
5.77245
5.85434
5.90947
0.207363
3.14395
4.79848
5.79703
6.37774
6.55497
6.41852
6.08181
5.29922
4.26789
3.64424
3.85435
5.02387
6.5519
7.89557
8.93393
9.48795
9.71965
9.73328
9.59015
9.3288
8.9761
8.5522
8.07294
7.55146
6.99921
6.42693
5.8456
5.26714
4.70483
4.17336
3.68795
3.26277
2.90984
2.63837
2.45371
2.35476
2.33258
2.37281
2.46004
2.58078
2.72432
2.88258
3.04952
3.22046
3.39226
3.56243
3.72936
3.89198
4.04966
4.20216
4.34948
4.49186
4.62956
4.76261
4.89041
5.0111
5.12062
5.21151
5.27193
0.199769
3.00565
4.56781
5.40649
5.82168
5.88416
5.67626
5.18556
4.18117
3.36088
3.18678
4.01953
5.53266
7.01828
8.24241
9.06164
9.45677
9.5847
9.52452
9.32644
9.0227
8.63587
8.18294
7.67751
7.13077
6.55256
5.95205
5.33867
4.7229
4.11723
3.53531
2.99255
2.50599
2.09356
1.77259
1.55499
1.4405
1.41517
1.45856
1.55142
1.67873
1.82944
1.99544
2.1707
2.35073
2.53228
2.71288
2.89089
3.06519
3.23509
3.40048
3.56131
3.71789
3.87041
4.01871
4.16174
4.2968
4.4186
4.51833
4.58339
0.190674
2.79609
4.20036
4.88089
5.15985
5.12729
4.83731
4.08304
3.16129
2.70853
3.16113
4.52964
6.10622
7.44542
8.5231
9.11416
9.37255
9.40694
9.27958
9.03045
8.68643
8.26653
7.7851
7.25358
6.68155
6.07725
5.44845
4.80332
4.15183
3.50444
2.87374
2.2753
1.72932
1.26248
0.905384
0.677847
0.570818
0.553965
0.598974
0.687521
0.80805
0.95225
1.11349
1.28632
1.46632
1.65003
1.83476
2.01867
2.20044
2.37935
2.55507
2.72753
2.89715
3.06374
3.22702
3.38533
3.53485
3.66863
3.7758
3.84278
0.179748
2.53376
3.72017
4.21623
4.3786
4.26346
3.83558
2.92807
2.33225
2.46852
3.60248
5.20349
6.6384
7.82122
8.67615
9.09746
9.2381
9.18819
8.99881
8.70206
8.3199
7.86816
7.35881
6.80151
6.20427
5.574
4.91747
4.24283
3.55806
2.87266
2.19873
1.55344
0.965517
0.487709
0.193067
0.0816283
0.0552317
0.0550361
0.0697917
0.102308
0.158054
0.240706
0.350063
0.482524
0.632922
0.796086
0.967538
1.14389
1.32272
1.50239
1.68199
1.8611
2.03966
2.21744
2.39367
2.56592
2.72891
2.87332
2.98421
3.04363
0.167608
2.23408
3.15387
3.41819
3.42306
3.27991
2.58624
1.96632
1.90718
2.79194
4.34517
5.85526
7.09497
8.13518
8.74344
9.01453
9.05302
8.92826
8.68215
8.34107
7.92291
7.44062
6.90413
6.32143
5.69929
5.04368
4.36179
3.66016
2.94625
2.22972
1.5248
0.859177
0.307374
0.047469
0.037416
0.0419016
0.042597
0.0428374
0.0425869
0.041019
0.0366663
0.0307424
0.0311
0.0464532
0.0842539
0.150227
0.245075
0.365092
0.504607
0.658135
0.821642
0.992464
1.16885
1.34943
1.53235
1.71396
1.887
2.03858
2.14667
2.1718
0.157283
1.91612
2.52914
2.55845
2.42116
2.11724
1.5646
1.43429
2.12004
3.5722
5.11273
6.40183
7.49081
8.31968
8.72699
8.86671
8.81629
8.62591
8.32883
7.94695
7.49506
6.98369
6.42095
5.81351
5.16707
4.48849
3.78363
3.05885
2.32227
1.58658
0.877666
0.277399
0.0321057
0.041356
0.0419363
0.0421346
0.0424034
0.042725
0.043082
0.0434656
0.043874
0.0442944
0.0446542
0.0447119
0.0437704
0.0401216
0.0333945
0.0312327
0.0439605
0.0797216
0.145469
0.243054
0.369012
0.517809
0.683453
0.858094
1.0304
1.18235
1.28279
1.2663
0.154592
1.5831
1.88078
1.8033
1.59579
1.16799
1.04899
1.59785
2.92646
4.44476
5.74981
6.84978
7.8254
8.38931
8.63043
8.65787
8.52917
8.2807
7.93804
7.51905
7.03587
6.49705
5.90917
5.27784
4.60944
3.91022
3.18586
2.44361
1.69483
0.963172
0.323126
0.0328278
0.0413286
0.0416361
0.0416586
0.0417619
0.0419362
0.042165
0.0424291
0.0427186
0.0430382
0.0433957
0.0437829
0.0441705
0.0445266
0.0448429
0.0451311
0.0453952
0.045562
0.0453159
0.0436228
0.0386215
0.0334917
0.0408621
0.0742881
0.145472
0.252388
0.369467
0.451967
0.427294
0.175959
1.20335
1.3263
1.2069
0.847579
0.757475
1.22594
2.43595
3.88986
5.16673
6.24954
7.23496
7.99256
8.35474
8.46124
8.39262
8.19403
7.89309
7.50923
7.05649
6.54456
5.98013
5.36852
4.71529
4.02751
3.31093
2.57219
1.82145
1.07964
0.409055
0.0434083
0.0410157
0.0416326
0.0415072
0.0414601
0.0414849
0.0415771
0.0417247
0.0419083
0.0421143
0.0423464
0.0426169
0.0429243
0.0432445
0.043547
0.0438191
0.0440711
0.0443263
0.04461
0.044943
0.045345
0.0458374
0.0464445
0.0471766
0.0479377
0.0481957
0.0464265
0.0427293
0.0411716
0.0391033
0.256776
0.943533
0.78047
0.547151
0.5476
1.02486
2.13851
3.47967
4.67962
5.71354
6.65832
7.53097
8.02974
8.23175
8.22564
8.07371
7.8124
7.46359
7.04207
6.55861
6.02049
5.43257
4.79927
4.12733
3.42336
2.6942
1.94906
1.20594
0.515514
0.0711202
0.0397746
0.0418199
0.0415715
0.0413995
0.0412989
0.0412613
0.0412857
0.0413657
0.0414828
0.0416199
0.0417771
0.041969
0.0422016
0.0424562
0.0427031
0.0429258
0.0431293
0.0433331
0.0435596
0.0438274
0.0441522
0.0445513
0.0450458
0.0456626
0.0464362
0.0474008
0.0485334
0.0495577
0.049632
0.0468503
0.181682
0.311221
0.294476
0.479996
1.05876
2.06805
3.22663
4.30057
5.25559
6.14454
7.0244
7.65488
7.95731
8.02474
7.92333
7.69983
7.38325
6.99125
6.53547
6.02411
5.46258
4.85385
4.20298
3.51579
2.80012
2.06589
1.32862
0.628845
0.118584
0.036262
0.0420762
0.0417461
0.041471
0.0412696
0.0411314
0.0410484
0.0410207
0.0410468
0.041112
0.0411967
0.0412958
0.041423
0.0415901
0.0417854
0.0419815
0.0421587
0.0423174
0.0424734
0.042646
0.042851
0.0431008
0.0434078
0.0437857
0.0442489
0.0448128
0.0454882
0.0462439
0.0468629
0.0467027
0.0442354
0.0367228
0.0406009
0.0449043
0.0500344
0.0562494
0.0638471
0.0731183
0.0844569
0.0982925
0.11495
0.134572
0.156608
0.178627
0.196209
0.219162
0.301185
0.471035
0.676208
0.787384
0.568087
0.0365195
0.0399772
0.0438562
0.0485678
0.0543841
0.0616201
0.0705887
0.0817494
0.0956239
0.112676
0.133273
0.157207
0.182624
0.205441
0.229498
0.299879
0.463773
0.686327
0.836837
0.721624
0.0363131
0.039327
0.0427499
0.0469909
0.0523261
0.0590755
0.0675568
0.0782643
0.0917764
0.108666
0.129521
0.15447
0.182276
0.209462
0.235455
0.291053
0.431791
0.644995
0.821116
0.782473
0.0361115
0.038676
0.041629
0.0453649
0.0501558
0.0563172
0.0641563
0.0741677
0.086934
0.103076
0.123343
0.148136
0.176813
0.206623
0.234712
0.27637
0.381575
0.564928
0.7511
0.812146
0.0359219
0.038049
0.0405366
0.0437536
0.0479604
0.0534604
0.0605435
0.0696763
0.0813932
0.0962851
0.115156
0.138572
0.166345
0.196548
0.225745
0.258036
0.32612
0.463705
0.637837
0.76514
0.0357501
0.0374671
0.0395107
0.0422149
0.0458225
0.0506193
0.0568795
0.0650237
0.0755061
0.088826
0.105711
0.126749
0.151984
0.180297
0.20865
0.235747
0.27596
0.362012
0.498988
0.642801
0.0356001
0.0369462
0.0385801
0.0407943
0.0438108
0.0478956
0.0533101
0.0604195
0.0696053
0.081251
0.0958942
0.113989
0.135601
0.160141
0.185456
0.208683
0.233062
0.277296
0.362095
0.479847
0.0354749
0.0364965
0.0377614
0.039518
0.041972
0.0453652
0.0499416
0.0560177
0.0639315
0.0739468
0.086346
0.101354
0.118939
0.138671
0.159186
0.177959
0.193963
0.213752
0.252871
0.322414
0.0353767
0.0361216
0.0370526
0.0383857
0.0403173
0.0430445
0.0467495
0.0516484
0.0579241
0.0656257
0.0748217
0.0856876
0.0983024
0.112457
0.127493
0.142193
0.155665
0.170001
0.193213
0.238486
0.0353078
0.0358183
0.0364197
0.0372774
0.0383364
0.0390151
0.038179
0.0350785
0.0312747
0.0297402
0.0325993
0.0407402
0.0546567
0.075022
0.102969
0.14039
0.190529
0.258809
0.353148
0.482779
0.0350102
0.0352643
0.0327344
0.0224756
0.0121993
0.0131965
0.0249958
0.0466638
0.0760794
0.111082
0.150739
0.195396
0.246286
0.305183
0.374344
0.456846
0.556961
0.679594
0.829163
1.00829
0.00557662
0.00766044
0.0161426
0.0533823
0.10698
0.16081
0.212694
0.265222
0.32017
0.378458
0.441105
0.509707
0.585912
0.671131
0.766997
0.876281
1.00423
1.1551
1.32468
1.50863
0.196459
0.139526
0.234038
0.301535
0.355807
0.408126
0.463745
0.524143
0.590186
0.662239
0.740488
0.826394
0.920733
1.02343
1.13388
1.25346
1.39126
1.55534
1.73198
1.91233
0.65568
0.496923
0.512458
0.539176
0.583677
0.638617
0.696828
0.760624
0.833899
0.916514
1.00535
1.10191
1.20622
1.31752
1.43392
1.55287
1.688
1.86009
2.03378
2.19808
0.672467
0.678755
0.699079
0.735109
0.781461
0.831153
0.883964
0.943337
1.01276
1.0899
1.17427
1.26646
1.36571
1.47102
1.58051
1.69279
1.81748
1.95766
2.08971
2.21452
0.629614
0.708785
0.765067
0.816176
0.865756
0.916454
0.970981
1.03078
1.09539
1.16358
1.23678
1.31559
1.39937
1.48716
1.57821
1.67365
1.77747
1.88554
1.98636
2.07941
0.526884
0.648295
0.72344
0.790454
0.850132
0.907218
0.964889
1.02432
1.08519
1.14707
1.21067
1.27667
1.34508
1.41565
1.48835
1.56379
1.6422
1.72015
1.79213
1.85642
0.391634
0.526023
0.606775
0.684894
0.754824
0.818839
0.87992
0.939263
0.997086
1.05346
1.10884
1.16377
1.21855
1.27334
1.32824
1.3832
1.43741
1.4885
1.5334
1.57028
0.25081
0.374038
0.44733
0.527358
0.601973
0.669861
0.732509
0.790824
0.845239
0.896049
0.943642
0.988456
1.03085
1.07105
1.1091
1.14474
1.17708
1.20444
1.22485
1.23678
0.129586
0.216918
0.272886
0.345027
0.416038
0.481748
0.541731
0.596209
0.645423
0.6896
0.729005
0.763929
0.794628
0.821264
0.843829
0.862029
0.875141
0.882022
0.881362
0.872085
0.0492319
0.0830582
0.116753
0.16945
0.225839
0.280441
0.33116
0.377127
0.41794
0.453419
0.483516
0.508268
0.52774
0.541975
0.550923
0.554364
0.551845
0.542722
0.526336
0.502261
0.0132796
0.0157386
0.0282085
0.0494962
0.0772267
0.108353
0.140056
0.170255
0.197528
0.220935
0.239878
0.253999
0.263111
0.267141
0.266075
0.259922
0.248699
0.2325
0.211634
0.186796
0.0058405
0.00794999
0.0177641
0.0192819
0.0221053
0.0273865
0.0347906
0.0434441
0.0522955
0.0603497
0.0668023
0.0710963
0.0729333
0.0722606
0.0692474
0.0642566
0.0578193
0.0506128
0.0434246
0.037073
0.00586637
0.0201814
0.0335118
0.0332358
0.0324904
0.0314998
0.0304061
0.0294092
0.0286697
0.0282427
0.0280927
0.0281528
0.0283774
0.0287646
0.0293465
0.030155
0.0311803
0.0323447
0.0335142
0.0345474
0.0695079
0.0838376
0.0927846
0.100462
0.107465
0.111652
0.113782
0.114257
0.11349
0.112672
0.111715
0.110678
0.109915
0.1099
0.111544
0.310791
0.348552
0.528325
0.691302
0.778955
0.824299
0.850152
0.863626
0.868434
0.867244
0.863002
0.859334
0.860812
0.873872
0.909108
0.58724
0.394366
0.430347
0.540822
0.645549
0.709277
0.744679
0.76823
0.788334
0.809716
0.836819
0.876277
0.939375
1.04519
1.22347
0.730894
0.606549
0.527939
0.509018
0.524049
0.558256
0.60372
0.65432
0.710207
0.776606
0.864251
0.990215
1.17706
1.44647
1.80795
0.787961
0.755612
0.719725
0.701985
0.706541
0.72737
0.760122
0.80687
0.874828
0.978717
1.13903
1.37507
1.69313
2.07931
2.50945
0.744376
0.794637
0.818431
0.837959
0.862937
0.893537
0.935133
1.00491
1.1259
1.32012
1.59683
1.94378
2.333
2.73888
3.15078
0.604126
0.708355
0.785237
0.846358
0.904336
0.974873
1.08449
1.25981
1.51328
1.83496
2.19834
2.57596
2.9521
3.32527
3.70406
0.421767
0.535564
0.647544
0.764665
0.915009
1.12395
1.39739
1.72225
2.07584
2.43694
2.79299
3.14022
3.48253
3.83008
4.1984
0.324741
0.467641
0.671853
0.944364
1.25927
1.59805
1.94723
2.29621
2.63798
2.97033
3.29658
3.62012
3.95015
4.30077
4.65337
0.664462
0.908427
1.19327
1.5009
1.82236
2.14859
2.47399
2.79488
3.11091
3.42447
3.74571
4.07133
4.37421
4.62801
4.82307
1.22224
1.47115
1.74092
2.02564
2.31981
2.61954
2.92426
3.23383
3.5555
3.85219
4.10913
4.33595
4.47843
4.58096
4.65013
1.71603
1.95472
2.2066
2.47778
2.75411
3.05817
3.34381
3.60006
3.83751
4.00358
4.1272
4.21322
4.25564
4.27359
4.27079
2.11832