/*--------------------------------*- C++ -*----------------------------------*\
| =========                 |                                                 |
| \\      /  F ield         | OpenFOAM: The Open Source CFD Toolbox           |
|  \\    /   O peration     | Version:  v1912                                 |
|   \\  /    A nd           | Website:  www.openfoam.com                      |
|    \\/     M anipulation  |                                                 |
\*---------------------------------------------------------------------------*/
FoamFile
{
    version     2.0;
    format      ascii;
    class       volScalarField;
    location    "20";
    object      p;
}
// * * * * * * * * * * * * * * * * * * * * * * * * * * * * * * * * * * * * * //

dimensions      [1 -1 -2 0 0 0 0];


internalField   nonuniform List<scalar> 
20320
(
417391
427649
427679
427734
427808
427900
428005
428123
428251
428385
428523
428661
428797
428928
429052
429165
429269
429362
429446
429492
397469
407385
407423
407480
407556
407648
407755
407873
408001
408136
408274
408413
408550
408681
408805
408919
409018
409099
409164
409215
378145
387749
387788
387846
387922
388015
388122
388241
388369
388503
388642
388780
388916
389046
389170
389283
389376
389446
389501
389550
359420
368725
368764
368821
368897
368989
369095
369213
369341
369475
369612
369749
369883
370011
370133
370243
370328
370389
370440
370493
341282
350295
350333
350390
350464
350555
350660
350776
350902
351034
351170
351305
351436
351563
351682
351786
351862
351918
351966
352023
323717
332445
332482
332538
332610
332699
332802
332916
333039
333168
333300
333432
333561
333685
333801
333898
333965
334016
334064
334125
306713
315162
315197
315251
315321
315406
315506
315616
315735
315860
315988
316115
316240
316360
316471
316559
316619
316665
316713
316778
290256
298432
298466
298517
298584
298665
298760
298865
298978
299096
299218
299339
299457
299571
299676
299754
299805
299846
299892
299961
274336
282245
282276
282324
282386
282462
282549
282647
282752
282861
282974
283085
283194
283299
283394
283460
283501
283535
283579
283651
258941
266587
266616
266659
266715
266784
266862
266950
267043
267141
267241
267339
267434
267526
267606
267655
267682
267707
267746
267820
244060
251449
251474
251512
251560
251619
251686
251760
251839
251921
252002
252082
252158
252230
252288
252316
252322
252331
252362
252436
229684
236820
236841
236872
236911
236958
237011
237069
237129
237188
237246
237299
237348
237391
237419
237414
237391
237375
237391
237462
215801
222690
222706
222729
222757
222790
222826
222863
222899
222931
222957
222976
222986
222988
222971
222920
222852
222797
222788
222848
202403
209048
209058
209072
209088
209105
209121
209133
209140
209137
209123
209095
209053
208997
208918
208798
208659
208543
208490
208527
189479
195886
195890
195894
195896
195895
195888
195872
195844
195801
195737
195650
195539
195404
195234
195013
194766
194547
194419
194408
177021
183193
183191
183185
183172
183152
183120
183073
183006
182915
182792
182633
182434
182193
181898
181528
181110
180719
180453
180342
165015
170960
170951
170934
170907
170866
170809
170729
170621
170476
170288
170045
169738
169360
168896
168313
167629
166943
166411
166084
153454
159175
159160
159133
159090
159030
158947
158834
158683
158485
158225
157889
157460
156918
156238
155361
154274
153078
152005
151174
142324
147828
147807
147770
147714
147635
147527
147383
147191
146940
146610
146180
145621
144898
143963
142716
141063
139018
136810
134647
131613
136907
136881
136835
136766
136670
136540
136368
136139
135840
135447
134930
134249
133348
132149
130499
128157
124877
120438
114532
102789
104749
104614
104992
105711
106238
105943
104678
102788
99647
93931.3
88437.7
84661.9
82405.6
81737.8
81205.6
80651.2
80808.4
80732.5
81688.9
82704.3
225057
314759
256611
193570
142714
104403
77296.8
59084.8
47306.9
39898.5
35336.8
32560.6
30920.9
29949.4
29365.2
29010.4
28783.3
28628.9
28518.9
28432.6
28350.7
28260.8
28162.2
28068.2
27999.4
27964.3
27959.6
27980.4
28022.7
28086.8
28172.5
28272.2
28374.7
28466.1
28532.8
28564.8
28552.2
28491.2
28396.7
97805.5
100152
99932.4
100285
100998
101813
101858
100860
99246.7
97613
93808.7
85513.7
80740.6
78923.6
78295
78040.7
77983.8
78044.6
78244.7
78620.5
79890.3
136189
243960
220546
173910
129865
94912.5
69662.3
52540.6
41422.7
34420.7
30146.1
27486.2
25903.4
24954.9
24379.6
24025.9
23798.8
23642.8
23529.2
23436.4
23346.4
23246.1
23134.7
23028.8
22948.2
22901.9
22888.8
22907.2
22953.6
23024.6
23117.3
23223.8
23333.2
23432.7
23509.9
23553.9
23553
23498.5
23392.1
92559.1
94880.8
95148
95845.4
96113.2
96811.6
97183.1
96651.3
95450.7
95137.9
85631.8
81990
80570.5
78915.8
78215.8
78012.3
77977.4
78012.9
78157.1
78442.6
79063.8
148256
200660
188003
152975
115149
83606.5
60505.4
44843.1
34715.5
28355.4
24446.4
22087.9
20663.3
19798.3
19265.7
18931.2
18710.1
18552.1
18434.6
18335.8
18239
18129.7
18004.3
17884
17793.6
17743
17727.8
17746.3
17795.1
17870.9
17970.4
18085.4
18204.8
18315
18404.3
18461.3
18473.4
18425.9
18301.3
87065.4
89387
89906.3
90620.3
90953.2
91473.2
92008
91890.4
91027.2
90182.7
84988.3
82360.6
80855.2
78961.1
78202.6
78039.2
77975.4
77977.7
78080.1
78281.7
78762.2
140332
163643
156691
129652
97345.8
69417.5
49002.1
35375.6
26728.1
21378.6
18136.1
16207
15045.3
14339.6
13901.8
13622.3
13428.5
13279.2
13167.8
13072.2
12979.4
12870.3
12733.1
12595.1
12494.8
12448.2
12438.2
12460.2
12510.7
12589.5
12696.8
12823.5
12957.7
13082
13185.8
13257.5
13284.2
13247.8
13118.8
81395.2
83873.9
84394.6
84970.9
85522
85995.8
86530.3
86727.4
86172.1
84878.8
82374.1
80595.5
78201.8
77224
78227.8
77986.7
77932.2
77928.6
78001.2
78172.8
84664.5
116146
130049
125195
103533
75954.7
51910
34879.3
23987.8
17377.4
13433.6
11111.8
9811.13
9042.9
8574.06
8289.59
8108.48
7968.46
7836.34
7743.46
7659.52
7583.46
7487.76
7339.16
7175.04
7060.98
7030.16
7034.9
7065.06
7116.15
7195.92
7312.68
7455.97
7611.5
7754.16
7875.73
7963.77
8007.87
7990.73
7882.16
75613
78498.1
78671.8
79303.8
79929
80708.1
80970.9
81307.5
81144.8
80327.1
78732.1
77577.7
76427.8
76291.4
77859.5
77931
77844.6
77881.6
77950.1
77754.9
84679.3
93359
100258
94455.9
75398.6
51292.4
30895.1
17644
10116.5
6253.99
4310.54
3287.22
2883.68
2652.71
2549.11
2501.88
2477.9
2432.57
2317.58
2260.49
2190.67
2146.05
2088.3
1924.45
1700.59
1516.43
1514.02
1533.95
1568.3
1619.51
1700.53
1827.12
1988.18
2157.95
2297.19
2416.68
2517.96
2578.45
2586.16
2555.8
69708.6
72826.2
72642.9
73644.3
74216.6
74958.1
75672.5
75766.2
75900.5
75577.3
74825.1
74214.9
73901.6
74355.5
76459.6
77630.9
77702
77839.3
77954.1
77347.5
73569.8
74210.8
74187.3
65451.3
46453.4
22808.7
5727.28
711.61
-8.60894
-89.3221
-56.1917
-0.666966
-10.6377
-17.3641
-22.2491
-25.9008
-28.6873
-30.7093
-31.9065
-32.732
-33.6893
-34.501
-35.1521
-35.3173
-34.9506
-34.1156
-34.3693
-34.2228
-34.1032
-34.0185
-33.8502
-33.6702
-33.5144
-33.3155
-32.9538
-32.4654
-32.0666
-31.6464
-31.3442
-31.4512
63692
66841.7
67391.1
67923.4
68430.3
69079.6
69883.9
70445.7
70524.6
70565.1
70439
70434.1
70761.5
71706.2
74122.1
77510
77476.8
77806
77413.9
69628.2
62307.3
57460.6
51509.1
39062.9
15556.7
660.38
89.2718
68.6665
49.3854
31.3984
16.2113
2.98655
-8.53877
-16.3515
-22.3837
-27.0353
-30.6853
-33.3908
-35.0047
-35.9812
-36.9665
-38.149
-38.9937
-39.4772
-39.6129
-39.6848
-39.9296
-40.1154
-40.2348
-40.2834
-40.2549
-40.1812
-40.0845
-39.9555
-39.7456
-39.4575
-39.1334
-38.8033
-38.5463
-38.5051
57623.5
60989.8
61886.1
62130
62583.4
63132.1
63797.4
64598.1
64972.8
65235.8
65600.6
66165.3
67053.6
68291.8
70689.6
76606.1
77017.7
77673.2
74008.7
61038.9
51513.6
42508.8
32013.2
13500.8
44.6732
88.2869
73.31
50.9389
32.6279
16.5564
3.37242
-6.85074
-16.102
-23.252
-28.7918
-33.0959
-36.4577
-38.9921
-40.6462
-41.8022
-42.8081
-43.7676
-44.5498
-45.1183
-45.4536
-45.6089
-45.7973
-45.9477
-46.0493
-46.0946
-46.068
-45.9841
-45.8611
-45.6919
-45.4495
-45.1361
-44.7833
-44.4234
-44.1243
-43.9871
51528.8
55157.7
55141.4
56275.7
56697.9
57118.6
57590.5
58460.5
59104.8
59566
60295.9
61356.9
62836.4
64517.6
65599.7
75676.1
76361.7
76196
64777.9
52760.5
41092.3
29161.2
14541
255.637
70.0214
70.829
51.0886
33.4024
18.084
4.62848
-6.71769
-15.8205
-23.7605
-30.1774
-35.2539
-39.255
-42.3931
-44.7896
-46.4959
-47.7236
-48.7226
-49.6216
-50.3733
-50.9453
-51.3292
-51.5658
-51.7625
-51.9231
-52.0374
-52.0944
-52.0786
-51.9949
-51.8579
-51.6662
-51.4073
-51.0811
-50.7072
-50.3179
-49.9637
-49.7073
45465.6
49475.2
49945.3
50392.8
50832.8
51169
51039
52218.5
53010.8
53449.3
54420.5
55945.6
57985.2
60795.6
63251.4
73563
76107.9
71861.5
56889.2
44318.2
31107.2
17032.6
1419.22
39.5653
45.5132
41.1374
28.6186
15.476
3.14829
-7.92933
-17.5
-25.4262
-32.1799
-37.7619
-42.2737
-45.8831
-48.7375
-50.9499
-52.6
-53.8291
-54.8144
-55.6641
-56.3838
-56.9522
-57.3601
-57.64
-57.8547
-58.0256
-58.1476
-58.2101
-58.1977
-58.1103
-57.9589
-57.7465
-57.4662
-57.1189
-56.7189
-56.291
-55.8739
-55.5069
40180.1
43741.2
44796.3
44281.7
45023.9
45283.4
44794.4
46019.8
46737.8
47392
48296.4
49799.6
52212.7
55886
63407.4
66817.2
69472.7
61206
49009.7
35813.1
21633.8
5394.51
17.9907
19.0836
20.0262
15.873
7.64163
-2.08447
-11.7696
-20.7304
-28.6404
-35.3471
-41.04
-45.8006
-49.7153
-52.8899
-55.4274
-57.4233
-58.9575
-60.1384
-61.0872
-61.893
-62.5806
-63.1353
-63.5509
-63.8524
-64.0849
-64.2646
-64.3909
-64.4533
-64.4376
-64.3415
-64.1756
-63.9436
-63.6407
-63.27
-62.8404
-62.3712
-61.8899
-61.4204
35881.9
38607.3
37393.8
37302.3
39390.9
39416.3
39784.1
39944.7
40395.9
41433.9
42504.9
43494.8
45506.8
49164.6
57445.8
55056.9
66039.1
52498
40926.7
27487.7
12404.4
252.448
-2.30842
-0.986929
-2.41833
-5.61926
-11.4577
-18.7031
-26.2363
-33.399
-39.8446
-45.4143
-50.1597
-54.1589
-57.4879
-60.2163
-62.4204
-64.1782
-65.564
-66.6605
-67.5515
-68.3068
-68.9536
-69.4853
-69.8997
-70.2144
-70.4585
-70.6434
-70.7711
-70.8296
-70.8049
-70.6968
-70.5152
-70.2624
-69.9363
-69.5407
-69.0801
-68.568
-68.0234
-67.4593
31357.2
32787
32517.7
33672.2
34607.3
33702.6
33959.5
33913.4
34092.5
34826.5
35997
36851.6
38174.8
41105.2
44486.6
54217.8
49995.7
44586.3
32921
19480
3624.56
-19.0411
-18.8069
-19.7157
-21.4228
-24.2392
-28.6576
-34.1652
-40.0308
-45.7222
-50.9251
-55.487
-59.3983
-62.7162
-65.4971
-67.7931
-69.6666
-71.1824
-72.4027
-73.3909
-74.2077
-74.9039
-75.5026
-76.0047
-76.4085
-76.7256
-76.9735
-77.1612
-77.2869
-77.3371
-77.2998
-77.1776
-76.9792
-76.7057
-76.3571
-75.9365
-75.4444
-74.8896
-74.2847
-73.6347
25233
31166.6
31641.3
32139.2
29937.4
28203.6
27886
28244.6
27883.4
27731
28454.5
29441.6
30353.8
31087.8
38045.2
36258.5
44291.4
36094.9
25178.2
11567.5
189.437
-33.1555
-34.0048
-36.1407
-38.0595
-40.6369
-44.1713
-48.4626
-53.0654
-57.5841
-61.7622
-65.4625
-68.6567
-71.3749
-73.6605
-75.5573
-77.1194
-78.3999
-79.4488
-80.3176
-81.0495
-81.6805
-82.227
-82.6928
-83.0765
-83.3855
-83.6315
-83.8159
-83.9335
-83.9705
-83.9195
-83.7831
-83.5677
-83.2754
-82.9056
-82.4605
-81.9378
-81.3429
-80.682
-79.9552
18750.7
24075.9
26493.7
25294.4
24019.8
22675.3
21707.2
21455.9
17465.8
18673.1
19976.4
21532.4
22477.5
22364.2
34618.8
41264.5
35311.3
28214.1
17840.1
4046.21
-17.896
-46.2156
-48.4351
-50.8258
-52.9165
-55.3124
-58.2596
-61.6926
-65.347
-68.9459
-72.2931
-75.2761
-77.8608
-80.0616
-81.9135
-83.4553
-84.7334
-85.793
-86.6755
-87.4214
-88.0635
-88.6251
-89.1171
-89.5419
-89.8995
-90.1938
-90.429
-90.6018
-90.7049
-90.7266
-90.6621
-90.5123
-90.2815
-89.9722
-89.5832
-89.115
-88.5646
-87.9323
-87.2218
-86.427
15577.2
16862.7
17322.1
17521.9
17455.4
17500.4
16666.7
15936.6
15859.7
15846
16035.8
16240.7
17023.4
18618.5
27001.4
33632.6
28238
21124.8
10998.6
379.846
-62.5363
-58.7999
-61.952
-64.2951
-66.4179
-68.6505
-71.178
-73.9883
-76.9286
-79.8124
-82.4954
-84.8904
-86.9655
-88.7281
-90.2085
-91.4422
-92.4693
-93.328
-94.054
-94.6806
-95.2312
-95.7224
-96.1599
-96.5422
-96.8694
-97.1417
-97.3578
-97.5124
-97.5972
-97.603
-97.526
-97.3652
-97.1215
-96.7979
-96.3925
-95.9037
-95.3287
-94.6638
-93.9095
-93.0559
15573.2
15502.1
15514.6
15512.9
15562.1
15688.7
15732.4
15757
15831.4
15877
15987.6
16156.4
16576.2
17513.6
19602.6
27312.9
21780.3
14805.4
4814.88
-15.9475
-73.0994
-72.3366
-74.6928
-76.8491
-78.8814
-80.9448
-83.1472
-85.4916
-87.8884
-90.2162
-92.3718
-94.2895
-95.9451
-97.3442
-98.5116
-99.4829
-100.292
-100.972
-101.557
-102.07
-102.533
-102.954
-103.336
-103.676
-103.97
-104.215
-104.408
-104.542
-104.609
-104.601
-104.514
-104.343
-104.09
-103.755
-103.335
-102.829
-102.233
-101.539
-100.748
-99.8449
15560.1
15541.5
15532.1
15536.5
15545.2
15556.1
15630.8
15717.1
15783.8
15841.2
15930.8
16083.7
16366.2
17072.7
17349.8
19624.9
15734.7
9200.77
713.049
-92.8749
-82.1636
-84.6643
-86.696
-88.6541
-90.5399
-92.4205
-94.3526
-96.3325
-98.3073
-100.202
-101.941
-103.476
-104.791
-105.891
-106.801
-107.552
-108.176
-108.702
-109.16
-109.571
-109.949
-110.304
-110.632
-110.929
-111.189
-111.405
-111.574
-111.688
-111.74
-111.722
-111.626
-111.449
-111.187
-110.843
-110.413
-109.893
-109.278
-108.561
-107.74
-106.797
15545.2
15537
15529.6
15530
15541
15558.4
15604.3
15672.2
15734.4
15789.1
15856.3
15975.1
16125.2
15771.4
14089.7
13763.5
10480.4
4271.88
-40.0198
-92.7795
-94.8344
-96.4337
-98.1272
-99.8543
-101.558
-103.25
-104.942
-106.626
-108.27
-109.823
-111.232
-112.463
-113.504
-114.362
-115.062
-115.632
-116.1
-116.496
-116.845
-117.164
-117.467
-117.759
-118.036
-118.291
-118.516
-118.705
-118.851
-118.948
-118.988
-118.961
-118.859
-118.677
-118.411
-118.06
-117.623
-117.093
-116.465
-115.731
-114.886
-113.914
15532.2
15526.6
15522.6
15523.8
15532.7
15549.7
15584.7
15637.5
15689.9
15735.4
15786.7
15870.6
15955.9
15327.7
11163
9658.13
6181.06
819.887
-81.5571
-107.236
-106.6
-107.713
-109.086
-110.567
-112.07
-113.566
-115.039
-116.476
-117.854
-119.135
-120.283
-121.272
-122.094
-122.759
-123.291
-123.714
-124.055
-124.344
-124.599
-124.84
-125.077
-125.313
-125.542
-125.758
-125.952
-126.115
-126.241
-126.323
-126.351
-126.317
-126.211
-126.027
-125.759
-125.405
-124.964
-124.43
-123.794
-123.05
-122.191
-121.197
15518.8
15516.1
15513.1
15514.1
15520.6
15534.8
15563.1
15607.6
15652
15686.8
15729.8
15767.7
15907.8
12197.1
8834.62
6589.44
2669.03
-302.199
-128.837
-117.622
-117.821
-118.55
-119.636
-120.871
-122.168
-123.47
-124.743
-125.97
-127.128
-128.189
-129.127
-129.925
-130.575
-131.088
-131.485
-131.791
-132.032
-132.232
-132.412
-132.588
-132.769
-132.956
-133.145
-133.326
-133.492
-133.632
-133.74
-133.808
-133.826
-133.785
-133.677
-133.493
-133.227
-132.875
-132.435
-131.901
-131.266
-130.518
-129.653
-128.649
15510.7
15506.8
15503
15502.3
15505.4
15514.8
15536.9
15579.8
15622.1
15639.3
15663.6
15731.1
15414.1
9275.66
7079.76
4111.73
-164.916
-162.749
-122.78
-128.357
-128.434
-128.988
-129.823
-130.835
-131.933
-133.048
-134.138
-135.183
-136.157
-137.038
-137.807
-138.452
-138.966
-139.359
-139.651
-139.866
-140.028
-140.159
-140.279
-140.403
-140.538
-140.685
-140.839
-140.992
-141.133
-141.253
-141.345
-141.401
-141.412
-141.367
-141.257
-141.075
-140.815
-140.469
-140.035
-139.509
-138.879
-138.136
-137.274
-136.269
15505.9
15500.8
15493.7
15489.9
15489.2
15492.6
15505.8
15538.2
15549
15575
15595.8
15693.3
13666.4
7737.87
5450.48
1875.14
-1316.44
-140.569
-139.185
-138.799
-138.72
-139.071
-139.699
-140.512
-141.425
-142.367
-143.293
-144.177
-144.994
-145.726
-146.36
-146.881
-147.287
-147.586
-147.798
-147.942
-148.044
-148.123
-148.197
-148.281
-148.381
-148.497
-148.623
-148.752
-148.872
-148.976
-149.055
-149.101
-149.106
-149.059
-148.951
-148.774
-148.521
-148.186
-147.764
-147.25
-146.633
-145.903
-145.051
-144.055
15504.8
15497.8
15485.3
15478
15474.1
15472
15481.3
15503.5
15506.6
15538.3
15569.4
15443.9
9545.89
6754.85
3858.55
-237.69
-538.541
-153.775
-149.35
-148.864
-148.662
-148.852
-149.308
-149.952
-150.701
-151.487
-152.266
-153.01
-153.693
-154.301
-154.822
-155.243
-155.562
-155.789
-155.938
-156.03
-156.087
-156.128
-156.169
-156.224
-156.298
-156.39
-156.495
-156.605
-156.71
-156.801
-156.869
-156.908
-156.908
-156.862
-156.758
-156.589
-156.347
-156.025
-155.62
-155.124
-154.527
-153.817
-152.984
-152.004
15459.6
15492.5
15476.5
15466.5
15460.8
15456.6
15459.8
15473.2
15488.7
15511.3
15553.2
14513
7973.59
5669.76
2208.65
-1842.31
-160.306
-158.8
-159.445
-158.576
-158.308
-158.372
-158.694
-159.198
-159.807
-160.457
-161.108
-161.73
-162.299
-162.802
-163.228
-163.567
-163.817
-163.986
-164.088
-164.141
-164.165
-164.18
-164.199
-164.235
-164.291
-164.367
-164.458
-164.554
-164.647
-164.728
-164.788
-164.822
-164.82
-164.775
-164.677
-164.518
-164.29
-163.985
-163.6
-163.128
-162.558
-161.876
-161.07
-160.116
15420
15471.4
15462
15453.4
15448
15446.1
15452.4
15464
15472.5
15494.6
15565.9
10642.4
7207.23
4398.86
408.546
-1546.43
-186.448
-167.917
-168.643
-167.978
-167.689
-167.676
-167.902
-168.297
-168.789
-169.325
-169.865
-170.381
-170.852
-171.266
-171.613
-171.883
-172.076
-172.2
-172.266
-172.29
-172.293
-172.291
-172.297
-172.321
-172.367
-172.433
-172.514
-172.601
-172.686
-172.76
-172.815
-172.845
-172.843
-172.801
-172.71
-172.563
-172.349
-172.064
-171.704
-171.26
-170.723
-170.075
-169.306
-168.385
15416.4
15420.6
15430.9
15435.9
15434.3
15433.6
15438.6
15444.6
15451.8
15476.5
14974.8
8756.95
6344.6
2946.88
-1414.21
-395.53
-171.514
-178.678
-177.713
-177.156
-176.869
-176.82
-176.981
-177.293
-177.692
-178.131
-178.577
-179.004
-179.392
-179.731
-180.01
-180.223
-180.369
-180.456
-180.493
-180.497
-180.487
-180.475
-180.474
-180.494
-180.535
-180.597
-180.672
-180.753
-180.832
-180.901
-180.952
-180.981
-180.98
-180.941
-180.858
-180.723
-180.526
-180.263
-179.929
-179.519
-179.019
-178.413
-177.688
-176.809
15389.4
15378.3
15397.9
15414.5
15419.4
15420.8
15423.6
15427.8
15439.8
15476.1
11863
8011.66
5168.66
1274.87
-2061.07
-187.457
-187.449
-187.366
-186.625
-186.177
-185.913
-185.854
-185.978
-186.228
-186.553
-186.914
-187.282
-187.633
-187.952
-188.227
-188.449
-188.614
-188.722
-188.778
-188.793
-188.783
-188.765
-188.749
-188.747
-188.766
-188.807
-188.866
-188.938
-189.015
-189.09
-189.155
-189.204
-189.232
-189.232
-189.197
-189.121
-188.997
-188.818
-188.577
-188.273
-187.898
-187.441
-186.884
-186.21
-185.384
15375
15369.8
15380.8
15395.9
15404.5
15409
15411.7
15416.6
15438.7
15077.3
9638.2
7138.91
3720.36
-563.741
-909.632
-204.295
-197.044
-196.19
-195.521
-195.118
-194.884
-194.833
-194.935
-195.141
-195.409
-195.708
-196.012
-196.301
-196.562
-196.783
-196.959
-197.083
-197.159
-197.191
-197.188
-197.17
-197.148
-197.132
-197.133
-197.154
-197.196
-197.253
-197.323
-197.396
-197.467
-197.528
-197.575
-197.603
-197.603
-197.571
-197.501
-197.388
-197.225
-197.007
-196.733
-196.395
-195.983
-195.48
-194.868
-194.105
15367.2
15365.9
15370.8
15381.2
15390.3
15396.8
15404.3
15412.1
15438.3
12268.5
8787.06
5883.72
2032.66
-1995.71
-239.234
-199.272
-205.659
-204.859
-204.377
-204.028
-203.834
-203.801
-203.894
-204.069
-204.294
-204.543
-204.796
-205.035
-205.248
-205.426
-205.562
-205.654
-205.704
-205.716
-205.703
-205.68
-205.658
-205.646
-205.651
-205.674
-205.715
-205.771
-205.836
-205.905
-205.971
-206.027
-206.07
-206.095
-206.095
-206.064
-206
-205.896
-205.749
-205.552
-205.306
-205.004
-204.638
-204.195
-203.653
-202.969
15356.9
15358.6
15361.3
15368.4
15376.5
15385.2
15395.5
15403.3
14923.7
10276.2
7772.23
4298.82
119.049
-1554.97
-231.118
-213.458
-214.287
-213.668
-213.254
-212.958
-212.811
-212.802
-212.893
-213.046
-213.238
-213.449
-213.662
-213.861
-214.035
-214.177
-214.282
-214.348
-214.378
-214.376
-214.357
-214.335
-214.318
-214.313
-214.321
-214.344
-214.382
-214.432
-214.49
-214.551
-214.61
-214.659
-214.696
-214.716
-214.713
-214.683
-214.622
-214.527
-214.391
-214.214
-213.992
-213.724
-213.403
-213.019
-212.557
-211.972
15344.6
15348.8
15350.9
15356.2
15362.5
15371.1
15385
15406.9
11982.5
9326.17
6317.14
2450.52
-1770.37
-338.02
-219.394
-224.491
-223.275
-222.622
-222.216
-221.962
-221.857
-221.87
-221.96
-222.098
-222.266
-222.448
-222.629
-222.795
-222.939
-223.053
-223.133
-223.179
-223.193
-223.183
-223.164
-223.149
-223.141
-223.142
-223.152
-223.173
-223.204
-223.245
-223.292
-223.343
-223.39
-223.43
-223.458
-223.47
-223.462
-223.43
-223.371
-223.281
-223.156
-222.993
-222.792
-222.552
-222.271
-221.942
-221.562
-221.101
15332
15337.5
15339.6
15344.3
15349.3
15357.3
15384.6
14119
10642.6
8043.81
4498.01
416.031
-1890.33
-240.658
-233.294
-233.345
-232.256
-231.658
-231.28
-231.069
-231.002
-231.034
-231.125
-231.252
-231.401
-231.561
-231.716
-231.856
-231.975
-232.066
-232.127
-232.158
-232.161
-232.148
-232.138
-232.13
-232.126
-232.126
-232.132
-232.148
-232.172
-232.205
-232.243
-232.283
-232.319
-232.347
-232.365
-232.367
-232.352
-232.315
-232.254
-232.166
-232.048
-231.897
-231.712
-231.494
-231.241
-230.955
-230.644
-230.34
15319.6
15325.7
15327.6
15332.5
15338.8
15331.1
15065.8
11801.5
9463.35
6250.13
2451.08
-1559.41
-420.712
-237.942
-242.579
-241.959
-241.254
-240.779
-240.464
-240.307
-240.274
-240.32
-240.41
-240.528
-240.663
-240.804
-240.938
-241.057
-241.156
-241.229
-241.276
-241.294
-241.293
-241.287
-241.279
-241.272
-241.268
-241.266
-241.269
-241.279
-241.296
-241.32
-241.348
-241.375
-241.399
-241.415
-241.421
-241.414
-241.391
-241.347
-241.282
-241.194
-241.079
-240.935
-240.76
-240.557
-240.324
-240.06
-239.773
-239.516
15307.5
15314.3
15315.5
15320.2
15332.7
15308.5
12836.2
10576.9
7679.96
4119.6
303.168
-1925.19
-257.887
-251.458
-251.752
-250.972
-250.447
-250.054
-249.803
-249.697
-249.692
-249.745
-249.832
-249.943
-250.066
-250.191
-250.308
-250.411
-250.492
-250.552
-250.586
-250.598
-250.596
-250.589
-250.583
-250.577
-250.573
-250.569
-250.568
-250.573
-250.585
-250.601
-250.62
-250.637
-250.65
-250.656
-250.65
-250.631
-250.596
-250.541
-250.469
-250.376
-250.26
-250.118
-249.95
-249.756
-249.535
-249.283
-248.993
-248.624
15293.4
15303.3
15304.7
15309.1
15302.7
13674.8
11446.8
8779.89
5463.45
1908.62
-1712.74
-407.856
-262.511
-262.31
-261.244
-260.404
-259.888
-259.533
-259.331
-259.258
-259.267
-259.322
-259.406
-259.509
-259.621
-259.732
-259.836
-259.924
-259.992
-260.04
-260.065
-260.068
-260.064
-260.059
-260.054
-260.048
-260.043
-260.037
-260.034
-260.035
-260.041
-260.051
-260.061
-260.07
-260.074
-260.071
-260.056
-260.029
-259.987
-259.927
-259.849
-259.75
-259.629
-259.482
-259.311
-259.118
-258.902
-258.661
-258.392
-258.103
15273.7
15291.2
15294.4
15288.2
13945.6
11994
9557.81
6484.42
3145.81
-284.736
-1766.61
-284.643
-273.293
-272.484
-270.921
-270.073
-269.551
-269.224
-269.056
-269.002
-269.016
-269.068
-269.145
-269.239
-269.34
-269.44
-269.53
-269.605
-269.664
-269.701
-269.71
-269.709
-269.706
-269.701
-269.696
-269.691
-269.686
-269.678
-269.672
-269.671
-269.672
-269.675
-269.678
-269.679
-269.676
-269.665
-269.643
-269.61
-269.563
-269.499
-269.419
-269.32
-269.201
-269.061
-268.899
-268.716
-268.512
-268.287
-268.052
-267.841
15226.5
15276.8
15272.7
13952.9
12266.6
9954.98
7144.54
4049.98
901.469
-2084.35
-292.499
-276.301
-283.632
-281.809
-280.61
-279.862
-279.388
-279.106
-278.969
-278.924
-278.936
-278.983
-279.053
-279.138
-279.229
-279.317
-279.396
-279.461
-279.51
-279.527
-279.527
-279.526
-279.523
-279.518
-279.514
-279.508
-279.502
-279.493
-279.485
-279.481
-279.477
-279.474
-279.471
-279.466
-279.456
-279.439
-279.412
-279.374
-279.324
-279.258
-279.177
-279.08
-278.966
-278.833
-278.683
-278.518
-278.338
-278.146
-277.953
-277.788
13222.1
14895.4
13890.2
12404.5
10203.5
7608.95
4795.46
1886.06
-1217.02
-1186.5
-306.292
-291.356
-292.296
-291.217
-290.42
-289.839
-289.449
-289.217
-289.098
-289.053
-289.056
-289.092
-289.15
-289.222
-289.299
-289.374
-289.44
-289.495
-289.522
-289.524
-289.524
-289.521
-289.518
-289.514
-289.509
-289.504
-289.496
-289.486
-289.476
-289.469
-289.461
-289.454
-289.444
-289.433
-289.418
-289.396
-289.365
-289.324
-289.272
-289.205
-289.125
-289.031
-288.922
-288.798
-288.662
-288.514
-288.356
-288.194
-288.036
-287.905
121311
126400
126369
126315
126236
126125
125977
125780
125522
125183
124737
124149
123368
122321
120898
118900
115935
111349
103784
90236.6
111131
116205
116170
116110
116022
115900
115737
115521
115239
114871
114388
113751
112904
111763
110202
108012
104756
99617.5
91066.6
76233.4
100978
106037
105999
105934
105839
105708
105533
105304
105007
104620
104115
103453
102578
101405
99814
97620.9
94489.4
89807
82657.9
71797.7
90855.3
95898.1
95857.6
95788.9
95688.7
95551.6
95369.9
95133.2
94827.1
94432.3
93921.9
93258.8
92391
91244.9
89716.5
87664.2
84874.1
80967.1
75399.8
67609.1
80763.1
85789.7
85747.8
85676.9
85573.9
85433.5
85248.6
85009.1
84701.9
84309
83806.4
83161.2
82329.1
81249.4
79840.6
77998.3
75593.1
72425.7
68203.2
62684.2
70702.6
75713.1
75670.7
75599
75495.1
75354.3
75169.6
74932.1
74629.8
74246.7
73762.1
73148.1
72368.6
71376.2
70109.9
68495.7
66452.2
63885.9
60664.1
56668.4
60673.9
65668.7
65626.6
65555.6
65452.9
65313.9
65132.7
64901
64608.3
64240.8
63780.7
63205.3
62485.9
61586.8
60463.5
59064.2
57336.1
55232
52703.1
49701.9
50676.3
55656.2
55615.6
55546.7
55446.8
55312
55136.8
54914
54634.4
54286
53854
53319.9
52661.6
51852.2
50859.7
49648
48182
46433.7
44384.9
42025.5
40708.2
45674.8
45636.9
45571.9
45476.5
45347.4
45180.7
44969.6
44705.5
44378.3
43975.7
43483.2
42883.5
42156.2
41277.3
40221.4
38963.2
37482.3
35765.4
33807.4
30766.4
35723
35690.5
35630.9
35540.9
35419.4
35263.8
35067.5
34822.2
34518.6
34146.4
33693.9
33146.4
32486.4
31693.5
30746.5
29622.4
28297.8
26753.9
24979.6
20838.2
25800.2
25778.4
25724.8
25638.8
25525.7
25383.2
25199.1
24963.2
24667.5
24304.8
23866.1
23338.9
22707.3
21954.4
21061.4
20007.2
18773
17344.2
15711.5
10873.5
15906.8
15906.5
15846.8
15754.1
15646.8
15509.4
15324.9
15083.4
14780.8
14415
13979.7
13462.6
12849.9
12127.6
11288
10298.4
9124.99
7791.85
6305.03
1432.8
6077.2
6067.34
5962.44
5863.42
5765.74
5643.48
5463.54
5207.06
4881.38
4501.89
4077.79
3597.77
3060.12
2491.55
1915.05
1375.87
947.531
490.579
36.8243
-437.518
-306.344
-319.392
-375.26
-392.605
-378.016
-378.872
-397.94
-425.93
-426.966
-427.394
-428.074
-428.843
-429.575
-430.256
-430.495
-424.339
-418.835
-420.083
-420.982
-440.555
-433.586
-433.649
-433.576
-433.5
-433.519
-433.524
-433.617
-433.918
-434.188
-434.296
-434.415
-434.541
-434.653
-434.733
-434.677
-434.121
-434.226
-434.697
-434.971
-449.263
-444.335
-444.015
-443.724
-443.574
-443.547
-443.507
-443.419
-443.382
-443.444
-443.522
-443.61
-443.707
-443.81
-443.911
-443.983
-443.967
-444.015
-444.195
-444.35
-458.901
-453.962
-453.809
-453.648
-453.532
-453.466
-453.418
-453.371
-453.348
-453.367
-453.414
-453.478
-453.55
-453.628
-453.704
-453.767
-453.81
-453.867
-453.96
-454.06
-468.666
-463.672
-463.591
-463.502
-463.426
-463.369
-463.326
-463.293
-463.277
-463.283
-463.311
-463.353
-463.406
-463.465
-463.526
-463.585
-463.64
-463.698
-463.767
-463.844
-478.468
-473.456
-473.398
-473.346
-473.298
-473.258
-473.226
-473.203
-473.192
-473.196
-473.214
-473.243
-473.282
-473.328
-473.379
-473.432
-473.486
-473.543
-473.604
-473.67
-488.283
-483.274
-483.229
-483.198
-483.168
-483.142
-483.121
-483.107
-483.101
-483.104
-483.118
-483.141
-483.171
-483.209
-483.252
-483.3
-483.351
-483.405
-483.462
-483.523
-498.111
-493.11
-493.083
-493.063
-493.043
-493.027
-493.014
-493.006
-493.005
-493.01
-493.023
-493.042
-493.068
-493.101
-493.139
-493.183
-493.23
-493.281
-493.336
-493.394
-507.94
-502.971
-502.949
-502.935
-502.923
-502.913
-502.907
-502.904
-502.906
-502.914
-502.927
-502.946
-502.97
-503
-503.036
-503.077
-503.122
-503.171
-503.224
-503.281
-517.727
-512.816
-512.81
-512.806
-512.802
-512.799
-512.798
-512.801
-512.806
-512.816
-512.83
-512.85
-512.875
-512.905
-512.94
-512.98
-513.024
-513.073
-513.126
-513.185
-527.476
-522.65
-522.67
-522.678
-522.681
-522.684
-522.688
-522.694
-522.703
-522.715
-522.732
-522.753
-522.779
-522.81
-522.845
-522.885
-522.93
-522.979
-523.034
-523.093
39651.4
38026.8
37368.6
38610.1
42853.2
49134.2
56295.9
63108
68539.6
71916
72905.5
71392.7
67179.5
59477.2
45452.8
47673.5
32106.3
27858.5
28415.4
32044.4
37692.1
44308.2
50680.3
55780.3
58934.6
59816.8
58307.4
54284.9
47438.3
37446
55729.5
37346.6
27222.9
24140.8
25704.6
30124
35761.9
41271.7
45627.1
48218.2
48793.6
47316.7
43825.4
38391.2
31286.6
57759.1
45592.3
35761.7
29992.6
28209.2
29390.3
32285.9
35495.1
38058.4
39419.1
39330.7
37740.4
34691.1
30297.8
24831.4
55850.4
47796.3
40497.9
35062.3
31876.7
30687.9
30879.9
31615.1
32194.6
32156.6
31238.8
29326.9
26408.1
22570
18039
51807.1
46079.4
40569
35916.6
32443.4
30137.9
28723.6
27771.8
26856.8
25651.6
23942.5
21617.2
18651.8
15110.6
11141
46141.5
41914.9
37648
33709
30324.6
27540.1
25233.3
23207.6
21251.3
19186.9
16878.5
14230.8
11195.8
7774.26
4066.28
39292
36045.9
32646.5
29267.3
26030.4
22992.4
20166.6
17525.2
14994.7
12467.2
9822.2
6943.54
3824.12
962.697
-60.0585
31550.2
28844.8
25908
22808.4
19686.6
16636.1
13722.1
10935.3
8204.54
5444.89
2744.64
556.495
-39.3196
-430.584
-371.299
22922.1
20450.5
17788.1
15002.6
12168
9324.54
6511.1
3792.37
1390.16
108.592
-249.697
-424.475
-379.778
-384.308
-387.409
13832.4
11615.5
9230.41
6682.52
4208.29
1829.15
372.547
-20.6026
-441.896
-398.197
-390.088
-397.259
-397.534
-397.148
-396.911
4631.47
2790.57
1298.54
459.088
-140.557
-446.903
-408.014
-400.96
-404.672
-406.834
-406.871
-406.918
-406.689
-406.583
-406.568
-351.008
-437.559
-431.799
-407.479
-411.256
-414.703
-416.145
-417.039
-416.531
-416.384
-416.211
-416.236
-416.244
-416.248
-416.261
-421.783
-425.797
-426.093
-425.811
-426.207
-425.854
-425.799
-425.818
-425.813
-425.829
-425.829
-425.86
-425.9
-425.942
-425.985
-434.718
-434.9
-435.11
-435.087
-435.225
-435.258
-435.311
-435.358
-435.399
-435.444
-435.492
-435.552
-435.617
-435.682
-435.744
-444.411
-444.521
-444.645
-444.725
-444.813
-444.88
-444.945
-445.007
-445.073
-445.143
-445.219
-445.298
-445.379
-445.458
-445.534
-454.146
-454.239
-454.334
-454.419
-454.501
-454.58
-454.657
-454.736
-454.819
-454.906
-454.996
-455.088
-455.178
-455.266