/*--------------------------------*- C++ -*----------------------------------*\
| =========                 |                                                 |
| \\      /  F ield         | OpenFOAM: The Open Source CFD Toolbox           |
|  \\    /   O peration     | Version:  v1912                                 |
|   \\  /    A nd           | Website:  www.openfoam.com                      |
|    \\/     M anipulation  |                                                 |
\*---------------------------------------------------------------------------*/
FoamFile
{
    version     2.0;
    format      ascii;
    class       volScalarField;
    location    "20";
    object      p_rgh;
}
// * * * * * * * * * * * * * * * * * * * * * * * * * * * * * * * * * * * * * //

dimensions      [1 -1 -2 0 0 0 0];


internalField   nonuniform List<scalar> 
20320
(
432659
432738
432768
432823
432898
432989
433095
433213
433340
433474
433612
433750
433886
434017
434141
434255
434358
434451
434535
434582
432546
432648
432687
432744
432819
432911
433018
433137
433265
433400
433538
433677
433813
433945
434069
434182
434282
434362
434428
434478
432322
432464
432503
432561
432637
432730
432837
432956
433084
433219
433357
433495
433631
433762
433885
433998
434091
434161
434216
434266
432013
432196
432234
432291
432367
432459
432565
432683
432811
432945
433082
433219
433353
433482
433603
433713
433798
433859
433910
433963
431631
431849
431886
431943
432017
432108
432213
432330
432456
432588
432723
432858
432989
433116
433235
433339
433415
433471
433519
433577
431187
431434
431471
431526
431598
431687
431790
431904
432027
432156
432289
432420
432549
432673
432789
432886
432954
433004
433052
433113
430689
430961
430997
431050
431120
431206
431305
431415
431534
431659
431787
431915
432039
432159
432270
432358
432418
432464
432512
432577
430148
430440
430474
430524
430591
430673
430767
430872
430985
431104
431225
431346
431464
431578
431683
431761
431812
431853
431900
431969
429573
429880
429912
429959
430021
430097
430184
430282
430387
430497
430609
430721
430830
430935
431029
431095
431136
431170
431214
431286
428974
429290
429319
429362
429418
429486
429565
429652
429746
429844
429943
430042
430137
430229
430308
430358
430385
430409
430449
430522
428358
428680
428706
428743
428792
428850
428918
428992
429071
429152
429234
429313
429389
429461
429519
429547
429554
429562
429593
429667
427736
428059
428080
428110
428150
428197
428250
428307
428367
428427
428485
428538
428587
428630
428657
428653
428630
428614
428630
428701
427116
427434
427450
427473
427501
427534
427570
427607
427643
427675
427701
427720
427730
427732
427715
427664
427596
427541
427532
427592
426504
426815
426825
426839
426855
426872
426888
426900
426906
426904
426890
426862
426820
426764
426685
426565
426426
426309
426257
426294
425909
426208
426212
426216
426218
426217
426210
426195
426167
426123
426059
425972
425861
425726
425557
425336
425088
424869
424741
424730
425337
425621
425619
425612
425600
425579
425548
425501
425434
425342
425220
425061
424862
424620
424326
423956
423537
423147
422881
422769
424793
425059
425051
425034
425006
424966
424908
424828
424720
424576
424387
424144
423837
423460
422996
422412
421728
421042
420510
420183
424282
424529
424514
424486
424444
424384
424300
424187
424037
423838
423579
423243
422813
422272
421591
420714
419628
418432
417359
416528
423806
424032
424011
423974
423918
423839
423731
423587
423395
423144
422814
422384
421825
421102
420167
418920
417267
415222
413014
410851
423368
423573
423547
423501
423432
423336
423206
423033
422805
422506
422112
421596
420914
420014
418815
417165
414823
411542
407104
401198
106610
105986
105889
106267
106985
107512
107217
105952
104062
100921
95205.4
89711.8
85936
83679.7
83011.9
82479.7
81925.4
82082.5
81963.4
82756.5
83685.5
226214
316033
257885
194844
143988
105677
78570.9
60358.9
48581.1
41172.6
36610.9
33834.7
32195.1
31223.5
30639.3
30284.5
30057.5
29903
29793
29706.7
29624.8
29534.9
29436.4
29342.4
29273.5
29238.4
29233.7
29254.5
29296.8
29360.8
29446.6
29546.4
29648.8
29740.2
29806.9
29838.9
29826.4
29765.3
29670.9
106782
106294
106120
105667
107390
108205
108247
107251
105638
104005
100200
89862.9
81310.9
79249.9
78662.5
78169
77990.2
78051
78251.1
78626.9
79896.7
140274
250352
226937
180301
136257
101304
76053.9
58932.2
47814.3
40812.4
36537.7
33877.8
32295
31346.6
30771.2
30417.4
30190.5
30034.5
29920.7
29828
29738
29637.7
29526.3
29420.5
29339.8
29293.4
29280.4
29298.9
29345.2
29416.2
29508.9
29615.4
29724.8
29824.3
29901.6
29945.4
29944.6
29890.2
29783.7
106799
106482
105540
105197
107714
108412
108779
108252
107052
106739
91180.2
82001.6
80582.1
78927.4
78227.4
78023.9
77989
78024.5
78168.7
78454.2
79075.4
158696
212261
199604
164576
126750
95207.4
72106.3
56444
46316.5
39956.3
36047.3
33688.9
32264.2
31399.2
30866.7
30532.1
30311
30153.1
30035.5
29936.7
29840
29730.6
29605.2
29484.9
29394.5
29343.9
29328.7
29347.2
29396
29471.9
29571.4
29686.3
29805.8
29915.9
30005.2
30062.3
30074.3
30026.8
29902.2
106655
105851
105950
107524
107857
108377
108910
108794
107931
104287
85005.3
82378.5
82488.2
79014.2
78219.5
78056.1
77992.3
77994.6
78097
78298.6
78779.1
157236
180546
173594
146555
114249
86321.1
65905.7
52279.2
43631.7
38282.2
35039.7
33110.6
31948.9
31243.1
30805.4
30525.9
30332.1
30182.8
30071.4
29975.8
29883
29773.9
29636.7
29498.7
29398.4
29351.8
29341.8
29363.8
29414.3
29493.1
29600.3
29727.1
29861.3
29985.7
30089.4
30161.1
30187.8
30151.4
30022.4
106430
102781
106519
107098
107286
106691
108832
109029
108473
107058
103486
102804
100503
98811.5
78250.1
78009
77954.5
77950.9
78023.5
78195.1
99582.1
138447
152350
147496
125835
98256
74211.3
57180.6
46289.1
39678.7
35734.9
33413.1
32112.4
31344.2
30875.3
30590.9
30409.8
30269.7
30137.6
30044.7
29960.8
29884.7
29789.1
29640.5
29476.4
29362.3
29331.5
29336.2
29366.4
29417.5
29497.2
29614
29757.2
29912.8
30055.4
30177
30265
30309.2
30292
30183.4
106102
101727
106169
107099
107707
106572
108010
109103
108941
108123
106528
105374
104224
104087
92257.9
77958.8
77872.4
77909.4
77977.9
77782.7
112475
121155
128054
122252
103194
79088.2
58691
45439.8
37912.4
34049.8
32106.4
31083.1
30679.5
30448.6
30344.9
30297.7
30273.8
30228.4
30113.4
30056.3
29986.5
29941.9
29884.2
29720.3
29460.1
29201.2
29039.8
28794.4
28584.8
28251.5
27960.5
28099.3
28429.2
29053.3
29631
30196.9
30313.8
30374.3
30382
30351.7
105757
106145
102618
107033
107605
108347
105514
109155
109289
108966
108214
107604
107291
107744
107355
77664.3
77735.4
77872.7
77987.4
102914
106959
107600
107576
98840.3
79842.3
56197.6
37377
22468.8
11792.7
5595.24
2460.2
32.722
22.7513
16.0248
11.1399
7.48809
6.08719
12.0352
14.8605
10.3795
0.726566
-1.11202
-1.76314
-1.92841
-1.56166
-0.726695
-0.980394
-0.833912
-0.714312
-0.629519
-0.461299
-0.281211
-0.125431
0.0734832
0.435142
0.92356
1.32242
1.74256
2.04477
1.9377
105659
105908
90218.1
107006
107497
108124
108939
105690
108955
109647
109521
109516
109844
110789
113204
83536.2
77515.9
77845.1
77452.9
108710
101390
96542.8
90591.4
78145.2
53432.8
4757.85
128.354
107.749
88.4677
70.4807
55.2936
42.0688
30.5435
22.7308
16.6985
12.047
8.39702
5.69151
4.07759
3.10111
2.11576
0.933288
0.088608
-0.39489
-0.530629
-0.602546
-0.847319
-1.03317
-1.1525
-1.20117
-1.17259
-1.09897
-1.0022
-0.873183
-0.66325
-0.375244
-0.0511462
0.278926
0.536024
0.577187
105438
103948
103726
106999
107460
108010
108675
109476
108863
110003
110469
111043
111931
113170
115567
86895.7
77062.6
77718.1
112235
105917
96391.4
87386.7
76891
57130.9
89.551
133.165
118.188
95.8167
77.5058
61.4341
48.2503
38.027
28.7758
21.6258
16.0861
11.7819
8.42009
5.88572
4.2316
3.07559
2.06973
1.11027
0.327957
-0.240475
-0.575758
-0.731082
-0.919466
-1.06987
-1.1715
-1.21673
-1.1902
-1.10634
-0.98329
-0.814028
-0.571709
-0.258407
0.0945777
0.454408
0.753513
0.89073
105295
104725
92304.1
107053
107455
107896
108368
109238
108131
110298
111073
112096
113613
115295
113026
75726.8
76412.5
76677.4
115555
103538
91869.4
79938.3
65318.2
1721.56
120.799
121.606
101.866
84.1796
68.8612
55.4056
44.0595
34.9567
27.0167
20.5997
15.5232
11.5222
8.38409
5.98749
4.28133
3.0536
2.05457
1.15562
0.403905
-0.168082
-0.552011
-0.788668
-0.985295
-1.14593
-1.26025
-1.3172
-1.30138
-1.21777
-1.08067
-0.889038
-0.630156
-0.303871
0.0699167
0.459298
0.813433
1.06978
105291
106103
78884.1
107175
107590
107951
107214
108866
109492
109648
111201
112707
114766
117578
120034
76024.1
76164.7
118740
113671
101101
87889.5
73814.9
17667.4
96.3476
102.296
97.9197
85.401
72.2584
59.9307
48.8529
39.2823
31.3561
24.6025
19.0205
14.5086
10.8992
8.04478
5.83239
4.18243
2.95318
1.96794
1.11823
0.398505
-0.169834
-0.577804
-0.857578
-1.07233
-1.24323
-1.36535
-1.42773
-1.41535
-1.32802
-1.17656
-0.964195
-0.68385
-0.336577
0.0634452
0.491375
0.908412
1.27547
86569.6
98294.7
97860.6
107177
107913
106265
87994.6
108915
109373
99927
100831
112088
115096
118781
126303
70187.4
69535.6
124101
111905
98708.3
84529
67066.5
80.8859
81.9789
82.9214
78.7683
70.5368
60.8107
51.1256
42.1647
34.2548
27.5481
21.8553
17.0947
13.1799
10.0053
7.46774
5.47193
3.93767
2.75683
1.80802
1.00228
0.314599
-0.240175
-0.655722
-0.957233
-1.18971
-1.3694
-1.49567
-1.55807
-1.54241
-1.44635
-1.28049
-1.04844
-0.745516
-0.374779
0.0548367
0.523976
1.00535
1.47482
92381.3
107333
106511
101662
108244
104508
92444.2
109062
108728
99913.1
100237
108366
114624
118281
126082
55126
109778
121616
110044
96605.4
81522.1
9367.67
66.8093
68.1308
66.6994
63.4984
57.66
50.4147
42.8814
35.7187
29.2731
23.7034
18.9581
14.9587
11.6299
8.90146
6.69734
4.93948
3.55372
2.45723
1.56617
0.810895
0.164121
-0.367601
-0.782048
-1.09674
-1.3408
-1.52569
-1.65342
-1.7119
-1.68714
-1.57907
-1.39749
-1.14468
-0.818559
-0.422997
0.0375579
0.549687
1.09433
1.65847
97058.2
82328.5
59122.2
37870
110059
109154
81393.7
109158
109485
110278
111449
112303
113626
116556
105604
54293.2
124374
120038
108373
94931.7
74706.8
56.4106
56.6449
55.736
54.029
51.2125
46.7941
41.2865
35.421
29.7297
24.5267
19.9648
16.0534
12.7356
9.95469
7.65859
5.78518
4.26936
3.04903
2.0609
1.24398
0.547769
-0.0508046
-0.552914
-0.956771
-1.27385
-1.52173
-1.70946
-1.83523
-1.88535
-1.84798
-1.72586
-1.5274
-1.25395
-0.90537
-0.484821
0.00737609
0.562162
1.16703
1.81715
110399
36064.1
31723.2
59150.2
111837
110103
78809.2
110144
109783
109630
110354
111341
112253
112987
58587.2
41057
126191
117994
107078
93466.9
11459.8
48.7439
47.8946
45.7587
43.8399
41.2624
37.7281
33.4369
28.834
24.3153
20.1371
16.4369
13.2427
10.5246
8.23894
6.34214
4.78004
3.49944
2.45055
1.58187
0.849908
0.218929
-0.32765
-0.793368
-1.17715
-1.48608
-1.73214
-1.91652
-2.03413
-2.07119
-2.02014
-1.88365
-1.66828
-1.37598
-1.00619
-0.561105
-0.038499
0.556589
1.21738
1.94423
109234
112539
107353
113757
112482
111138
75772.7
109919
33731.5
80041.1
103442
109995
110940
109084
34707.3
107428
123774
116677
106303
92508.9
70.5667
42.2471
40.0275
37.6369
35.5461
33.1502
30.203
26.77
23.1156
19.5168
16.1696
13.1865
10.6019
8.40105
6.54911
5.00741
3.72922
2.66955
1.7872
1.04121
0.399186
-0.162436
-0.654487
-1.07926
-1.43686
-1.73117
-1.96639
-2.13916
-2.24226
-2.26397
-2.19939
-2.04964
-1.81887
-1.50951
-1.1206
-0.652406
-0.101929
0.530369
1.24089
2.03568
15675.8
102211
112466
112666
112599
60697.8
38080.3
19456.7
15954.8
15941.1
16131
17547.1
25122.8
18713.7
27096.5
128534
123382
116268
106142
26934.8
32.6074
36.3437
33.1916
30.8485
28.7257
26.4932
23.9656
21.1553
18.215
15.3312
12.6483
10.2532
8.17813
6.41546
4.93509
3.70143
2.67434
1.8157
1.08957
0.463
-0.0875868
-0.578749
-1.01623
-1.39861
-1.72578
-1.99809
-2.2142
-2.36877
-2.45355
-2.45932
-2.38237
-2.2216
-1.97785
-1.65427
-1.24883
-0.760131
-0.18507
0.479895
1.23409
2.08777
15727.4
15604
15620.8
16474.8
15673.8
20797.7
16374.8
15859
15933.3
15978.9
16089.6
16258.3
16678.2
17615.5
30626.7
129257
123725
116750
106759
85.9969
28.8449
29.6077
27.2516
25.0952
23.0629
20.9995
18.7971
16.4527
14.0559
11.7281
9.57261
7.65475
5.99924
4.60022
3.43271
2.46142
1.65216
0.971816
0.387597
-0.126137
-0.588213
-1.00943
-1.39193
-1.73166
-2.0257
-2.27097
-2.46371
-2.59751
-2.6644
-2.65704
-2.56958
-2.3991
-2.1455
-1.81017
-1.39076
-0.885162
-0.288292
0.405393
1.19598
2.09952
15748.9
15650.4
15641.1
15645.6
15656.6
15665.4
15739.8
15826
15892.6
15950.1
16039.7
16194.7
16481.1
17181.5
101898
128492
124602
118068
72635.8
15.9924
26.7037
24.203
22.1712
20.2132
18.3274
16.4468
14.5146
12.5348
10.56
8.6651
6.92669
5.39129
4.07628
2.97579
2.06627
1.31505
0.691663
0.165374
-0.292589
-0.703405
-1.08214
-1.43626
-1.7645
-2.06159
-2.32136
-2.53752
-2.70639
-2.82056
-2.87243
-2.85468
-2.75873
-2.58129
-2.31996
-1.97537
-1.54544
-1.02588
-0.4108
0.306119
1.12719
2.07012
15815.5
15652.9
15645.5
15646.2
15656.9
15674.3
15720.3
15788.1
15850.4
15905
15972.2
16120.4
16251.7
15887.3
130004
129677
126394
120186
12580.7
23.1343
21.0795
19.4801
17.7867
16.0596
14.3556
12.6633
10.9717
9.28802
7.64395
6.09048
4.68219
3.45055
2.40988
1.55155
0.851722
0.281843
-0.186491
-0.582547
-0.930916
-1.25005
-1.55359
-1.84509
-2.12182
-2.37689
-2.6026
-2.79085
-2.93756
-3.03458
-3.07394
-3.0474
-2.94542
-2.76329
-2.49704
-2.14629
-1.70894
-1.17922
-0.550936
0.183206
1.02749
2.0001
15818.7
15649.7
15645.7
15646.9
15655.8
15672.8
15707.8
15760.5
15813
15858.5
15909.8
16062.1
16080.6
49661.4
134250
132746
129268
123907
41.5304
15.8519
16.4879
15.3747
14.001
12.5206
11.0177
9.52095
8.04801
6.61099
5.23322
3.95212
2.8049
1.8156
0.993123
0.327962
-0.203682
-0.626319
-0.967988
-1.25607
-1.51158
-1.75237
-1.98969
-2.22525
-2.45485
-2.67087
-2.86465
-3.02761
-3.15387
-3.23566
-3.26397
-3.22951
-3.12344
-2.93915
-2.67125
-2.31797
-1.87677
-1.34227
-0.70711
0.0375773
0.896853
1.88995
15660.9
15646.5
15643.5
15644.5
15651
15665.2
15693.5
15738
15782.4
15817.2
15860.2
15971
16038.2
127274
139224
136978
133058
57255.1
1.55168
12.7673
12.5685
11.8386
10.7534
9.51808
8.22054
6.91854
5.64607
4.41922
3.26066
2.19956
1.26158
0.464319
-0.185854
-0.698678
-1.09631
-1.40211
-1.64274
-1.84321
-2.02276
-2.19898
-2.38003
-2.56705
-2.75583
-2.93738
-3.1026
-3.24295
-3.35056
-3.41861
-3.43739
-3.39637
-3.28792
-3.10363
-2.83752
-2.48618
-2.0457
-1.51226
-0.876667
-0.128969
0.736379
1.73995
15652.3
15644.7
15640.8
15640.1
15643.2
15652.7
15674.8
15717.6
15759.9
15780.4
15890.2
15876.6
15551.9
147098
144902
141934
137657
5824.8
15.0416
9.4656
9.38786
8.8341
7.99909
6.98736
5.88912
4.77439
3.68357
2.63961
1.66519
0.784336
0.0147113
-0.629681
-1.14352
-1.53658
-1.82901
-2.04365
-2.20566
-2.33702
-2.45661
-2.58097
-2.71627
-2.8631
-3.0174
-3.16993
-3.31074
-3.43112
-3.52296
-3.57893
-3.58975
-3.5446
-3.4354
-3.25334
-2.99251
-2.64723
-2.21321
-1.68663
-1.05712
-0.313969
0.548337
1.55326
15655.5
15646.2
15639.1
15635.3
15634.6
15638
15651.2
15785.4
15961.6
15756.5
15837.4
15838.7
108585
153126
150839
147263
143580
4.8193
6.20345
6.58871
6.66812
6.31677
5.68942
4.87581
3.96317
3.02152
2.09518
1.21129
0.393654
-0.338143
-0.971708
-1.4928
-1.89851
-2.19822
-2.40963
-2.55396
-2.65565
-2.73485
-2.80894
-2.89319
-2.99299
-3.1085
-3.23469
-3.36352
-3.48444
-3.58797
-3.66668
-3.71293
-3.7175
-3.6707
-3.56284
-3.38588
-3.13314
-2.7978
-2.37585
-1.86178
-1.24524
-0.51487
0.336924
1.3334
15662
15651.4
15638.4
15631.1
15627.2
15625.1
15688.6
15968.2
15730
15792.6
15729.2
15596.9
162590
159845
156948
152852
45957.9
-0.68527
3.7399
4.22626
4.42822
4.23806
3.78234
3.1381
2.38902
1.60342
0.824117
0.0801492
-0.603546
-1.21119
-1.73187
-2.15287
-2.47223
-2.69876
-2.84825
-2.94001
-2.99672
-3.03771
-3.07923
-3.13404
-3.20778
-3.30028
-3.40525
-3.5154
-3.6204
-3.71064
-3.77916
-3.81784
-3.81817
-3.77174
-3.66782
-3.49871
-3.25668
-2.93479
-2.52975
-2.03389
-1.43721
-0.727239
0.105718
1.08553
16574
15653.4
15637.5
15627.4
15621.7
15617.5
15848
15909.8
15649.8
15773
15714.1
67813.5
168903
166599
163138
159087
557.651
2.12975
1.48481
2.35361
2.62137
2.55721
2.23604
1.73113
1.12248
0.472462
-0.178677
-0.800298
-1.36941
-1.87214
-2.29839
-2.63736
-2.88688
-3.05622
-3.15857
-3.21128
-3.23583
-3.25047
-3.26981
-3.30502
-3.36134
-3.43783
-3.52823
-3.62468
-3.7176
-3.79802
-3.8587
-3.89214
-3.89044
-3.84571
-3.74785
-3.58873
-3.35994
-3.05509
-2.67067
-2.19855
-1.62847
-0.94614
-0.140409
0.814075
16735.3
15652.2
15630.9
15622.3
15617
15615
15622
15646.2
15648.4
15670
15734.9
168245
176117
173308
169318
138028
-17.5382
0.992664
0.266671
0.932071
1.22109
1.2333
1.00772
0.612855
0.120484
-0.414973
-0.955121
-1.47107
-1.94278
-2.35664
-2.70319
-2.97376
-3.16639
-3.29021
-3.35606
-3.38058
-3.38362
-3.38131
-3.38696
-3.411
-3.45727
-3.52375
-3.6048
-3.69191
-3.77635
-3.84996
-3.90507
-3.93534
-3.93342
-3.8913
-3.8008
-3.65315
-3.43953
-3.15475
-2.79436
-2.35087
-1.8133
-1.16571
-0.396053
0.524994
16794.2
16767
15607.9
15612.9
15611.3
15610.7
15615.7
15630.3
15681.4
15653.9
32997.4
185790
183378
179980
175619
25440.9
5.51912
-1.64516
-0.680087
-0.122468
0.164185
0.213607
0.051966
-0.259818
-0.658624
-1.09798
-1.54395
-1.97026
-2.35902
-2.69733
-2.97658
-3.18937
-3.33569
-3.42273
-3.45983
-3.46407
-3.45367
-3.4417
-3.4405
-3.4603
-3.50218
-3.56326
-3.63867
-3.71976
-3.79851
-3.86725
-3.91902
-3.94773
-3.94645
-3.90772
-3.82475
-3.68921
-3.49232
-3.22934
-2.89596
-2.48542
-1.98545
-1.37978
-0.654485
0.224579
15921.6
15753.4
15583.2
15599.8
15604.7
15606.1
15645.6
15623.1
15655
15661.4
174870
193314
190471
186577
183242
-2.15404
-2.14661
-2.06373
-1.32199
-0.87425
-0.610612
-0.55174
-0.675596
-0.925214
-1.25075
-1.61176
-1.97937
-2.33053
-2.64912
-2.92397
-3.14659
-3.31088
-3.41891
-3.47572
-3.4903
-3.48036
-3.46216
-3.44628
-3.44384
-3.46371
-3.5046
-3.56346
-3.63552
-3.71255
-3.78725
-3.85205
-3.90164
-3.92988
-3.92934
-3.89432
-3.81834
-3.69453
-3.51503
-3.27474
-2.97044
-2.59563
-2.13792
-1.58085
-0.907745
-0.0808892
15610.1
15563.5
15574.6
15590
15598.2
15602.7
15646.8
15643.9
15632.5
25568.1
203358
200859
197441
193156
82830.2
-10.5751
-3.32374
-2.46946
-1.80116
-1.39781
-1.16422
-1.11283
-1.21528
-1.42077
-1.68904
-1.98788
-2.29221
-2.58081
-2.84157
-3.0633
-3.23851
-3.3628
-3.43891
-3.47064
-3.46829
-3.44961
-3.42753
-3.41212
-3.41242
-3.43408
-3.47549
-3.53311
-3.60236
-3.67592
-3.74705
-3.808
-3.85503
-3.88245
-3.88246
-3.85046
-3.78076
-3.66763
-3.50482
-3.28727
-3.01261
-2.67465
-2.26235
-1.75983
-1.14764
-0.384795
15575.4
15569.1
15573.1
15583.5
15592.7
15605.5
15623.7
15616.4
15640.6
190057
211075
208172
204321
200293
3145.13
3.01605
-3.37105
-2.57116
-2.08928
-1.7396
-1.54618
-1.51283
-1.60583
-1.78086
-2.00541
-2.25515
-2.50798
-2.74704
-2.96025
-3.1381
-3.27419
-3.36593
-3.41573
-3.42802
-3.41463
-3.39157
-3.36923
-3.35779
-3.36282
-3.38614
-3.42724
-3.48222
-3.54731
-3.6165
-3.68258
-3.73896
-3.78195
-3.80672
-3.80626
-3.7761
-3.71164
-3.60801
-3.46017
-3.26392
-3.01732
-2.71567
-2.34991
-1.90631
-1.36491
-0.680811
15583.8
15569.6
15572.6
15580.1
15587.5
15600.6
15619.1
15614.3
47587.2
221287
218783
215310
211130
172747
-20.1073
-2.44671
-3.27607
-2.65709
-2.24319
-1.94749
-1.80041
-1.79155
-1.88199
-2.0351
-2.22758
-2.43853
-2.65077
-2.84993
-3.02452
-3.16659
-3.27138
-3.33736
-3.36682
-3.36537
-3.34646
-3.32401
-3.30705
-3.30176
-3.31058
-3.33365
-3.37141
-3.42086
-3.47873
-3.54051
-3.59876
-3.6485
-3.68549
-3.70502
-3.70216
-3.67212
-3.61145
-3.51575
-3.38056
-3.20297
-2.98114
-2.71302
-2.39209
-2.00836
-1.54663
-0.961073
15575.5
15568.8
15571.6
15576.1
15582.4
15591
15611
15626.8
223553
229215
226206
222339
218119
25013.6
0.495014
-4.60211
-3.38625
-2.73304
-2.32681
-2.07262
-1.96763
-1.98086
-2.07093
-2.2094
-2.3774
-2.55925
-2.73974
-2.9064
-3.04972
-3.1637
-3.24383
-3.28962
-3.30402
-3.29397
-3.27481
-3.25966
-3.25249
-3.25307
-3.26324
-3.28367
-3.31505
-3.35595
-3.40325
-3.45379
-3.50095
-3.54076
-3.56921
-3.58118
-3.57338
-3.5413
-3.48209
-3.39201
-3.2668
-3.10448
-2.9032
-2.66342
-2.38153
-2.05286
-1.67334
-1.2125
15565.5
15566.5
15568.5
15573.2
15578.2
15597.1
15613.5
153174
239569
236970
233424
229342
225491
-11.7321
-4.36802
-4.41873
-3.32979
-2.73127
-2.35349
-2.14234
-2.07581
-2.10764
-2.1985
-2.32536
-2.47492
-2.63466
-2.78959
-2.92972
-3.04823
-3.1398
-3.20103
-3.23111
-3.23422
-3.22164
-3.21138
-3.20381
-3.19919
-3.19915
-3.20589
-3.22136
-3.24582
-3.27864
-3.31702
-3.35689
-3.39267
-3.42084
-3.43839
-3.44103
-3.4256
-3.38851
-3.32764
-3.24006
-3.1219
-2.971
-2.78563
-2.56736
-2.31507
-2.02846
-1.71715
-1.41315
15562.4
15563.9
15565.7
15570.7
15580.7
15571.6
31895.2
249928
247590
244376
240577
236567
42258.5
0.184186
-4.4526
-3.83286
-3.12799
-2.65262
-2.33715
-2.18027
-2.14803
-2.19396
-2.2838
-2.4014
-2.53707
-2.67804
-2.812
-2.93117
-3.02962
-3.10316
-3.14927
-3.16779
-3.16708
-3.16035
-3.15221
-3.14565
-3.14116
-3.13982
-3.14235
-3.15228
-3.17005
-3.19396
-3.22148
-3.24861
-3.27215
-3.28856
-3.29468
-3.28821
-3.26489
-3.22101
-3.15576
-3.06743
-2.95265
-2.80851
-2.63397
-2.43055
-2.19748
-1.9338
-1.64628
-1.38917
15559.7
15561.8
15563
15567.6
15583.8
15556
257729
258068
255171
251611
247795
245566
-10.3959
-3.96665
-4.26029
-3.48054
-2.9558
-2.56268
-2.31198
-2.20567
-2.20016
-2.25356
-2.34087
-2.45141
-2.57481
-2.6998
-2.817
-2.91934
-3.00112
-3.06013
-3.09488
-3.10678
-3.10446
-3.09809
-3.0916
-3.08571
-3.08123
-3.0777
-3.07668
-3.08163
-3.09339
-3.10971
-3.12822
-3.1454
-3.15862
-3.16443
-3.15864
-3.13977
-3.10423
-3.05
-2.97714
-2.88423
-2.76862
-2.62691
-2.45861
-2.26466
-2.0436
-1.79192
-1.50159
-1.13203
15555.6
15560.3
15561.8
15566.5
15559.8
238891
268470
265803
262487
258932
255311
44708.8
-5.48717
-5.28661
-4.22089
-3.38014
-2.86436
-2.50914
-2.30769
-2.23487
-2.2441
-2.29902
-2.38251
-2.48564
-2.59754
-2.709
-2.8122
-2.90014
-2.96865
-3.0169
-3.04128
-3.04495
-3.04093
-3.03582
-3.03041
-3.02495
-3.01996
-3.01416
-3.01058
-3.01167
-3.018
-3.02744
-3.03756
-3.04619
-3.05058
-3.04736
-3.03272
-3.00598
-2.96393
-2.90409
-2.8253
-2.72636
-2.60561
-2.45872
-2.28746
-2.09487
-1.87899
-1.6376
-1.36853
-1.07981
15604.5
15557.9
15561.3
15554.9
225970
278722
276285
273212
269873
266443
255876
-17.9156
-6.56534
-5.75672
-4.19388
-3.34611
-2.82321
-2.49647
-2.32903
-2.27498
-2.28844
-2.34028
-2.41728
-2.51164
-2.61271
-2.71223
-2.80223
-2.87799
-2.93648
-2.97357
-2.98292
-2.98189
-2.97857
-2.97395
-2.96909
-2.96384
-2.95821
-2.95072
-2.94477
-2.94306
-2.94437
-2.94725
-2.95007
-2.95124
-2.94812
-2.93735
-2.91576
-2.88275
-2.83564
-2.77204
-2.69121
-2.59226
-2.47399
-2.33332
-2.17112
-1.98862
-1.78408
-1.5596
-1.32481
-1.11365
15565.3
15553.4
15549.3
249146
288872
286560
283750
280655
277507
274521
28645.7
0.304145
-7.02725
-5.20419
-4.00502
-3.2572
-2.7828
-2.50123
-2.3634
-2.31901
-2.33137
-2.37771
-2.44753
-2.53294
-2.62375
-2.712
-2.79059
-2.85621
-2.90461
-2.92179
-2.92215
-2.92052
-2.9176
-2.91312
-2.90854
-2.90329
-2.89659
-2.88766
-2.87971
-2.8754
-2.87217
-2.86923
-2.86575
-2.86043
-2.85092
-2.83378
-2.80675
-2.76921
-2.71903
-2.65305
-2.57142
-2.47456
-2.36046
-2.22795
-2.07811
-1.91285
-1.73277
-1.54097
-1.34826
-1.18292
74144.5
49129.8
300550
299064
296863
294269
291455
288545
285442
192162
-19.6327
-4.69667
-5.63641
-4.55785
-3.76006
-3.1792
-2.7891
-2.55755
-2.43816
-2.39313
-2.3967
-2.43201
-2.49031
-2.5621
-2.63937
-2.71421
-2.78081
-2.835
-2.8624
-2.86467
-2.86393
-2.86196
-2.85853
-2.85434
-2.8496
-2.8442
-2.83629
-2.82615
-2.8166
-2.80906
-2.80191
-2.79409
-2.78496
-2.77381
-2.75843
-2.73611
-2.70541
-2.66462
-2.61248
-2.54604
-2.46512
-2.37138
-2.26265
-2.13904
-2.0021
-1.85403
-1.69699
-1.53427
-1.37638
-1.24494
422969
423153
423121
423068
422988
422878
422730
422533
422274
421935
421490
420902
420121
419073
417650
415653
412687
408102
400537
386989
422599
422768
422733
422673
422584
422462
422299
422084
421802
421433
420951
420314
419467
418326
416765
414574
411318
406180
397629
382796
422256
422410
422371
422306
422211
422080
421906
421677
421379
420992
420488
419826
418950
417778
416187
413993
410862
406180
399030
388170
421943
422081
422040
421971
421871
421734
421552
421316
421010
420615
420104
419441
418574
417427
415899
413847
411057
407150
401582
393792
421661
421782
421740
421669
421566
421426
421241
421002
420694
420302
419799
419154
418322
417242
415833
413991
411586
408418
404196
398677
421410
421516
421473
421401
421298
421157
420972
420735
420432
420049
419565
418951
418171
417179
415912
414298
412255
409688
406467
402471
421191
421281
421239
421168
421065
420926
420745
420513
420221
419853
419393
418818
418098
417199
416076
414677
412949
410844
408316
405314
421004
421079
421038
420969
420869
420734
420559
420337
420057
419709
419276
418742
418084
417275
416282
415071
413605
411856
409807
407448
420846
420907
420869
420804
420709
420580
420413
420202
419938
419611
419208
418716
418116
417389
416510
415454
414196
412715
410998
409040
420714
420766
420733
420673
420583
420462
420306
420110
419865
419561
419189
418736
418189
417529
416736
415789
414665
413340
411796
410022
420596
420653
420631
420577
420491
420378
420236
420052
419816
419520
419157
418719
418191
417560
416807
415914
414860
413626
412197
410564
420441
420569
420569
420509
420417
420309
420172
419987
419746
419443
419078
418642
418125
417512
416790
415951
414961
413787
412454
410968
290048
420550
420540
420435
420336
420238
420116
419936
419680
419354
418974
418413
416769
412365
402767
384854
354277
303176
218971
120349
-8.33055
25755.1
19825.1
8484.63
5633.81
8936.51
8813.79
5439.99
-1.64718
-2.68301
-3.1119
-3.79114
-4.56043
-5.29277
-5.97325
-6.21247
-0.0569047
5.44787
4.19968
3.30024
-1.55736
0.506697
0.443666
0.516463
0.592349
0.573362
0.56881
0.475784
0.174557
-0.0957451
-0.203505
-0.322606
-0.448858
-0.56031
-0.640802
-0.584982
-0.0284681
-0.133988
-0.604693
-0.878035
-0.455357
-0.432473
-0.112505
0.178208
0.328212
0.355002
0.395533
0.483122
0.520473
0.458746
0.38031
0.292004
0.195018
0.0925099
-0.00829505
-0.080213
-0.06413
-0.112414
-0.292954
-0.447332
-0.283009
-0.249688
-0.0964444
0.0647875
0.180944
0.246168
0.294551
0.341233
0.364637
0.345365
0.298198
0.234956
0.162151
0.084753
0.00891028
-0.0545138
-0.097093
-0.154147
-0.247136
-0.347013
-0.23849
-0.149866
-0.0689991
0.0202152
0.0968845
0.153484
0.196439
0.229352
0.245785
0.239088
0.211742
0.169201
0.116475
0.0576526
-0.00350075
-0.0624965
-0.117099
-0.175345
-0.244824
-0.321292
-0.230567
-0.123619
-0.0650012
-0.0130153
0.0349311
0.074916
0.106549
0.129261
0.140183
0.136682
0.118956
0.0891362
0.0500664
0.00427061
-0.0463043
-0.0994259
-0.153576
-0.21009
-0.27126
-0.337464
-0.235125
-0.131111
-0.086234
-0.0550887
-0.025394
0.000615809
0.0215351
0.0358776
0.0418677
0.0381757
0.0246001
0.00182043
-0.02887
-0.0662467
-0.109441
-0.15726
-0.208306
-0.262037
-0.319037
-0.380207
-0.25388
-0.157518
-0.13094
-0.110012
-0.0909839
-0.0744307
-0.0615878
-0.053823
-0.0521579
-0.0574361
-0.0700017
-0.0896395
-0.115894
-0.14836
-0.186722
-0.230299
-0.277909
-0.328787
-0.38317
-0.441767
-0.272409
-0.208898
-0.186942
-0.17216
-0.160264
-0.150712
-0.144224
-0.141704
-0.143738
-0.151046
-0.164162
-0.183072
-0.207621
-0.237779
-0.273463
-0.314188
-0.35919
-0.408062
-0.46107
-0.51898
-0.249458
-0.243367
-0.237189
-0.233109
-0.229333
-0.226495
-0.225816
-0.228002
-0.233587
-0.243359
-0.257999
-0.27775
-0.302545
-0.332414
-0.367379
-0.407155
-0.451404
-0.500035
-0.553436
-0.6122
-0.188608
-0.267683
-0.287424
-0.295131
-0.298546
-0.301295
-0.305282
-0.311416
-0.320344
-0.332869
-0.349628
-0.370957
-0.396914
-0.427531
-0.462878
-0.502918
-0.547574
-0.596842
-0.651113
-0.710734
336404
334779
334121
335363
339606
345887
353048
359860
365292
368668
369658
368145
363932
356230
342205
354236
338669
334421
334978
338607
344255
350871
357243
362343
365497
366379
364870
360847
354001
344008
372102
353719
343595
340513
342077
346496
352134
357644
362000
364591
365166
363689
360198
354764
347659
383942
371775
361944
356175
354392
355573
358468
361678
364241
365602
365513
363923
360874
356480
351014
391843
383789
376490
371055
367869
366680
366872
367608
368187
368149
367231
365319
362401
358562
354031
397610
391882
386371
381719
378246
375940
374526
373574
372659
371454
369745
367420
364454
360913
356944
401754
397527
393261
389322
385937
383153
380846
378820
376864
374799
372491
369843
366808
363387
359679
404714
401468
398069
394690
391453
388415
385589
382948
380417
377890
375245
372366
369247
366385
258441
406783
404077
401140
398041
394919
391869
388955
386168
383437
380677
377977
370040
207550
-55.3517
3.93378
407965
405493
402831
400045
397210
394367
391554
388835
386433
334034
103600
-39.4325
5.26404
0.734025
-2.36619
408685
406468
404083
401535
399061
396682
359842
192475
-47.044
-3.34437
4.76464
-2.40655
-2.68113
-2.29501
-2.05829
409294
407394
385276
291907
119119
-42.2406
-3.35159
3.7022
-0.00953265
-2.17172
-2.20808
-2.25551
-2.02626
-1.92081
-1.90561
27046.4
-23.0867
-17.3268
6.9935
3.21652
-0.230186
-1.67237
-2.56691
-2.05826
-1.91177
-1.73892
-1.76324
-1.77195
-1.7753
-1.78855
2.49999
-1.51467
-1.8109
-1.52881
-1.92414
-1.57159
-1.516
-1.53548
-1.53056
-1.547
-1.5469
-1.57782
-1.61787
-1.65982
-1.70216
-0.625282
-0.807211
-1.01762
-0.994088
-1.13234
-1.16521
-1.21862
-1.26565
-1.30682
-1.35156
-1.39985
-1.45919
-1.52412
-1.58917
-1.65142
-0.50819
-0.618523
-0.742864
-0.822144
-0.910817
-0.977809
-1.04201
-1.10488
-1.17051
-1.24092
-1.31605
-1.39552
-1.47664
-1.55595
-1.63116
-0.43308
-0.526411
-0.621301
-0.706046
-0.788858
-0.867211
-0.944715
-1.0237
-1.1064
-1.19343
-1.28366
-1.37516
-1.46592
-1.55365
-1.63652
-0.400332
-0.485921
-0.571656
-0.655443
-0.739198
-0.823706
-0.910188
-1.00009
-1.09421
-1.19161
-1.29024
-1.38825
-1.484
-1.5757
-1.66201
-0.409133
-0.489083
-0.570879
-0.654281
-0.740262
-0.82925
-0.92167
-1.01828
-1.11889
-1.22167
-1.324
-1.42432
-1.52153
-1.61416
-1.70125
-0.447405
-0.524107
-0.604344
-0.688289
-0.7765
-0.868577
-0.964454
-1.06444
-1.16771
-1.2722
-1.37532
-1.47539
-1.57154
-1.66231
-1.74686
-0.50679
-0.582171
-0.662132
-0.746828
-0.83656
-0.930875
-1.02904
-1.1306
-1.23438
-1.33761
-1.43802
-1.53472
-1.62746
-1.71545
-1.79786
-0.583974
-0.659985
-0.741268
-0.827558
-0.918427
-1.01316
-1.1108
-1.21058
-1.31184