/*--------------------------------*- C++ -*----------------------------------*\
| =========                 |                                                 |
| \\      /  F ield         | OpenFOAM: The Open Source CFD Toolbox           |
|  \\    /   O peration     | Version:  v1912                                 |
|   \\  /    A nd           | Website:  www.openfoam.com                      |
|    \\/     M anipulation  |                                                 |
\*---------------------------------------------------------------------------*/
FoamFile
{
    version     2.0;
    format      ascii;
    class       surfaceScalarField;
    location    "20";
    object      phi;
}
// * * * * * * * * * * * * * * * * * * * * * * * * * * * * * * * * * * * * * //

dimensions      [0 3 -1 0 0 0 0];
oriented        oriented;


internalField   nonuniform List<scalar> 
40282
(
0.00278509
0.00263335
1.93144
-1.9381
1.93253
0.00557355
-1.92347
1.91139
0.0120738
-1.89637
1.87832
0.0180506
-1.85743
1.83377
0.0236613
-1.80728
1.77811
0.0291702
-1.74635
1.71199
0.0343566
-1.67516
1.63594
0.0392216
-1.59433
1.55047
0.0438623
-1.50441
1.4562
0.0482044
-1.40599
1.35386
0.0521301
-1.29987
1.2441
0.0557681
-1.18678
1.12786
0.058926
-1.06754
1.00613
0.0614102
-0.943523
0.880247
0.0632765
-0.816291
0.752223
0.0640677
-0.687894
0.623542
0.0643527
-0.55832
0.485741
0.072579
-0.401793
0.297124
0.104669
-0.170491
0.055291
0.1152
-0.00420835
0.0055795
1.8661
-1.86163
1.85472
-0.0140334
0.0209457
-1.84511
1.83275
-0.0254904
0.0378583
-1.81762
1.79976
-0.0367179
0.0545764
-1.77918
1.75593
-0.0476519
0.0708994
-1.73007
1.70162
-0.0583255
0.0867741
-1.67065
1.63719
-0.0686315
0.10209
-1.6013
1.56304
-0.078486
0.116746
-1.52245
1.47961
-0.0878243
0.130658
-1.43459
1.38743
-0.0965703
0.143724
-1.33826
1.28708
-0.104709
0.155892
-1.23397
1.17906
-0.112181
0.167098
-1.1223
1.06385
-0.118745
0.177189
-1.00381
0.942105
-0.124331
0.186033
-0.879036
0.814735
-0.128926
0.193227
-0.74922
0.683066
-0.131462
0.197616
-0.61642
0.547322
-0.132703
0.201802
-0.473733
0.396227
-0.147059
0.224565
-0.316929
0.239411
-0.187124
0.264641
-0.164946
0.0870035
-0.200254
0.278196
-0.00698554
0.00833097
1.79922
-1.79505
1.78827
-0.0280504
0.0348373
-1.77884
1.76677
-0.050426
0.062487
-1.7521
1.73482
-0.0725237
0.0898026
-1.71495
1.69252
-0.0941753
0.116605
-1.66756
1.64009
-0.115246
0.142715
-1.61015
1.57778
-0.135591
0.167958
-1.54303
1.50596
-0.155074
0.19215
-1.46661
1.42506
-0.173569
0.215122
-1.38136
1.33558
-0.190966
0.23674
-1.28781
1.23811
-0.207165
0.256864
-1.18658
1.13327
-0.222113
0.275416
-1.07828
1.02167
-0.235726
0.292331
-0.963524
0.90393
-0.247822
0.307416
-0.84301
0.780886
-0.257709
0.319833
-0.717729
0.653146
-0.264174
0.328756
-0.585825
0.514912
-0.273788
0.344701
-0.441104
0.366119
-0.302756
0.37774
-0.291757
0.219171
-0.340637
0.413224
-0.148045
0.0761088
-0.353549
0.425485
-0.00961364
0.0108888
1.73479
-1.73094
1.72453
-0.0415398
0.0479474
-1.71557
1.70407
-0.0744749
0.0859786
-1.69004
1.67349
-0.107031
0.123574
-1.65445
1.63294
-0.139002
0.160517
-1.60897
1.58258
-0.170173
0.19657
-1.55378
1.52263
-0.200342
0.231496
-1.48915
1.45338
-0.229287
0.265056
-1.41537
1.37517
-0.256806
0.297006
-1.33284
1.28844
-0.28271
0.327111
-1.24203
1.19369
-0.30683
0.355165
-1.1435
1.09155
-0.329033
0.380983
-1.03794
0.982773
-0.349237
0.404409
-0.926166
0.868271
-0.367206
0.425102
-0.809199
0.749066
-0.382007
0.442141
-0.687628
0.623905
-0.39396
0.457683
-0.557139
0.487772
-0.416282
0.485648
-0.417008
0.346072
-0.451952
0.522887
-0.275849
0.20668
-0.485212
0.554381
-0.13823
0.0695729
-0.496886
0.565543
-0.0121091
0.0133165
1.67266
-1.66901
1.66293
-0.0543103
0.0603942
-1.65442
1.64349
-0.097411
0.108342
-1.63015
1.61441
-0.140021
0.155759
-1.59628
1.57578
-0.181923
0.202424
-1.55293
1.52773
-0.222854
0.248047
-1.50023
1.47044
-0.262542
0.292333
-1.43839
1.40412
-0.300735
0.335006
-1.36766
1.32906
-0.337149
0.375749
-1.28836
1.24561
-0.371511
0.414261
-1.20087
1.15421
-0.403566
0.450232
-1.10568
1.05537
-0.433081
0.48339
-1.00337
0.949779
-0.459818
0.513405
-0.894743
0.838387
-0.483303
0.539659
-0.780837
0.722081
-0.50265
0.561406
-0.66153
0.598443
-0.522256
0.585343
-0.532943
0.465898
-0.555061
0.622106
-0.398261
0.330744
-0.593144
0.66066
-0.26375
0.19735
-0.62304
0.68944
-0.131299
0.0652525
-0.633745
0.699792
-0.0144646
0.0155942
1.61287
-1.60927
1.60354
-0.0664144
0.0721421
-1.59553
1.58524
-0.119156
0.129445
-1.57267
1.55782
-0.171347
0.186195
-1.5407
1.52133
-0.222744
0.242117
-1.4997
1.47584
-0.273045
0.296911
-1.44975
1.42144
-0.321935
0.350237
-1.39096
1.35831
-0.369099
0.401745
-1.32353
1.28665
-0.414203
0.451088
-1.2477
1.20672
-0.456911
0.497887
-1.16377
1.11889
-0.496857
0.541734
-1.07215
1.02361
-0.533733
0.582273
-0.973347
0.921472
-0.567122
0.618997
-0.868099
0.813339
-0.596259
0.65102
-0.757291
0.699724
-0.620619
0.678186
-0.639996
0.577906
-0.649091
0.71118
-0.514051
0.449263
-0.689124
0.753912
-0.384202
0.319275
-0.727816
0.792742
-0.254667
0.190357
-0.755446
0.819756
-0.126165
0.0620794
-0.765395
0.829481
-0.0166617
0.0177042
1.5549
-1.55187
1.54654
-0.0777765
0.0831008
-1.53909
1.52951
-0.139574
0.149154
-1.5178
1.50395
-0.200823
0.214672
-1.48797
1.46984
-0.261229
0.279352
-1.44958
1.42718
-0.320491
0.342889
-1.40265
1.376
-0.378245
0.4049
-1.34723
1.31635
-0.434114
0.46499
-1.28339
1.24835
-0.487731
0.522764
-1.21128
1.17219
-0.538676
0.577763
-1.13113
1.08812
-0.5865
0.629507
-1.04323
0.996506
-0.63079
0.677511
-0.948025
0.897884
-0.670955
0.721096
-0.846175
0.793004
-0.705991
0.759162
-0.738382
0.681904
-0.736245
0.792723
-0.623124
0.562282
-0.77376
0.834603
-0.500095
0.437242
-0.818776
0.881629
-0.374177
0.311153
-0.85759
0.920614
-0.248262
0.185455
-0.883776
0.946582
-0.122599
0.0598944
-0.893097
0.955801
-0.0186813
0.019626
1.49937
-1.4966
1.49173
-0.0882978
0.0931688
-1.48491
1.47612
-0.158518
0.167304
-1.46537
1.45264
-0.228218
0.240945
-1.43792
1.4212
-0.297116
0.313841
-1.40246
1.3817
-0.364885
0.385642
-1.35891
1.33408
-0.431136
0.455965
-1.30721
1.27828
-0.495464
0.52439
-1.24731
1.2143
-0.557431
0.590441
-1.17926
1.1422
-0.616553
0.65361
-1.10315
1.06212
-0.672308
0.713334
-1.01917
0.974324
-0.724139
0.76898
-0.927663
0.879263
-0.771273
0.819673
-0.829202
0.777576
-0.812519
0.864145
-0.724271
0.66883
-0.849689
0.90513
-0.611086
0.551511
-0.895868
0.955443
-0.490788
0.42945
-0.944723
1.00606
-0.367833
0.306119
-0.983816
1.04553
-0.24437
0.182539
-1.00923
1.07106
-0.120532
0.0587794
-1.0181
1.07985
-0.0205006
0.0213348
1.44572
-1.44306
1.4387
-0.0978779
0.102241
-1.43258
1.42469
-0.175807
0.183692
-1.41503
1.40355
-0.253284
0.264756
-1.39025
1.3751
-0.330096
0.345246
-1.35808
1.33917
-0.405871
0.424788
-1.31832
1.29553
-0.480241
0.50303
-1.27077
1.24403
-0.55277
0.579518
-1.21528
1.1845
-0.622948
0.65372
-1.1517
1.11687
-0.690245
0.725081
-1.08
1.04111
-0.754048
0.792936
-1.00022
0.957365
-0.81365
0.856508
-0.912592
0.865964
-0.868069
0.914697
-0.817554
0.767419
-0.915958
0.966093
-0.715336
0.660904
-0.961062
1.01549
-0.604186
0.545736
-1.01549
1.07394
-0.48615
0.425862
-1.06787
1.12815
-0.365149
0.30417
-1.10772
1.1687
-0.242994
0.181594
-1.13299
1.19439
-0.119929
0.0588284
-1.14165
1.20275
-0.0220947
0.0228059
1.39413
-1.39181
1.38801
-0.106404
0.110201
-1.38268
1.3758
-0.191226
0.198107
-1.36734
1.35727
-0.275746
0.285817
-1.34556
1.33217
-0.359802
0.373187
-1.31707
1.30021
-0.443037
0.4599
-1.28154
1.26104
-0.525111
0.545617
-1.23865
1.21433
-0.605555
0.629868
-1.18806
1.15977
-0.683828
0.712111
-1.12946
1.09708
-0.759344
0.791724
-1.06261
1.02606
-0.831382
0.867934
-0.987412
0.946676
-0.899099
0.939835
-0.903888
0.859086
-0.961269
1.00607
-0.812332
0.76363
-1.01642
1.06512
-0.712689
0.659211
-1.07043
1.12391
-0.603399
0.545795
-1.13298
1.19058
-0.486916
0.427141
-1.18918
1.24896
-0.366727
0.305847
-1.23053
1.29141
-0.244601
0.183006
-1.25629
1.31788
-0.121115
0.0604811
-1.26512
1.32576
-0.023439
0.0240152
1.34424
-1.34228
1.33912
-0.113756
0.116925
-1.33466
1.32889
-0.204564
0.210335
-1.32177
1.31326
-0.295301
0.303812
-1.30332
1.2919
-0.385844
0.397263
-1.27893
1.26437
-0.475935
0.490497
-1.24816
1.23022
-0.565231
0.583167
-1.2105
1.18893
-0.653275
0.674844
-1.16545
1.13998
-0.739529
0.764997
-1.11247
1.08287
-0.823333
0.852934
-1.05113
1.0172
-0.903869
0.937796
-0.98105
0.942667
-0.980163
1.01855
-0.902055
0.859221
-1.05073
1.09356
-0.814206
0.766955
-1.114
1.16125
-0.717155
0.664602
-1.1779
1.23045
-0.609545
0.552472
-1.24894
1.30601
-0.493842
0.434007
-1.30979
1.36962
-0.373238
0.31175
-1.35358
1.41507
-0.249701
0.187187
-1.38058
1.4431
-0.124399
0.0641883
-1.39021
1.45042
-0.0245104
0.0249411
1.29622
-1.29449
1.292
-0.11981
0.122294
-1.2885
1.28394
-0.215609
0.220169
-1.27828
1.27148
-0.311626
0.318422
-1.26349
1.25424
-0.407817
0.417072
-1.24365
1.23165
-0.504057
0.516058
-1.21816
1.20311
-0.600008
0.615064
-1.18639
1.16792
-0.695283
0.713754
-1.1476
1.12534
-0.789359
0.811619
-1.10105
1.07464
-0.881517
0.907929
-1.04602
1.01511
-0.970874
1.00178
-0.981842
0.946164
-1.05632
1.092
-0.908035
0.867428
-1.1361
1.17671
-0.824344
0.778675
-1.2086
1.25427
-0.730114
0.678503
-1.28351
1.33512
-0.624059
0.567195
-1.364
1.42086
-0.50832
0.447791
-1.43087
1.4914
-0.385917
0.322977
-1.47842
1.54136
-0.259227
0.194875
-1.50762
1.57197
-0.130287
0.0705763
-1.51892
1.57863
-0.0252892
0.0255664
1.25008
-1.24878
1.24702
-0.124457
0.126211
-1.24453
1.24127
-0.224163
0.227427
-1.23719
1.23224
-0.324419
0.329368
-1.22635
1.21945
-0.425325
0.432231
-1.21144
1.20225
-0.526881
0.53607
-1.19178
1.17992
-0.628812
0.640672
-1.16656
1.15157
-0.730845
0.745832
-1.13484
1.11624
-0.832491
0.851088
-1.09565
1.07293
-0.933023
0.955742
-1.04796
1.0206
-1.03153
1.05889
-0.990737
0.95827
-1.12678
1.15925
-0.923102
0.88515
-1.21679
1.25474
-0.844358
0.800575
-1.29988
1.34367
-0.753502
0.702962
-1.38717
1.43772
-0.649069
0.59213
-1.47881
1.53575
-0.532512
0.470585
-1.55376
1.61569
-0.406715
0.34128
-1.60689
1.67233
-0.274673
0.207279
-1.6396
1.707
-0.139708
0.080527
-1.65385
1.71304
-0.0257613
0.0258811
1.20525
-1.20459
1.20359
-0.127614
0.12861
-1.20216
1.20025
-0.230065
0.23197
-1.19783
1.19483
-0.333429
0.336433
-1.19117
1.18677
-0.438006
0.442406
-1.18154
1.17539
-0.543908
0.550058
-1.1682
1.15985
-0.651006
0.659361
-1.15019
1.1391
-0.759166
0.770256
-1.12643
1.11201
-0.867971
0.882387
-1.09569
1.07728
-0.976773
0.99518
-1.05662
1.03351
-1.08469
1.1078
-1.00779
0.979276
-1.19042
1.21893
-0.947809
0.913225
-1.2918
1.32638
-0.875389
0.834106
-1.3871
1.42838
-0.789073
0.740018
-1.48852
1.53758
-0.686872
0.629783
-1.59387
1.65096
-0.569049
0.505046
-1.67988
1.74388
-0.438207
0.369036
-1.74126
1.81043
-0.298126
0.226117
-1.77947
1.85148
-0.153793
0.0954548
-1.79825
1.85659
-0.0259212
0.0258845
1.16228
-1.16208
1.16185
-0.129233
0.129461
-1.16149
1.16097
-0.233206
0.233729
-1.16024
1.15923
-0.338479
0.339488
-1.15787
1.15607
-0.445569
0.447362
-1.15376
1.15082
-0.554705
0.557647
-1.14712
1.14254
-0.665981
0.670566
-1.13692
1.13012
-0.779414
0.786215
-1.12196
1.11227
-0.894735
0.904432
-1.10083
1.08743
-1.01147
1.02486
-1.07186
1.05387
-1.12885
1.14683
-1.03323
1.00968
-1.24559
1.26914
-0.982965
0.952823
-1.35951
1.38965
-0.919009
0.881275
-1.46879
1.50652
-0.839285
0.792604
-1.58649
1.63318
-0.740867
0.683961
-1.70913
1.76604
-0.622035
0.555422
-1.81055
1.87716
-0.484599
0.410213
-1.88425
1.95863
-0.333135
0.254423
-1.93114
2.00985
-0.174954
0.118072
-1.9574
2.01428
-0.0257736
0.025587
1.1208
-1.12087
1.12139
-0.129308
0.128786
-1.12208
1.12292
-0.233561
0.232722
-1.12386
1.12484
-0.3395
0.338525
-1.12578
1.12662
-0.447847
0.447009
-1.12726
1.12761
-0.558973
0.558626
-1.12753
1.1269
-0.673239
0.673871
-1.12557
1.12339
-0.790828
0.793015
-1.12016
1.11569
-0.911706
0.916176
-1.10975
1.10211
-1.03567
1.04331
-1.0925
1.08064
-1.16217
1.17403
-1.06621
1.0489
-1.29013
1.30744
-1.02836
1.00419
-1.41754
1.44171
-0.976012
0.943503
-1.54256
1.57507
-0.906275
0.863668
-1.67894
1.72155
-0.814885
0.759366
-1.82358
1.8791
-0.696938
0.627745
-1.94666
2.01586
-0.552192
0.471012
-2.03904
2.12022
-0.385396
0.297041
-2.10005
2.18841
-0.206837
0.151623
-2.13864
2.19385
-0.0253338
0.0250089
1.08081
-1.08148
1.08272
-0.127886
0.126655
-1.08441
1.08654
-0.231197
0.229064
-1.08907
1.09195
-0.336549
0.33367
-1.09512
1.09852
-0.444836
0.441436
-1.10208
1.10568
-0.556601
0.552992
-1.10924
1.11262
-0.67247
0.66909
-1.11569
1.11831
-0.792809
0.790189
-1.1203
1.12145
-0.917906
0.916754
-1.12154
1.12032
-1.0479
1.04912
-1.11751
1.11281
-1.1826
1.18731
-1.10585
1.09625
-1.32134
1.33093
-1.08358
1.06735
-1.46257
1.4788
-1.04702
1.02216
-1.60465
1.62951
-0.992342
0.956679
-1.76188
1.79754
-0.913807
0.862452
-1.93408
1.98544
-0.801798
0.731474
-2.08758
2.1579
-0.651493
0.562385
-2.20881
2.29792
-0.465483
0.363252
-2.29373
2.39596
-0.256777
0.201988
-2.35364
2.40842
-0.0246275
0.0241807
1.0421
-1.04317
1.04504
-0.125065
0.123192
-1.04764
1.05095
-0.226275
0.222965
-1.05494
1.05957
-0.329822
0.325189
-1.06481
1.0706
-0.436726
0.430931
-1.0769
1.08361
-0.547708
0.540996
-1.09065
1.09794
-0.663633
0.656346
-1.10537
1.1128
-0.785055
0.777621
-1.12009
1.12705
-0.912629
0.905665
-1.13349
1.13917
-1.04689
1.04121
-1.14384
1.14718
-1.18811
1.18476
-1.14886
1.14845
-1.33621
1.33661
-1.14551
1.13948
-1.49043
1.49646
-1.12972
1.11567
-1.64977
1.66381
-1.09694
1.07257
-1.82876
1.85313
-1.04065
0.998914
-2.0338
2.07553
-0.945456
0.878837
-2.22893
2.29554
-0.79801
0.702478
-2.39491
2.49044
-0.592781
0.471542
-2.52227
2.6435
-0.340709
0.280247
-2.62228
2.68274
-0.0236887
0.0231394
1.00487
-1.00646
1.00889
-0.12099
0.118562
-1.01228
1.01661
-0.21905
0.214713
-1.02188
1.02806
-0.319656
0.31348
-1.03512
1.04305
-0.423904
0.415973
-1.05181
1.06134
-0.532682
0.523152
-1.07159
1.0825
-0.64703
0.636114
-1.09402
1.10604
-0.767672
0.755651
-1.11845
1.13113
-0.895631
0.882953
-1.14392
1.15664
-1.03183
1.0191
-1.16909
1.18102
-1.17702
1.16509
-1.19214
1.20208
-1.33187
1.32193
-1.21044
1.21672
-1.49656
1.49028
-1.22027
1.22051
-1.67128
1.67104
-1.21715
1.20954
-1.87015
1.87775
-1.19566
1.17236
-2.11001
2.13332
-1.13635
1.0846
-2.35806
2.4098
-1.01416
0.922087
-2.59083
2.6829
-0.805734
0.664686
-2.79549
2.93653
-0.501538
0.417438
-2.98061
3.06471
-0.022557
0.0219265
0.969106
-0.970794
0.973678
-0.115844
0.11296
-0.977711
0.982893
-0.209843
0.204661
-0.989216
0.996676
-0.306502
0.299042
-1.00527
1.015
-0.406935
0.397205
-1.02585
1.0378
-0.512161
0.500216
-1.05082
1.06491
-0.623316
0.609226
-1.08004
1.09617
-0.741243
0.725111
-1.11325
1.1312
-0.867283
0.849334
-1.14994
1.16938
-1.00265
0.983209
-1.1894
1.20985
-1.14856
1.12811
-1.23055
1.25126
-1.30631
1.2856
-1.27171
1.29159
-1.47705
1.45717
-1.31044
1.32775
-1.66237
1.64505
-1.34351
1.35782
-1.87488
1.86056
-1.36953
1.3756
-2.14347
2.1374
-1.37202
1.35461
-2.44808
2.46549
-1.31889
1.25947
-2.76757
2.82699
-1.16903
1.03821
-3.10321
3.23403
-0.866007
0.770411
-3.48557
3.58117
0.02537
0.0295395
-0.0549095
0.0780136
-0.172824
0.0948106
0.2371
-0.286589
0.0494885
0.34841
-0.412221
0.0638102
0.467175
-0.526086
0.0589106
0.607259
-0.704532
0.0972728
0.806375
-0.905101
0.0987259
0.994617
-1.06795
0.0733284
1.12502
-1.17787
0.0528449
1.2456
-1.35043
0.104834
1.50168
-1.66989
0.168203
1.82435
-1.97157
0.147215
2.10112
-2.18196
0.0808401
2.24045
-2.3101
0.069646
2.3754
-2.41731
0.0419087
2.44401
-2.47441
0.0303916
2.52698
-2.6098
0.0828182
2.70417
-2.80216
0.097987
2.9175
-3.05349
0.135986
3.19922
-3.31067
0.111448
3.272
-3.1688
-0.103202
2.73072
-0.759647
-1.97108
-1.20302
2.56912
-1.3661
-3.49296
4.16446
-0.671509
-4.68021
5.08829
-0.408082
-5.41521
5.67763
-0.262416
-5.88752
6.05401
-0.16649
-6.18452
6.28532
-0.100803
-6.36173
6.41825
-0.0565217
-6.45879
6.48651
-0.0277203
-6.50413
6.51375
-0.00961656
-6.51729
6.51584
0.00145512
-6.51004
6.50166
0.00837954
-6.49144
6.47997
0.0114753
-6.46771
6.45504
0.0126779
-6.44218
6.42928
0.0128989
-6.41637
6.40342
0.012944
-6.39042
6.37737
0.0130523
-6.3643
6.35125
0.0130446
-6.33829
6.32546
0.0128285
-6.31281
6.30039
0.0124187
-6.28827
6.27648
0.0117825
-6.26509
6.25412
0.0109731
-6.24357
6.23341
0.0101585
-6.22362
6.21419
0.0094354
-6.20515
6.19656
0.00858789
-6.18849
6.18093
0.00756254
-6.17383
6.16708
0.00674981
-6.16054
6.15403
0.00651098
-6.14743
6.14064
0.00679035
-6.13364
6.12643
0.00721381
-6.11905
6.11155
0.00750473
-6.10399
6.0964
0.00758238
-6.08884
6.08127
0.00756882
-6.07369
6.06606
0.00763277
-6.05837
6.05055
0.00781927
-6.04263
6.03457
0.00805956
-6.02636
6.01819
0.00816461
-6.00974
6.00176
0.00797751
-5.99313
5.98529
0.00784115
-0.103957
0.179043
-0.0750867
0.114679
-0.160021
-0.156407
0.201749
0.20767
-0.252153
-0.0972365
0.141719
0.291913
-0.331136
-0.115068
0.154291
0.372358
-0.411791
-0.107371
0.146804
0.456647
-0.51339
-0.171087
0.22783
0.584677
-0.668026
-0.192775
0.276124
0.757764
-0.847433
-0.159274
0.248943
0.930508
-1.00148
-0.116492
0.18746
1.06035
-1.12323
-0.188529
0.251411
1.22699
-1.38076
-0.333962
0.48773
1.5587
-1.73318
-0.308908
0.483392
1.91033
-2.05102
-0.201786
0.342475
2.1831
-2.29386
-0.154323
0.265079
2.38487
-2.45817
-0.0945004
0.167801
2.51345
-2.56672
-0.0695918
0.122855
2.63631
-2.73166
-0.181142
0.276494
2.83682
-2.9385
-0.190697
0.292372
3.04143
-3.16187
-0.23635
0.356799
3.30295
-3.50195
-0.12909
0.328093
3.66286
-2.24982
0.926072
-2.33911
0.40736
0.934932
3.4233
-4.76559
-1.85406
2.71107
2.46124
-3.31826
-3.47276
4.11009
1.34095
-1.97827
-4.63438
5.06492
0.832319
-1.26286
-5.41835
5.70752
0.541152
-0.83032
-5.94229
6.13081
0.346521
-0.535044
-6.28032
6.3972
0.2118
-0.328685
-6.48699
6.55475
0.120473
-0.188233
-6.60468
6.64033
0.0608137
-0.0964644
-6.66469
6.68008
0.0232228
-0.0386083
-6.6884
6.69199
-0.000818433
-0.00277556
-6.6909
6.68689
-0.0139629
0.017968
-6.68067
6.67295
-0.0207275
0.0284449
-6.66431
6.65515
-0.0233714
0.0325309
-6.64579
6.6364
-0.0238959
0.0332787
-6.62711
6.61794
-0.0238604
0.033028
-6.60887
6.59988
-0.0238825
0.0328715
-6.59099
6.58221
-0.0237404
0.0325212
-6.57358
6.56517
-0.0232054
0.0316147
-6.55701
6.54918
-0.0222529
0.030088
-6.54173
6.53467
-0.0208703
0.0279274
-6.52801
6.52172
-0.0192787
0.0255704
-6.51572
6.50994
-0.0178007
0.0235787
-6.50429
6.49872
-0.0166202
0.0221922
-6.49323
6.48787
-0.0152713
0.0206283
-6.48272
6.47782
-0.0135521
0.0184567
-6.47313
6.46861
-0.0121701
0.0166928
-6.46414
6.45963
-0.0118069
0.0163249
-6.45496
6.45008
-0.0123948
0.0172738
-6.44495
6.43962
-0.01325
0.0185853
-6.43411
6.42847
-0.0138314
0.0194689
-6.42275
6.417
-0.0140255
0.0197833
-6.41119
6.40534
-0.0140828
0.0199333
-6.39941
6.39337
-0.014298
0.020341
-6.38718
6.3808
-0.0147669
0.0211397
-6.37422
6.3674
-0.0154044
0.0222209
-6.36038
6.35309
-0.0158883
0.0231721
-6.34578
6.33819
-0.0158922
0.0234816
-6.33086
6.32327
-0.0157058
0.0232946
-0.24877
0.30936
-0.0605902
0.114003
-0.152446
-0.240693
0.279135
0.193157
-0.227677
-0.180755
0.215275
0.249736
-0.269078
-0.183356
0.202698
0.29293
-0.321949
-0.179711
0.20873
0.350221
-0.381664
-0.269785
0.301228
0.420788
-0.470845
-0.342736
0.392794
0.532839
-0.604809
-0.332506
0.404476
0.681301
-0.752845
-0.260379
0.331923
0.806827
-0.831962
-0.292384
0.317519
0.847974
-0.969224
-0.617125
0.738375
0.868853
0.725924
-0.711878
-0.882899
-2.64215
3.70741
-0.230387
-0.83487
-3.50249
2.60666
-0.510875
1.4067
-1.55823
0.35738
-0.329565
1.53042
0.595429
-1.37496
-0.16788
0.947412
2.04214
-2.61147
-0.585076
1.15441
3.08316
-3.40769
-0.579054
0.903584
3.5321
-3.4275
-0.45962
0.355015
3.05104
-2.09022
-0.426272
-0.534546
-0.335283
1.52786
3.9545
-5.14708
-1.7994
2.27053
5.63427
-6.1054
-2.72265
3.22231
3.95966
-4.45933
-3.74727
4.25119
2.54756
-3.05148
-4.70658
5.10431
1.67845
-2.07618
-5.44359
5.72681
1.11733
-1.40054
-5.95895
6.14634
0.723564
-0.91096
-6.29465
6.41027
0.445517
-0.56113
-6.49898
6.56579
0.255964
-0.322772
-6.6152
6.65096
0.132404
-0.168169
-6.67606
6.69295
0.0548376
-0.0717197
-6.70344
6.70903
0.00711119
-0.0127025
-6.71103
6.71039
-0.0204257
0.0210642
-6.70789
6.70413
-0.0343474
0.0381084
-6.69958
6.6946
-0.0397497
0.0447313
-6.68946
6.68436
-0.0406353
0.0457415
-6.6794
6.67462
-0.0401067
0.04489
-6.66996
6.66537
-0.0397143
0.044303
-6.66083
6.65634
-0.0391614
0.0436512
-6.65197
6.64776
-0.0379251
0.0421399
-6.64373
6.63998
-0.0358448
0.0395945
-6.63657
6.63353
-0.032915
0.0359556
-6.63085
6.62843
-0.0298815
0.0323031
-6.62615
6.6239
-0.0275435
0.0297973
-6.62153
6.61895
-0.0261917
0.0287755
-6.61614
6.61319
-0.0247048
0.0276539
-6.61021
6.60725
-0.0223256
0.0252783
-6.60434
6.60143
-0.0203454
0.0232556
-6.59846
6.59532
-0.0200929
0.0232295
-6.59193
6.58827
-0.0214836
0.0251504
-6.58432
6.58012
-0.0232683
0.0274689
-6.57573
6.57122
-0.024461
0.0289747
-6.56662
6.56199
-0.0249012
0.029533
-6.55731
6.55257
-0.0251446
0.0298881
-6.54772
6.54273
-0.0257812
0.0307759
-6.53753
6.53215
-0.026939
0.0323278
-6.52649
6.52058
-0.0285028
0.0344174
-6.51438
6.50794
-0.0299487
0.0363826
-6.50134
6.49459
-0.0305766
0.0373218
-6.48802
6.48142
-0.030336
0.0369324
-0.361329
0.404155
-0.0428259
0.095241
-0.134984
-0.317474
0.357218
0.173812
-0.200292
-0.24438
0.27086
0.217078
-0.226305
-0.215286
0.224513
0.236468
-0.25108
-0.23068
0.245291
0.266748
-0.282658
-0.324062
0.339972
0.300206
-0.322635
-0.427268
0.449697
0.352472
-0.391544
-0.459596
0.498667
0.438228
-0.487079
-0.394428
0.44328
0.525518
-0.512757
-0.333317
0.320556
0.336038
-0.30423
0.00915188
-0.0409597
0.414747
-0.454207
0.574129
-0.534669
0.426153
-0.393917
0.785236
-0.817471
0.302618
0.397988
0.0372963
-0.737901
-1.78219
2.39551
-2.50846
1.89513
-1.83679
0.743781
-2.09762
3.19063
0.398745
-1.33648
-1.93921
2.87695
1.95112
-2.21657
-1.20632
1.47177
2.1132
-1.63539
-0.0618762
-0.415932
0.760959
0.383918
1.58189
-2.72676
-1.93274
2.91273
6.15811
-7.1381
-3.067
3.21593
6.3468
-6.49573
-3.4547
3.77166
4.8495
-5.16645
-4.13454
4.51675
3.48479
-3.867
-4.8884
5.23117
2.44365
-2.78642
-5.53263
5.78901
1.66975
-1.92612
-5.99994
6.1695
1.08943
-1.25899
-6.30255
6.40575
0.670639
-0.773844
-6.48457
6.54433
0.385931
-0.445698
-6.58914
6.62278
0.202499
-0.236132
-6.64786
6.66646
0.0889949
-0.107595
-6.67996
6.68967
0.0199049
-0.0296143
-6.69663
6.70158
-0.0193058
0.0143556
-6.70507
6.70749
-0.0390983
0.0366743
-6.70916
6.71031
-0.0468943
0.0457376
-6.71118
6.7119
-0.0480827
0.0473565
-6.71263
6.71339
-0.0469973
0.0462382
-6.71414
6.71474
-0.0463466
0.0457431
-6.71516
6.71542
-0.0457648
0.0455029
-6.71563
6.71582
-0.0441305
0.0439412
-6.71605
6.71634
-0.0412718
0.0409737
-6.71686
6.71765
-0.0370142
0.0362192
-6.71872
6.71993
-0.0328497
0.0316419
-6.72112
6.72211
-0.0303692
0.0293831
-6.72272
6.72279
-0.0299613
0.0298912
-6.72229
6.72136
-0.0295155
0.0304459
-6.7202
6.71889
-0.0273411
0.0286541
-6.71747
6.71591
-0.0254234
0.0269834
-6.71417
6.71216
-0.0257374
0.0277424
-6.70983
6.70712
-0.0282731
0.0309831
-6.70407
6.70073
-0.0311652
0.0345024
-6.69719
6.69352
-0.0330052
0.0366805
-6.68977
6.68598
-0.0336669
0.0374534
-6.68217
6.67828
-0.0341259
0.0380113
-6.67427
6.67007
-0.0352958
0.039494
-6.66567
6.66103
-0.0372636
0.0419018
-6.65612
6.65092
-0.0398951
0.0450979
-6.64542
6.63966
-0.042412
0.0481705
-6.63368
6.62762
-0.0436419
0.0497043
-6.62169
6.61601
-0.0429899
0.0486725
-0.440335
0.469719
-0.0293832
0.0727902
-0.111478
-0.397434
0.436121
0.142109
-0.167722
-0.296604
0.322218
0.184562
-0.192088
-0.232453
0.239978
0.195817
-0.199081
-0.25328
0.256545
0.202482
-0.206045
-0.349495
0.353059
0.210441
-0.216442
-0.462321
0.468322
0.225565
-0.240111
-0.523404
0.53795
0.260682
-0.28482
-0.477087
0.501226
0.305734
-0.31611
-0.321189
0.331565
0.313934
-0.335067
0.0513534
-0.03022
0.368769
-0.408673
0.497841
-0.457937
0.443955
-0.465728
0.817929
-0.796156
0.469406
-0.440822
0.848216
-0.8768
0.31785
0.637468
-0.553844
-0.401475
-1.7907
1.79614
-3.81092
3.80548
-1.00464
0.0516232
-3.85634
4.80936
0.566857
-0.712962
-1.68405
1.83016
0.367407
0.434906
1.05024
-1.85255
-1.55819
3.20664
4.78426
-6.43271
-3.66296
3.71138
7.21105
-7.25947
-3.73105
3.81288
6.59695
-6.67877
-3.97526
4.20266
5.42696
-5.65436
-4.47979
4.78371
4.20058
-4.50449
-5.09082
5.38039
3.0985
-3.38807
-5.63736
5.85528
2.16185
-2.37977
-6.03261
6.17335
1.41348
-1.55422
-6.28269
6.36818
0.867309
-0.952805
-6.43505
6.48812
0.50093
-0.554
-6.53077
6.56571
0.26924
-0.304178
-6.59492
6.61973
0.12829
-0.153101
-6.64072
6.65876
0.0427269
-0.0607718
-6.67459
6.68863
-0.00538946
-0.00865287
-6.70116
6.71241
-0.030184
0.0189375
-6.72241
6.73141
-0.0408433
0.0318427
-6.73956
6.74707
-0.0433097
0.0358075
-6.75408
6.76078
-0.0425021
0.0358076
-6.76714
6.77304
-0.0424566
0.0365535
-6.77835
6.78316
-0.0429028
0.0380941
-6.78764
6.79188
-0.0416486
0.0374046
-6.79587
6.79967
-0.0388208
0.03502
-6.80346
6.80739
-0.0337468
0.0298133
-6.81149
6.81563
-0.0288634
0.0247246
-6.81959
6.82316
-0.0270109
0.0234446
-6.82613
6.82828
-0.0287012
0.0265522
-6.82951
6.83003
-0.0305642
0.0300442
-6.83016
6.83001
-0.0293059
0.0294556
-6.82961
6.82894
-0.0280139
0.0286827
-6.82799
6.82672
-0.0293009
0.0305762
-6.82507
6.82299
-0.0333037
0.0353792
-6.82054
6.81777
-0.0374824
0.0402433
-6.81481
6.81168
-0.0400145
0.0431438
-6.80845
6.80522
-0.04089
0.0441234
-6.80196
6.79863
-0.0415395
0.0448641
-6.79514
6.79145
-0.0433605
0.0470584
-6.78751
6.78335
-0.0462175
0.0503766
-6.77891
6.77419
-0.0499777
0.0546929
-6.76917
6.7639
-0.0536012
0.0588761
-6.7584
6.75285
-0.0554366
0.0609921
-6.7474
6.74243
-0.0539249
0.0588933
-0.49555
0.518664
-0.0231143
0.0537581
-0.0786986
-0.469063
0.494003
0.104797
-0.131741
-0.348038
0.374983
0.147917
-0.154799
-0.247151
0.254033
0.156345
-0.154552
-0.256606
0.254813
0.149656
-0.14322
-0.351292
0.344857
0.138463
-0.136021
-0.469408
0.466966
0.135208
-0.137771
-0.545089
0.547652
0.14576
-0.160047
-0.519122
0.533409
0.179918
-0.204169
-0.349651
0.373902
0.233856
-0.276768
-0.00317987
0.0460919
0.327912
-0.383047
0.411257
-0.356122
0.439454
-0.490492
0.757941
-0.706904
0.528691
-0.547366
0.877137
-0.858461
0.537421
-0.463738
0.594281
-0.667964
-0.0853977
1.43253
-2.93168
1.58455
-1.56503
0.87298
-5.64557
6.33762
-0.414305
0.512717
-1.87313
1.77472
-1.1867
2.23321
2.84863
-3.89514
-3.72521
4.00434
7.21128
-7.49041
-4.03793
4.0549
7.27407
-7.29104
-4.0931
4.17711
6.75822
-6.84224
-4.31653
4.5076
5.85832
-6.04939
-4.73936
4.9946
4.77939
-5.03464
-5.25165
5.49234
3.65023
-3.89091
-5.70197
5.87428
2.57359
-2.7459
-6.01212
6.12099
1.67745
-1.78632
-6.2082
6.2818
1.03008
-1.10367
-6.34606
6.4032
0.606365
-0.663505
-6.45465
6.5012
0.342806
-0.389351
-6.54355
6.58216
0.1835
-0.222115
-6.61704
6.64862
0.0847452
-0.116332
-6.67725
6.70308
0.0282332
-0.0540703
-6.72637
6.74719
-0.00279938
-0.0180267
-6.76604
6.78283
-0.0188978
0.00210852
-6.79798
6.81154
-0.0251559
0.0115954
-6.82381
6.83514
-0.0265927
0.01527
-6.84575
6.8557
-0.0284466
0.0184987
-6.8648
6.873
-0.031458
0.0232563
-6.88057
6.8877
-0.0315778
0.0244481
-6.89439
6.90058
-0.0299052
0.0237126
-6.90644
6.91219
-0.0248248
0.0190779
-6.91794
6.92366
-0.0196231
0.0139048
-6.92912
6.93409
-0.0190262
0.0140553
-6.93844
6.94194
-0.0236594
0.0201566
-6.94426
6.94559
-0.029046
0.0277193
-6.94644
6.94686
-0.0292348
0.0288149
-6.94685
6.9464
-0.0291307
0.0295754
-6.94557
6.94439
-0.0316897
0.0328735
-6.94288
6.94104
-0.0372575
0.0390993
-6.93887
6.93645
-0.0427855
0.0452082
-6.93382
6.93103
-0.0460669
0.0488567
-6.92812
6.92514
-0.0471849
0.0501664
-6.9221
6.91896
-0.0480292
0.0511681
-6.91564
6.91206
-0.0506298
0.0542076
-6.90823
6.90415
-0.0544105
0.0584964
-6.89983
6.89531
-0.0592434
0.0637628
-6.89059
6.88566
-0.0639236
0.0688516
-6.88056
6.87541
-0.0663316
0.071487
-6.87041
6.8659
-0.0635655
0.0680757
-0.536744
0.548285
-0.011541
0.0295611
-0.0431197
-0.511336
0.524894
0.0660019
-0.0958142
-0.403022
0.432835
0.106955
-0.112967
-0.260688
0.2667
0.113578
-0.110306
-0.252122
0.24885
0.103627
-0.0937908
-0.335746
0.32591
0.0817449
-0.0711428
-0.460662
0.450059
0.0649635
-0.0630223
-0.547299
0.545358
0.0663775
-0.0767718
-0.545187
0.555581
0.0964536
-0.126687
-0.401617
0.43185
0.168202
-0.222766
-0.095325
0.149889
0.287102
-0.356897
0.293726
-0.223932
0.428914
-0.499076
0.646129
-0.575967
0.561591
-0.609998
0.824696
-0.776289
0.635156
-0.627981
0.696927
-0.704102
0.576857
0.0416821
-0.460182
-0.158357
-1.27881
0.890189
-6.84654
7.23517
-0.718211
1.31621
-1.47588
0.877886
-2.40963
3.96787
5.3458
-6.90403
-4.1051
4.13624
7.50426
-7.5354
-4.17553
4.22497
7.32582
-7.37526
-4.29539
4.39651
6.93334
-7.03445
-4.53476
4.71034
6.22817
-6.40375
-4.91179
5.12765
5.26816
-5.48402
-5.33735
5.52281
4.1037
-4.28916
-5.67515
5.79096
2.89096
-3.00676
-5.8881
5.97837
1.881
-1.97128
-6.06471
6.15711
1.17965
-1.27206
-6.24622
6.33099
0.730741
-0.815508
-6.40955
6.48103
0.446654
-0.518128
-6.54454
6.60077
0.269415
-0.325641
-6.65282
6.70027
0.155518
-0.202972
-6.73963
6.77374
0.0848374
-0.118948
-6.80389
6.8306
0.0424818
-0.0691966
-6.85433
6.87529
0.0174318
-0.0383926
-6.89377
6.91022
0.0037566
-0.0202015
-6.9248
6.93773
-0.00284133
-0.0100815
-6.94942
6.96043
-0.00770464
-0.0033015
-6.97096
6.98079
-0.0141404
0.00431305
-6.98973
6.998
-0.0166145
0.00834405
-7.00586
7.0133
-0.0168933
0.009452
-7.02018
7.0265
-0.0130061
0.00669343
-7.03232
7.03775
-0.00813601
0.002711
-7.04275
7.04717
-0.00908097
0.00466157
-7.05083
7.05346
-0.0164194
0.0137888
-7.05481
7.05578
-0.0264544
0.0254781
-7.05674
7.05744
-0.0282703
0.0275702
-7.05759
7.05723
-0.0300969
0.0304551
-7.05651
7.05559
-0.0341804
0.0351018
-7.0546
7.0536
-0.0408202
0.0418188
-7.05252
7.05123
-0.0473383
0.0486324
-7.04968
7.04788
-0.0513385
0.053136
-7.04582
7.04346
-0.0529071
0.0552684
-7.04078
7.03781
-0.0541927
0.0571654
-7.03459
7.03114
-0.0577024
0.06116
-7.02738
7.02335
-0.0625676
0.066594
-7.01917
7.01489
-0.0681245
0.072412
-7.01053
7.0061
-0.0735068
0.0779331
-7.00174
6.99741
-0.0762903
0.0806258
-6.99374
6.9896
-0.0723534
0.0764936
-0.553806
0.552927
0.000878095
0.00847026
-0.0153433
-0.534468
0.541342
0.0384863
-0.0526162
-0.458193
0.472323
0.0632982
-0.0671866
-0.271531
0.275419
0.0662993
-0.0620508
-0.245143
0.240894
0.0552859
-0.0464619
-0.316434
0.30761
0.0352604