/*--------------------------------*- C++ -*----------------------------------*\
| =========                 |                                                 |
| \\      /  F ield         | OpenFOAM: The Open Source CFD Toolbox           |
|  \\    /   O peration     | Version:  v1912                                 |
|   \\  /    A nd           | Website:  www.openfoam.com                      |
|    \\/     M anipulation  |                                                 |
\*---------------------------------------------------------------------------*/
FoamFile
{
    version     2.0;
    format      ascii;
    class       volVectorField;
    location    "20";
    object      U;
}
// * * * * * * * * * * * * * * * * * * * * * * * * * * * * * * * * * * * * * //

dimensions      [0 1 -1 0 0 0 0];


internalField   nonuniform List<vector> 
20320
(
(1.867 0.00627188 0)
(1.86549 -0.00526768 0)
(1.84987 0.00409128 0)
(1.8207 0.0121151 0)
(1.78003 0.0190188 0)
(1.72902 0.0260564 0)
(1.66783 0.0323987 0)
(1.59683 0.0380458 0)
(1.51669 0.0437166 0)
(1.42789 0.0490532 0)
(1.33095 0.0535441 0)
(1.22678 0.0578825 0)
(1.11627 0.0619236 0)
(0.999673 0.0648957 0)
(0.878649 0.0666525 0)
(0.755264 0.0678617 0)
(0.631023 0.0695279 0)
(0.506707 0.0850567 0)
(0.346196 0.136483 0)
(0.0962837 0.151641 0)
(1.86713 0.0112316 0)
(1.85841 0.0354661 0)
(1.8389 0.0663078 0)
(1.80884 0.0972432 0)
(1.76785 0.127516 0)
(1.71616 0.157056 0)
(1.65423 0.185642 0)
(1.5825 0.213056 0)
(1.50139 0.239109 0)
(1.41137 0.263594 0)
(1.31302 0.286443 0)
(1.20684 0.307469 0)
(1.09339 0.326251 0)
(0.973317 0.342562 0)
(0.847283 0.355901 0)
(0.7164 0.364216 0)
(0.582321 0.369269 0)
(0.435428 0.412205 0)
(0.277326 0.502853 0)
(0.124945 0.531512 0)
(1.86712 0.0169939 0)
(1.85848 0.0695443 0)
(1.83874 0.124854 0)
(1.80839 0.179562 0)
(1.76727 0.233305 0)
(1.71553 0.28571 0)
(1.65347 0.336394 0)
(1.58144 0.384979 0)
(1.49986 0.431127 0)
(1.40922 0.474574 0)
(1.31015 0.51503 0)
(1.20326 0.552346 0)
(1.08919 0.586388 0)
(0.968652 0.616756 0)
(0.84269 0.641688 0)
(0.711615 0.658427 0)
(0.571079 0.686461 0)
(0.418174 0.756335 0)
(0.263858 0.837983 0)
(0.115451 0.866273 0)
(1.86712 0.0227692 0)
(1.85871 0.099409 0)
(1.8393 0.178316 0)
(1.80923 0.256307 0)
(1.76835 0.332899 0)
(1.71683 0.407606 0)
(1.65492 0.479945 0)
(1.58293 0.549395 0)
(1.50119 0.61546 0)
(1.41014 0.677662 0)
(1.31031 0.735586 0)
(1.20234 0.788878 0)
(1.08701 0.837289 0)
(0.965387 0.880212 0)
(0.838893 0.915555 0)
(0.705995 0.94574 0)
(0.561848 1.00202 0)
(0.409845 1.08353 0)
(0.258626 1.15542 0)
(0.11124 1.18136 0)
(1.86712 0.0282358 0)
(1.85883 0.127406 0)
(1.83969 0.228595 0)
(1.81005 0.328647 0)
(1.76968 0.427077 0)
(1.71872 0.52327 0)
(1.65739 0.616587 0)
(1.58592 0.70645 0)
(1.50461 0.792181 0)
(1.41382 0.873142 0)
(1.31401 0.948709 0)
(1.20571 1.01832 0)
(1.0897 1.08135 0)
(0.967201 1.13658 0)
(0.839306 1.18211 0)
(0.703072 1.23029 0)
(0.556798 1.30798 0)
(0.406104 1.39335 0)
(0.256456 1.45862 0)
(0.109395 1.48384 0)
(1.86712 0.0333784 0)
(1.85902 0.153892 0)
(1.84033 0.276191 0)
(1.81135 0.39727 0)
(1.77182 0.516552 0)
(1.72181 0.633356 0)
(1.66146 0.746955 0)
(1.59095 0.856611 0)
(1.51049 0.961558 0)
(1.42037 1.06101 0)
(1.32098 1.15409 0)
(1.2128 1.24008 0)
(1.09652 1.31796 0)
(0.973465 1.38587 0)
(0.843928 1.44295 0)
(0.704575 1.51119 0)
(0.556896 1.60339 0)
(0.406513 1.6896 0)
(0.256828 1.75057 0)
(0.108889 1.77629 0)
(1.86712 0.0381585 0)
(1.8593 0.178681 0)
(1.84126 0.320772 0)
(1.81325 0.461674 0)
(1.77496 0.600703 0)
(1.72636 0.737188 0)
(1.66753 0.870297 0)
(1.59852 0.999165 0)
(1.51943 1.12295 0)
(1.43047 1.24067 0)
(1.33192 1.35128 0)
(1.22417 1.4538 0)
(1.1079 1.54683 0)
(0.984392 1.628 0)
(0.853032 1.69872 0)
(0.711034 1.78693 0)
(0.561988 1.88929 0)
(0.410777 1.97574 0)
(0.259676 2.03414 0)
(0.109554 2.06138 0)
(1.86712 0.0425324 0)
(1.85969 0.201546 0)
(1.84254 0.361988 0)
(1.81588 0.521316 0)
(1.77931 0.678923 0)
(1.7327 0.834057 0)
(1.67601 0.985851 0)
(1.60916 1.13339 0)
(1.5321 1.27565 0)
(1.4449 1.41153 0)
(1.3477 1.53983 0)
(1.24079 1.65921 0)
(1.12479 1.76787 0)
(1.00086 1.86306 0)
(0.86755 1.94971 0)
(0.723131 2.0569 0)
(0.57224 2.16741 0)
(0.418995 2.25466 0)
(0.265156 2.3119 0)
(0.111474 2.3415 0)
(1.86713 0.0464469 0)
(1.86021 0.22226 0)
(1.84424 0.399411 0)
(1.81938 0.575639 0)
(1.78509 0.750496 0)
(1.74118 0.923137 0)
(1.6874 1.09276 0)
(1.62351 1.25838 0)
(1.5493 1.41883 0)
(1.46464 1.5729 0)
(1.36945 1.71917 0)
(1.2639 1.85599 0)
(1.14851 1.98107 0)
(1.02422 2.09131 0)
(0.888859 2.19612 0)
(0.741922 2.32146 0)
(0.588346 2.4398 0)
(0.431695 2.52907 0)
(0.27362 2.58645 0)
(0.114735 2.61904 0)
(1.86713 0.049847 0)
(1.86087 0.24057 0)
(1.84642 0.432565 0)
(1.82386 0.62402 0)
(1.79255 0.814584 0)
(1.75214 1.0035 0)
(1.7022 1.19 0)
(1.64227 1.37305 0)
(1.57194 1.55143 0)
(1.49078 1.7238 0)
(1.39852 1.88851 0)
(1.29505 2.0436 0)
(1.18073 2.18622 0)
(1.05623 2.31302 0)
(0.9188 2.43815 0)
(0.768994 2.58158 0)
(0.611613 2.70871 0)
(0.449942 2.8017 0)
(0.285836 2.86059 0)
(0.1197 2.89666 0)
(1.86713 0.0526792 0)
(1.86169 0.256203 0)
(1.84913 0.460979 0)
(1.82944 0.665767 0)
(1.80189 0.870312 0)
(1.76591 1.0741 0)
(1.7209 1.27637 0)
(1.66616 1.47612 0)
(1.60095 1.67217 0)
(1.52458 1.86301 0)
(1.43642 2.04677 0)
(1.33605 2.22122 0)
(1.22355 2.38291 0)
(1.0992 2.52831 0)
(0.959789 2.67599 0)
(0.806602 2.83863 0)
(0.644044 2.97667 0)
(0.475369 3.07565 0)
(0.302944 3.13764 0)
(0.126871 3.17734 0)
(1.86713 0.0548941 0)
(1.86268 0.268891 0)
(1.8524 0.484187 0)
(1.83619 0.700166 0)
(1.81322 0.916777 0)
(1.78272 1.13381 0)
(1.74389 1.35053 0)
(1.69576 1.56612 0)
(1.63723 1.77944 0)
(1.56727 1.98887 0)
(1.48482 2.19242 0)
(1.38901 2.38756 0)
(1.27948 2.57026 0)
(1.15601 2.73688 0)
(1.01497 2.9097 0)
(0.857879 3.09407 0)
(0.688546 3.24639 0)
(0.510395 3.35446 0)
(0.32666 3.42164 0)
(0.136836 3.46485 0)
(1.86714 0.0564511 0)
(1.86384 0.278405 0)
(1.85621 0.501767 0)
(1.84411 0.726568 0)
(1.82657 0.953114 0)
(1.80266 1.18147 0)
(1.7714 1.41106 0)
(1.73149 1.64137 0)
(1.68152 1.87133 0)
(1.62 2.09935 0)
(1.54538 2.32341 0)
(1.45617 2.54071 0)
(1.35142 2.74675 0)
(1.23021 2.93776 0)
(1.08841 3.139 0)
(0.927145 3.3493 0)
(0.749312 3.5209 0)
(0.558606 3.64247 0)
(0.359586 3.7178 0)
(0.150318 3.7644 0)
(1.86714 0.0573235 0)
(1.86515 0.284579 0)
(1.86053 0.513382 0)
(1.8531 0.744449 0)
(1.84181 0.978547 0)
(1.82563 1.21598 0)
(1.80337 1.45656 0)
(1.77347 1.70007 0)
(1.7342 1.94565 0)
(1.68361 2.19192 0)
(1.61956 2.43698 0)
(1.53984 2.6779 0)
(1.44261 2.90986 0)
(1.32606 3.12896 0)
(1.18535 3.36274 0)
(1.02033 3.60521 0)
(0.832413 3.80337 0)
(0.625424 3.94492 0)
(0.405651 4.033 0)
(0.168991 4.0823 0)
(1.86714 0.0575048 0)
(1.86657 0.287325 0)
(1.86524 0.518834 0)
(1.86298 0.75347 0)
(1.85865 0.992485 0)
(1.85122 1.23645 0)
(1.83936 1.48571 0)
(1.82133 1.7404 0)
(1.79512 2 0)
(1.75835 2.26361 0)
(1.70828 2.5296 0)
(1.6419 2.79519 0)
(1.55626 3.0556 0)
(1.44835 3.30677 0)
(1.31226 3.57807 0)
(1.14548 3.86133 0)
(0.946721 4.09662 0)
(0.719248 4.26814 0)
(0.471391 4.37657 0)
(0.195513 4.42911 0)
(1.86715 0.0570115 0)
(1.86807 0.286661 0)
(1.87022 0.518115 0)
(1.87344 0.753543 0)
(1.87663 0.994639 0)
(1.87881 1.24231 0)
(1.87857 1.4975 0)
(1.87416 1.76071 0)
(1.86341 2.03203 0)
(1.84362 2.31116 0)
(1.81155 2.59706 0)
(1.76342 2.88749 0)
(1.69505 3.1782 0)
(1.60194 3.46519 0)
(1.47676 3.77937 0)
(1.31333 4.1145 0)
(1.10535 4.40209 0)
(0.853569 4.6194 0)
(0.56777 4.76155 0)
(0.234087 4.82084 0)
(1.86715 0.0558835 0)
(1.86959 0.282719 0)
(1.87529 0.511425 0)
(1.88414 0.744868 0)
(1.89515 0.985104 0)
(1.90746 1.23342 0)
(1.91977 1.49136 0)
(1.93043 1.75983 0)
(1.93732 2.03966 0)
(1.93764 2.33138 0)
(1.92792 2.63476 0)
(1.90382 2.94859 0)
(1.8601 3.26982 0)
(1.79066 3.59508 0)
(1.68675 3.95653 0)
(1.53727 4.35616 0)
(1.32746 4.717 0)
(1.05083 5.0054 0)
(0.714961 5.20617 0)
(0.294187 5.28498 0)
(1.86715 0.0541828 0)
(1.87107 0.275743 0)
(1.88025 0.499177 0)
(1.89467 0.727961 0)
(1.9135 0.964406 0)
(1.9361 1.2102 0)
(1.9614 1.46739 0)
(1.98807 1.73728 0)
(2.01423 2.02155 0)
(2.03735 2.32159 0)
(2.0541 2.63826 0)
(2.0601 2.97176 0)
(2.04961 3.32088 0)
(2.01539 3.6839 0)
(1.94797 4.09343 0)
(1.83171 4.56832 0)
(1.63935 5.02827 0)
(1.34877 5.42668 0)
(0.953405 5.73412 0)
(0.400736 5.87129 0)
(1.86716 0.051988 0)
(1.87247 0.266078 0)
(1.88492 0.481977 0)
(1.90463 0.703639 0)
(1.93097 0.933513 0)
(1.96357 1.17365 0)
(2.00174 1.42643 0)
(2.0446 1.69354 0)
(2.09082 1.97744 0)
(2.13844 2.28037 0)
(2.1848 2.60426 0)
(2.2262 2.95094 0)
(2.2574 3.32135 0)
(2.27134 3.71657 0)
(2.25948 4.16781 0)
(2.20601 4.71919 0)
(2.07086 5.30149 0)
(1.80728 5.86083 0)
(1.36988 6.36367 0)
(0.632788 6.67227 0)
(1.86716 0.0493892 0)
(1.87372 0.254145 0)
(1.88915 0.460574 0)
(1.91366 0.672961 0)
(1.94689 0.893768 0)
(1.98878 1.12531 0)
(2.03908 1.37014 0)
(2.0975 1.63018 0)
(2.16343 1.90854 0)
(2.23581 2.20806 0)
(2.31314 2.5316 0)
(2.39312 2.88238 0)
(2.47224 3.26329 0)
(2.54557 3.67857 0)
(2.60787 4.15507 0)
(2.65214 4.76338 0)
(2.63734 5.46824 0)
(2.49911 6.22494 0)
(2.14292 7.04375 0)
(1.32124 7.80735 0)
(-0.190543 -0.00614681 0)
(-0.59902 0.136816 0)
(-1.03329 0.0581133 0)
(-1.51156 0.0901223 -3.58679e-21)
(-1.92749 0.0805617 0)
(-2.56867 0.135939 0)
(-3.34907 0.117507 0)
(-4.03023 0.071863 0)
(-4.44791 0.049982 0)
(-4.9959 0.139981 8.04577e-21)
(-6.23206 0.204625 0)
(-7.38888 0.211018 0)
(-8.34026 0.144721 -4.54558e-21)
(-8.81334 0.141704 -2.89742e-21)
(-9.27628 0.0785697 0)
(-9.47597 0.0522983 1.90403e-21)
(-9.91335 0.117009 -1.26508e-21)
(-10.6505 0.145163 2.55352e-21)
(-11.551 0.192852 0)
(-12.5099 -0.234066 2.04143e-23)
(-13.0555 -1.4205 6.96827e-20)
(-4.80228 -3.75853 8.45104e-19)
(8.10341 -2.23784 9.24546e-20)
(15.1575 -1.03804 -1.65705e-19)
(19.088 -0.624807 0)
(21.5395 -0.405807 -1.0366e-19)
(23.1189 -0.263513 0)
(24.099 -0.167 5.12692e-20)
(24.6678 -0.101713 6.72835e-20)
(24.965 -0.0583504 0)
(25.0899 -0.0295074 1.32973e-20)
(25.1081 -0.00897063 -8.13033e-21)
(25.0622 -0.00204079 2.40274e-21)
(24.9806 0.00110497 -1.40646e-21)
(24.8848 0.00294511 0)
(24.7851 0.00398873 0)
(24.685 0.00493964 -3.06714e-22)
(24.5844 0.00591821 0)
(24.4836 0.00671976 1.34968e-22)
(24.3836 0.00724101 0)
(24.286 0.00746703 0)
(24.1927 0.00739281 8.60825e-23)
(24.105 0.0069834 0)
(24.0239 0.00637864 0)
(23.9487 0.00578577 -8.83633e-23)
(23.8794 0.00493586 -5.47349e-23)
(23.8174 0.00388202 0)
(23.763 0.00310029 -4.7469e-24)
(23.7129 0.00297761 1.7548e-23)
(23.6622 0.00349002 -2.92869e-23)
(23.6085 0.00423395 0)
(23.5519 0.00484923 5.23707e-23)
(23.4941 0.00528824 0)
(23.4364 0.00575012 -2.76152e-23)
(23.3788 0.00641014 0)
(23.3209 0.00717287 0)
(23.2622 0.00785064 8.5276e-26)
(23.2022 0.00824387 -5.05377e-26)
(23.1415 0.00821769 0)
(23.0803 0.00834044 0)
(-0.370117 0.28413 0)
(-0.691162 0.358446 0)
(-0.990426 0.24036 8.77055e-22)
(-1.30687 0.271657 0)
(-1.59668 0.255842 0)
(-2.00462 0.403951 -3.77628e-21)
(-2.57243 0.47373 5.35141e-22)
(-3.22091 0.407542 0)
(-3.80092 0.301402 2.20216e-23)
(-4.28997 0.44664 6.03171e-22)
(-5.23514 0.860104 2.23831e-23)
(-6.54355 0.677883 5.77495e-20)
(-7.66307 0.400732 -5.84733e-20)
(-8.58922 0.282713 0)
(-9.24553 0.175931 0)
(-9.6399 0.10706 4.18282e-21)
(-10.2287 0.254089 0)
(-11.0261 0.27903 0)
(-11.8365 0.36431 5.74169e-22)
(-12.9762 0.310392 0)
(-15.8676 -1.92191 0)
(5.45934 -8.02428 0)
(10.4249 -5.81761 2.45497e-20)
(15.4552 -3.32874 -1.02793e-19)
(19.0441 -2.08814 1.02434e-19)
(21.4955 -1.36286 8.36333e-20)
(23.1253 -0.875123 0)
(24.1576 -0.536175 0)
(24.772 -0.306072 2.86045e-20)
(25.1083 -0.155933 -1.13825e-23)
(25.2675 -0.0617332 0)
(25.3171 -0.00422711 8.87178e-25)
(25.3016 0.0318752 -4.03959e-21)
(25.2506 0.0496241 0)
(25.184 0.056496 0)
(25.1132 0.0578462 -7.52964e-22)
(25.0433 0.057641 0)
(24.9752 0.0575491 0)
(24.9084 0.0570668 0)
(24.8439 0.0556364 -4.41327e-23)
(24.7831 0.0531467 -3.98647e-23)
(24.7276 0.0496054 9.97321e-23)
(24.6782 0.045637 -6.97116e-23)
(24.6337 0.0421014 0)
(24.5917 0.0394256 7.00698e-23)
(24.5509 0.0363877 0)
(24.5127 0.0323878 -1.16955e-23)
(24.4779 0.0291596 -9.53732e-24)
(24.4444 0.0283878 -2.3773e-23)
(24.4092 0.0299071 3.64178e-23)
(24.3706 0.0320717 -4.81045e-23)
(24.3291 0.0335464 -5.70821e-23)
(24.2861 0.0340691 1.21857e-22)
(24.2426 0.0342725 0)
(24.1981 0.0348834 0)
(24.1517 0.0361442 0)
(24.1026 0.0378613 0)
(24.0506 0.0392908 2.7876e-24)
(23.9971 0.0395981 -1.56098e-23)
(23.9448 0.0391853 0)
(-0.432232 0.554084 0)
(-0.743637 0.514492 -5.03404e-22)
(-0.981811 0.39438 0)
(-1.14554 0.386803 2.16904e-21)
(-1.32188 0.388163 2.40369e-21)
(-1.61442 0.570032 3.03269e-21)
(-1.97527 0.736229 0)
(-2.43161 0.737409 -1.91921e-21)
(-2.93526 0.590089 0)
(-3.28067 0.627548 0)
(-3.87248 1.18839 0)
(-2.51741 0.972879 0)
(12.0112 -0.408756 0)
(11.2984 2.62388 0)
(3.03474 1.6245 0)
(-4.05876 0.833013 0)
(-9.32328 1.64327 0)
(-12.7753 1.48585 1.15878e-19)
(-13.4896 0.924705 0)
(-9.72941 0.205441 0)
(11.0111 -9.33604 0)
(11.7342 -11.7893 0)
(13.618 -8.39764 0)
(16.5958 -5.57908 0)
(19.3923 -3.73155 0)
(21.5288 -2.49878 0)
(22.9909 -1.62195 0)
(23.9112 -0.999239 0)
(24.4498 -0.57472 2.53744e-20)
(24.7414 -0.298453 0)
(24.8825 -0.125328 -1.00972e-20)
(24.9336 -0.018894 0)
(24.934 0.0420646 0)
(24.9088 0.0728981 0)
(24.8729 0.0848556 0)
(24.835 0.0867369 0)
(24.7991 0.0853453 -2.34651e-22)
(24.7653 0.0843325 0)
(24.7324 0.0830825 0)
(24.7011 0.0802975 0)
(24.6727 0.0756591 7.0246e-23)
(24.649 0.0691225 -7.68241e-23)
(24.6306 0.0624496 9.50891e-23)
(24.6148 0.0575667 0)
(24.5981 0.0550904 9.34661e-23)
(24.578 0.0523624 0)
(24.5568 0.047556 0)
(24.536 0.0435226 0)
(24.5142 0.0431876 0)
(24.4892 0.0464252 3.17631e-23)
(24.4599 0.0504713 0)
(24.4275 0.053134 1.07255e-22)
(24.3938 0.0541265 0)
(24.3594 0.0547247 0)
(24.3238 0.0562174 2.51315e-23)
(24.2857 0.05889 -1.87772e-23)
(24.2442 0.0625023 1.91609e-23)
(24.199 0.0658638 1.69257e-24)
(24.1512 0.0674169 0)
(24.1052 0.0668347 5.97417e-24)
(-0.472047 0.755574 0)
(-0.745507 0.666015 0)
(-0.938328 0.508587 0)
(-1.01724 0.434297 0)
(-1.10705 0.472478 -1.14692e-21)
(-1.30215 0.657995 0)
(-1.52073 0.869816 0)
(-1.76857 0.952325 8.62158e-24)
(-2.05162 0.832961 0)
(-2.21316 0.630298 3.20875e-23)
(-0.76345 -0.362961 -1.14582e-18)
(-1.2047 -1.1122 0)
(-0.852231 -1.65346 0)
(-0.209253 -1.3755 -1.18925e-22)
(7.81478 4.66204 3.39018e-22)
(2.94503 5.33173 -1.36317e-22)
(-5.14306 4.69772 -6.30017e-20)
(-8.89337 2.64971 0)
(-7.05518 -0.27766 -1.57804e-19)
(0.561773 -4.21558 0)
(16.1717 -13.6214 7.39177e-22)
(15.4149 -12.7121 1.51629e-22)
(16.2483 -9.9072 -3.24509e-22)
(18.0109 -7.27442 5.22259e-20)
(20.0422 -5.17211 -6.77754e-20)
(21.7367 -3.55491 0)
(22.9041 -2.32224 0)
(23.6146 -1.42884 -8.85337e-23)
(24.0185 -0.822409 6.11509e-23)
(24.2396 -0.433087 0)
(24.3596 -0.193139 8.80207e-21)
(24.4216 -0.0474257 0)
(24.4528 0.0349485 0)
(24.4692 0.0765578 0)
(24.4784 0.093098 -2.28394e-21)
(24.4849 0.0957168 0)
(24.4914 0.0934066 0)
(24.4978 0.0921473 -1.55159e-22)
(24.5018 0.0911862 2.28885e-22)
(24.5046 0.0879229 -8.6753e-23)
(24.5079 0.0820617 -1.5587e-22)
(24.5137 0.0730965 0)
(24.5233 0.064419 -2.05968e-22)
(24.5332 0.0596522 0)
(24.5382 0.0596129 -1.10207e-22)
(24.5351 0.059559 6.65493e-23)
(24.5275 0.0555562 0)
(24.5179 0.0519432 -3.08099e-24)
(24.5055 0.0529512 0)
(24.4884 0.0586094 2.92534e-23)
(24.4661 0.0649085 4.26462e-23)
(24.4405 0.0688557 -5.37707e-23)
(24.4136 0.0702774 6.05946e-23)
(24.3863 0.0712816 6.05832e-23)
(24.3574 0.0738828 0)
(24.3258 0.0781887 -2.08634e-23)
(24.2904 0.0839304 -1.23711e-23)
(24.251 0.0894287 -1.21789e-25)
(24.2086 0.0921618 0)
(24.1678 0.0905482 0)
(-0.504291 0.892646 -1.58667e-21)
(-0.732758 0.819514 7.17342e-22)
(-0.855341 0.60764 0)
(-0.900515 0.463876 1.94924e-21)
(-0.941193 0.502073 -1.60977e-21)
(-1.04864 0.692495 0)
(-1.17322 0.915988 0)
(-1.28899 1.04579 3.01285e-24)
(-1.39274 0.963929 -1.17022e-23)
(-1.39925 0.640858 5.80878e-21)
(-1.11452 -0.079918 1.11552e-20)
(-1.01693 -0.933239 -4.3382e-23)
(-1.01318 -1.58369 9.34359e-23)
(-1.01362 -1.69678 0)
(-0.476765 -0.48563 -4.37273e-23)
(4.6422 7.8041 -4.57079e-19)
(-1.37335 8.54938 0)
(-3.98808 3.48068 3.86556e-21)
(0.738532 -2.79114 1.00366e-19)
(12.2125 -10.9306 0)
(18.1733 -14.1899 -6.35126e-20)
(17.6537 -13.0415 -1.76343e-22)
(18.0417 -10.8904 0)
(19.2164 -8.5612 0)
(20.696 -6.38012 6.00611e-20)
(21.938 -4.46918 1.93727e-22)
(22.7417 -2.92113 0)
(23.196 -1.79029 0)
(23.4619 -1.03544 8.03083e-23)
(23.6373 -0.560807 0)
(23.7709 -0.273381 -1.46398e-20)
(23.8775 -0.0986643 -2.40157e-23)
(23.9673 -0.00040197 2.55212e-21)
(24.0458 0.0506303 -3.08498e-21)
(24.1132 0.0733229 1.8607e-21)
(24.1712 0.0791969 1.15956e-21)
(24.2224 0.0780761 0)
(24.2686 0.0785649 -6.3011e-25)
(24.307 0.0803129 0)
(24.3402 0.0782612 8.73719e-23)
(24.3704 0.0730163 7.84972e-23)
(24.3998 0.0627909 7.10487e-23)
(24.4311 0.0529345 1.01997e-22)
(24.4604 0.0498007 -1.40588e-22)
(24.4815 0.0544848 1.33013e-22)
(24.4902 0.0597071 6.79998e-23)
(24.4918 0.0578645 -2.91509e-23)
(24.4896 0.0558349 1.04166e-25)
(24.4829 0.0589779 -1.70983e-23)
(24.4707 0.0676727 2.60653e-23)
(24.4529 0.076578 -4.17684e-23)
(24.4319 0.0819051 0)
(24.4094 0.0837056 -6.5793e-23)
(24.3866 0.0850473 6.63988e-23)
(24.3621 0.0889794 0)
(24.3345 0.0950332 -2.38067e-23)
(24.3032 0.102979 -1.55853e-23)
(24.268 0.110678 -1.06504e-25)
(24.2298 0.11455 0)
(24.1932 0.110978 -1.19791e-23)
(-0.551321 0.991168 -6.53439e-22)
(-0.6927 0.944085 0)
(-0.762201 0.706544 -7.11068e-24)
(-0.770698 0.489856 0)
(-0.783164 0.500377 0)
(-0.826452 0.681487 1.61342e-21)
(-0.893571 0.916814 0)
(-0.946992 1.06915 -7.15047e-22)
(-0.977425 1.02981 -8.23557e-22)
(-0.971648 0.704648 4.02813e-21)
(-0.907684 0.0445415 -1.48978e-21)
(-0.943543 -0.753428 1.34122e-21)
(-1.075 -1.43674 -9.09098e-21)
(-1.25322 -1.70438 -5.25999e-21)
(-1.35097 -1.25862 0)
(0.602798 5.01293 -1.14885e-19)
(0.261401 11.8078 0)
(-0.213325 3.64723 0)
(8.07618 -6.54249 -2.89067e-19)
(19.1822 -14.5107 0)
(18.9638 -14.2382 0)
(18.8207 -13.2833 2.51101e-21)
(19.1677 -11.6394 -3.2992e-20)
(20.0734 -9.59946 0)
(21.1468 -7.38168 -5.56939e-20)
(21.9338 -5.20793 0)
(22.351 -3.38922 4.09407e-20)
(22.5862 -2.09053 0)
(22.7992 -1.24839 3.09443e-20)
(23.0163 -0.722818 0)
(23.2288 -0.402626 -4.62049e-21)
(23.4239 -0.201628 2.24177e-21)
(23.5961 -0.0837944 0)
(23.7443 -0.0163826 -5.96168e-22)
(23.8691 0.0183095 3.29572e-22)
(23.9722 0.0347347 -2.54887e-22)
(24.0581 0.0401887 3.38971e-24)
(24.1321 0.0455216 1.55225e-22)
(24.1952 0.0534386 -1.84538e-22)
(24.2487 0.0549709 -1.88188e-24)
(24.2966 0.0527428 0)
(24.3399 0.0433394 -1.63633e-22)
(24.3823 0.033309 -2.20896e-22)
(24.421 0.0330175 0)
(24.4504 0.043487 9.8613e-25)
(24.466 0.0554706 -3.07881e-22)
(24.472 0.0566875 2.14216e-22)
(24.4724 0.0569648 1.90432e-22)
(24.4664 0.0623964 -1.60616e-22)
(24.4553 0.0737493 -6.2397e-23)
(24.4398 0.0850845 3.15868e-23)
(24.4214 0.0919942 3.25498e-24)
(24.4015 0.0946193 1.95394e-23)
(24.3808 0.09664 0)
(24.3579 0.102211 -1.52598e-23)
(24.3314 0.110173 0)
(24.3016 0.120158 -5.64009e-24)
(24.2692 0.129803 0)
(24.2345 0.134822 0)
(24.2016 0.129189 0)
(-0.554529 1.05441 1.45815e-22)
(-0.612493 1.00945 0)
(-0.675466 0.813338 0)
(-0.627791 0.513421 -1.35594e-21)
(-0.61687 0.487333 0)
(-0.637912 0.643659 0)
(-0.659352 0.886598 0)
(-0.685079 1.06391 0)
(-0.702142 1.07088 0)
(-0.719459 0.809839 0)
(-0.764248 0.23676 0)
(-0.905478 -0.505938 2.89075e-21)
(-1.1354 -1.19189 0)
(-1.43541 -1.56319 0)
(-1.68815 -1.37072 -1.42809e-20)
(-1.87676 -0.129223 0)
(-0.291067 13.7747 1.55915e-21)
(1.92842 2.43429 0)
(16.2625 -11.4636 5.49851e-22)
(19.2103 -14.6354 0)
(19.2577 -14.2901 0)
(19.402 -13.5774 -8.00217e-21)
(19.8371 -12.288 -2.18628e-20)
(20.5759 -10.4668 4.13813e-20)
(21.2555 -8.17261 -5.56086e-20)
(21.5313 -5.76688 0)
(21.6126 -3.8193 1.51223e-22)
(21.8143 -2.40526 8.10429e-23)
(22.1626 -1.46964 0)
(22.5441 -0.882642 5.11287e-21)
(22.8842 -0.516549 0)
(23.1826 -0.269491 2.85774e-20)
(23.4238 -0.137233 -1.53128e-22)
(23.6143 -0.0604925 2.43282e-20)
(23.7689 -0.0181711 0)
(23.8923 0.00317957 -2.14404e-20)
(23.9912 0.0141278 1.97692e-20)
(24.0708 0.0228313 1.80909e-20)
(24.1413 0.0356704 8.44013e-21)
(24.203 0.0398949 7.82191e-21)
(24.2577 0.0397912 0)
(24.307 0.0314478 -7.03455e-21)
(24.3494 0.0208135 -6.5556e-21)
(24.3841 0.0215015 1.85639e-23)
(24.4081 0.0342335 0)
(24.414 0.0518537 -4.69673e-21)
(24.4225 0.0551277 3.66151e-21)
(24.4235 0.0584443 -3.31605e-21)
(24.4183 0.0660725 0)
(24.4109 0.0786091 -1.42258e-21)
(24.4031 0.090805 0)
(24.3926 0.0980463 0)
(24.379 0.100559 0)
(24.3612 0.102461 0)
(24.3395 0.108636 0)
(24.314 0.117441 0)
(24.2857 0.127877 0)
(24.2564 0.138002 1.86303e-22)
(24.2273 0.143296 5.65855e-23)
(24.2034 0.136096 -9.43501e-24)
(-0.533659 1.07078 0)
(-0.541502 1.043 2.23251e-24)
(-0.595846 0.904477 -2.38985e-21)
(-0.477158 0.529799 -1.41108e-21)
(-0.439266 0.470627 0)
(-0.450315 0.60362 0)
(-0.470655 0.832488 0)
(-0.474078 1.04264 -5.26155e-22)
(-0.498436 1.1046 0)
(-0.553565 0.928265 0)
(-0.666735 0.45911 0)
(-0.87894 -0.213196 4.15022e-21)
(-1.18194 -0.887069 0)
(-1.56691 -1.31793 0)
(-1.97866 -1.32743 1.8382e-20)
(-2.07379 -0.654568 0)
(-2.10485 14.6866 0)
(4.26482 -1.36133 0)
(18.9805 -14.9958 -9.83582e-20)
(19.03 -14.7173 -1.90913e-20)
(19.2939 -14.4812 0)
(19.669 -13.9397 -1.66538e-20)
(20.1678 -12.8776 -2.70844e-20)
(20.7088 -11.1607 -4.53361e-20)
(20.8592 -8.77105 -6.0854e-20)
(20.5966 -6.19588 0)
(20.5762 -4.04531 0)
(21.112 -2.8894 0)
(21.615 -2.03664 0)
(21.9997 -1.41559 0)
(22.3056 -0.930835 0)
(22.4683 -0.491398 2.38937e-20)
(22.5935 -0.308193 0)
(22.6804 -0.191356 0)
(22.7452 -0.115139 -9.18175e-21)
(22.7912 -0.0679727 -7.11033e-21)
(22.8244 -0.0442782 -8.58454e-24)
(22.8518 -0.0307818 0)
(22.8733 -0.0048492 0)
(22.8865 0.0143969 0)
(22.8937 0.0172824 0)
(22.9027 0.00856154 0)
(22.9084 0.00172793 0)
(22.9092 0.00638871 0)
(22.9086 0.023072 0)
(22.9106 0.0457794 0)
(22.9113 0.0531287 0)
(22.9051 0.0615596 0)
(22.8951 0.0722709 0)
(22.8834 0.0857193 -8.22194e-25)
(22.8718 0.0994495 0)
(22.8594 0.109466 0)
(22.8442 0.115459 0)
(22.8248 0.121148 0)
(22.8023 0.130091 -1.02767e-22)
(22.7789 0.14152 0)
(22.7559 0.152994 0)
(22.7352 0.162929 0)
(22.72 0.16613 0)
(22.7119 0.154676 3.62487e-24)
(-0.480599 1.03422 1.02605e-21)
(-0.463414 1.05638 0)
(-0.458277 0.934045 1.31423e-21)
(-0.317712 0.538811 0)
(-0.253002 0.449283 0)
(-0.256991 0.570047 0)
(-0.29791 0.783271 2.16588e-21)
(-0.312765 1.00385 0)
(-0.342679 1.13501 -1.28857e-21)
(-0.433767 1.05225 0)
(-0.598577 0.694135 3.16053e-21)
(-0.861842 0.107311 -5.16672e-21)
(-1.21498 -0.543132 0)
(-1.63254 -1.00203 0)
(-2.16361 -1.103 -4.74425e-20)
(-2.59859 -0.868729 1.26685e-20)
(-12.401 13.884 -4.64046e-18)
(15.3065 -9.75291 -9.89226e-19)
(18.4092 -15.01 -2.32856e-20)
(18.7651 -14.9098 0)
(19.24 -14.7807 1.97701e-20)
(19.7488 -14.3443 -2.30109e-20)
(20.2141 -13.3871 0)
(20.4043 -11.6937 5.18139e-20)
(19.9863 -9.28045 0)
(20.3558 -6.35625 -5.5726e-20)
(20.302 -4.52528 4.13604e-20)
(20.456 -3.19081 0)
(20.7068 -2.17518 0)
(20.9653 -1.46676 0)
(21.1726 -0.96035 2.06502e-20)
(21.351 -0.578098 1.73611e-20)
(21.4689 -0.369422 -2.65961e-20)
(21.5351 -0.232355 0)
(21.5733 -0.141925 7.61276e-21)
(21.5919 -0.0848874 -1.16238e-20)
(21.5963 -0.0526965 -4.40845e-21)
(21.588 -0.0342325 6.06503e-21)
(21.5754 -0.012189 -1.95349e-21)
(21.5687 0.0076961 -1.56802e-21)
(21.5657 0.0132671 7.4365e-22)
(21.5595 0.00691867 6.15138e-25)
(21.5481 0.00267128 -4.79284e-22)
(21.5332 0.00806059 -3.05224e-22)
(21.5191 0.025503 -1.48807e-22)
(21.5121 0.0455959 1.32765e-22)
(21.5058 0.056526 0)
(21.4956 0.0664846 1.11088e-22)
(21.4831 0.0780959 -3.80528e-25)
(21.4696 0.0915791 0)
(21.4566 0.105099 0)
(21.4435 0.1159 0)
(21.4285 0.123735 0)
(21.4105 0.13115 1.46614e-22)
(21.3908 0.140448 0)
(21.3719 0.151168 0)
(21.3552 0.161262 1.32231e-22)
(21.343 0.168254 6.20876e-23)
(21.3377 0.16725 2.01995e-23)
(21.3392 0.152171 1.08105e-24)
(-0.39449 0.935822 0)
(-0.325016 1.02846 0)
(-0.307186 0.994322 0)
(-0.154666 0.541543 0)
(-0.0617641 0.420597 0)
(-0.0573182 0.541714 0)
(-0.127271 0.755584 0)
(-0.172083 0.964488 0)
(-0.220652 1.15438 0)
(-0.339601 1.17575 0)
(-0.545752 0.932391 0)
(-0.84762 0.44338 0)
(-1.24129 -0.173153 0)
(-1.66529 -0.681975 0)
(-2.14555 -0.731891 0)
(-3.10287 -0.431112 0)
(-10.8067 6.73245 0)
(17.8323 -15.2715 0)
(18.0221 -15.1391 0)
(18.5439 -15.2106 0)
(19.1587 -15.1472 0)
(19.6828 -14.7398 0)
(19.9858 -13.7918 0)
(19.8791 -12.193 0)
(19.9199 -9.30504 0)
(19.2002 -6.67276 0)
(19.1174 -4.80583 3.96923e-20)
(19.2081 -3.45718 0)
(19.3781 -2.44142 0)
(19.5868 -1.69083 0)
(19.7772 -1.13796 0)
(19.9546 -0.718629 0)
(20.0976 -0.453198 0)
(20.1878 -0.282631 0)
(20.2416 -0.170281 0)
(20.27 -0.0980015 0)
(20.2797 -0.0542382 0)
(20.2741 -0.0279983 0)
(20.2611 -0.00627193 0)
(20.2509 0.0109523 0)
(20.2442 0.0173151 0)
(20.2345 0.0146222 0)
(20.2195 0.0124761 0)
(20.2016 0.0175732 0)
(20.1851 0.0317135 0)
(20.1748 0.0487075 0)
(20.1666 0.0612238 0)
(20.1567 0.07259 0)
(20.1456 0.0849149 -7.6913e-23)
(20.1341 0.0984031 -2.65312e-23)
(20.1233 0.111747 0)
(20.1127 0.123101 0)
(20.1011 0.132263 0)
(20.0879 0.140825 0)
(20.0742 0.150135 1.04903e-22)
(20.0619 0.15973 -6.32249e-23)
(20.0528 0.167741 6.9196e-23)
(20.0488 0.1714 0)
(20.0513 0.166363 2.76803e-23)
(20.0589 0.148615 0)
(-0.176588 0.75355 -2.94075e-21)
(-0.189684 0.942768 0)
(-0.124299 1.02035 -9.09278e-23)
(0.0262595 0.55067 -1.94668e-21)
(0.132497 0.384928 0)
(0.14496 0.513807 0)
(0.0370371 0.753183 0)
(-0.0333203 0.938389 -2.81314e-21)
(-0.110613 1.16442 -1.64871e-21)
(-0.257806 1.29193 0)
(-0.496622 1.16589 3.78612e-21)
(-0.821345 0.784071 0)
(-1.24412 0.225535 0)
(-1.71566 -0.342269 -1.38322e-20)
(-2.20372 -0.478351 -2.8501e-20)
(-2.94023 1.30199 2.67207e-19)
(8.26059 -2.56323 -5.17914e-21)
(17.1098 -15.3248 0)
(17.6892 -15.4227 -4.45172e-20)
(18.3913 -15.587 4.80141e-20)
(19.0439 -15.5305 7.17087e-23)
(19.4762 -15.0792 -6.23561e-20)
(19.5583 -14.145 5.34603e-20)
(19.5078 -11.7426 1.62746e-19)
(17.9373 -9.40931 0)
(17.4908 -6.92506 1.83351e-22)
(17.4757 -5.09582 2.98249e-20)
(17.6011 -3.73042 0)
(17.7874 -2.69498 2.30156e-20)
(18.0007 -1.91096 1.93164e-20)
(18.207 -1.32011 -1.58051e-20)
(18.4011 -0.87208 1.29236e-20)
(18.5711 -0.561612 0)
(18.6981 -0.353953 0)
(18.7868 -0.215116 0)
(18.8455 -0.123764 0)
(18.8811 -0.0657846 3.91897e-21)
(18.8985 -0.02971 -2.93106e-21)
(18.9045 -0.00487636 1.85556e-24)
(18.9075 0.0121509 -1.65196e-21)
(18.9097 0.0199229 -1.37759e-21)
(18.9079 0.0205451 0)
(18.9008 0.0207025 4.75069e-22)
(18.8903 0.0258221 0)
(18.8805 0.0374732 0)
(18.8746 0.051903 0)
(18.8707 0.0646396 0)
(18.8664 0.0766766 0)
(18.8614 0.0893266 0)
(18.8563 0.102683 2.74921e-23)
(18.8517 0.115775 0)
(18.8475 0.127369 -4.04699e-23)
(18.8427 0.137271 -6.25528e-23)
(18.8372 0.146349 8.59707e-23)
(18.8317 0.155256 1.10712e-22)
(18.828 0.163432 0)
(18.8275 0.169133 7.35353e-23)
(18.8315 0.169669 7.52019e-23)
(18.8406 0.161434 0)
(18.8528 0.142246 8.13804e-24)
(0.134885 0.376232 5.60989e-21)
(0.0150669 0.855895 0)
(0.123293 0.990453 0)
(0.208665 0.590232 1.15311e-21)
(0.330179 0.348232 0)
(0.342196 0.479365 1.72645e-21)
(0.211265 0.775188 -1.70665e-21)
(0.113996 0.930515 0)
(-0.00749945 1.17883 -3.59141e-21)
(-0.186603 1.39892 1.3772e-21)
(-0.440731 1.39061 -5.68087e-21)
(-0.767676 1.10812 0)
(-1.18346 0.637347 0)
(-1.67108 0.0604458 0)
(-2.13806 -0.215192 2.31705e-20)
(-3.33662 1.50224 -2.95664e-21)
(16.1137 -15.6181 0)
(16.7422 -15.4914 0)
(17.5066 -15.8126 4.46699e-20)
(18.2822 -15.9971 0)
(18.8718 -15.8825 -5.52541e-20)
(19.118 -15.3615 0)
(19.1968 -14.4895 1.68273e-19)
(17.5885 -11.734 -2.64674e-21)
(16.4992 -9.32524 1.57272e-20)
(15.9646 -7.1501 2.07974e-20)
(15.8635 -5.39001 0)
(15.96 -4.02005 0)
(16.1415 -2.96177 -1.88644e-20)
(16.357 -2.14673 0)
(16.5761 -1.52185 1.35106e-20)
(16.7869 -1.0445 1.11119e-20)
(16.9799 -0.696658 0)
(17.1405 -0.453065 7.31167e-21)
(17.2662 -0.285332 5.82296e-21)
(17.3613 -0.171784 -9.24097e-24)
(17.4311 -0.0968771 3.57751e-21)
(17.4806 -0.0485652 2.7397e-21)
(17.5156 -0.0169371 0)
(17.5422 0.00339053 1.61658e-21)
(17.5635 0.0143086 -1.32604e-21)
(17.5789 0.0187232 1.12479e-21)
(17.5879 0.0217165 -4.67324e-22)
(17.5928 0.0276282 3.69726e-22)
(17.5966 0.0379867 -2.81423e-22)
(17.602 0.0508144 -2.14815e-22)
(17.6085 0.0634461 0)
(17.6146 0.0758963 -1.22044e-22)
(17.6201 0.0887952 7.86515e-23)
(17.6253 0.102106 2.60049e-23)
(17.6306 0.115085 0)
(17.6359 0.126873 0)
(17.6408 0.137242 0)
(17.6452 0.146558 0)
(17.6497 0.155006 0)
(17.6556 0.161914 6.9465e-23)
(17.664 0.165647 7.8258e-23)
(17.6757 0.163776 0)
(17.6906 0.153438 -5.93531e-26)
(17.7067 0.133918 1.08443e-23)
(0.501296 -0.20038 0)
(0.233005 0.769196 0)
(0.286571 0.955615 9.17698e-21)
(0.371709 0.652058 0)
(0.537291 0.31059 0)
(0.542093 0.440315 1.31345e-21)
(0.413608 0.80097 2.6528e-21)
(0.272944 0.954946 0)
(0.0906342 1.21251 0)
(-0.128715 1.48852 1.27902e-23)
(-0.371098 1.58423 0)
(-0.673394 1.4071 0)
(-1.04326 1.02082 7.63168e-21)
(-1.45878 0.459516 1.5659e-20)
(-1.74725 0.0470228 5.10462e-21)
(-2.7246 0.543186 -4.48084e-20)
(15.6388 -15.1776 -3.19769e-20)
(16.5747 -15.9173 -1.78385e-23)
(17.4359 -16.2543 -4.48789e-20)
(18.1702 -16.3918 0)
(18.614 -16.175 0)
(18.7326 -15.622 -9.17867e-20)
(17.8988 -13.7472 -4.98801e-20)
(16.2493 -11.4188 1.38742e-20)
(15.2202 -9.22738 1.268e-20)
(14.6395 -7.28059 0)
(14.4288 -5.62958 -1.69643e-20)
(14.4432 -4.28949 1.67272e-20)
(14.5766 -3.22478 -1.52825e-20)
(14.7671 -2.38814 0)
(14.9785 -1.73589 1.13564e-20)
(15.1925 -1.2316 -9.40575e-21)
(15.3973 -0.8526 0)
(15.5803 -0.57696 6.33396e-21)
(15.7358 -0.380956 -5.10113e-21)
(15.8638 -0.244177 -4.04593e-21)
(15.9675 -0.150796 6.38064e-21)
(16.0504 -0.0884144 0)
(16.117 -0.0472111 1.93356e-21)
(16.1719 -0.0205843 0)
(16.2181 -0.00454822 -1.2541e-21)
(16.2562 0.00460469 -2.12142e-24)
(16.2869 0.0112458 -4.4453e-22)
(16.312 0.0190118 3.55523e-22)
(16.3343 0.0294638 0)
(16.3561 0.0418159 2.10938e-22)
(16.3774 0.054616 1.63924e-22)
(16.3978 0.0676015 -7.47233e-25)
(16.4171 0.0809592 -7.95449e-23)
(16.4355 0.0945275 0)
(16.4534 0.107706 0)
(16.4707 0.119861 0)