/*--------------------------------*- C++ -*----------------------------------*\
| =========                 |                                                 |
| \\      /  F ield         | OpenFOAM: The Open Source CFD Toolbox           |
|  \\    /   O peration     | Version:  v1912                                 |
|   \\  /    A nd           | Website:  www.openfoam.com                      |
|    \\/     M anipulation  |                                                 |
\*---------------------------------------------------------------------------*/
FoamFile
{
    version     2.0;
    format      ascii;
    class       volScalarField;
    location    "14";
    object      alpha.water;
}
// * * * * * * * * * * * * * * * * * * * * * * * * * * * * * * * * * * * * * //

dimensions      [0 0 0 0 0 0 0];


internalField   nonuniform List<scalar> 
20320
(
1
1
1
1
1
1
1
1
1
1
1
1
1
1
1
1
1
1
1
1
1
1
1
1
1
1
1
1
1
1
1
1
1
1
1
1
1
1
1
1
1
1
1
1
1
1
1
1
1
1
1
1
1
1
0.999999
1
1
1
1
1
1
1
1
1
1
1
1
1
1
1
1
1
1
1
0.999999
1
1
1
1
1
1
1
1
1
1
1
1
1
1
1
1
1
1
1
1
1
1
1
1
1
1
1
1
1
1
1
1
1
1
1
1
1
1
1
1
1
1
1
1
1
1
1
1
1
1
1
1
1
1
1
1
1
1
1
1
1
1
1
1
1
1
1
1
1
1
1
1
1
1
1
1
1
1
1
1
0.999999
1
1
1
1
1
1
1
1
1
1
1
1
1
1
1
1
1
1
1
0.999999
1
1
1
1
1
1
1
1
1
1
1
1
1
1
1
1
1
1
1
1
1
1
1
1
1
1
1
1
1
1
1
1
1
1
1
1
1
1
1
1
1
1
1
1
1
1
1
1
1
1
1
1
1
1
1
1
1
1
1
1
1
1
1
1
1
1
1
1
1
1
1
1
1
1
1
1
1
1
1
1
1
1
1
1
1
1
1
1
1
1
1
1
1
1
1
1
1
1
1
1
1
1
1
1
1
1
1
1
1
1
1
1
1
1
1
1
1
1
0.999999
0.999999
1
1
1
1
1
1
1
1
1
1
1
1
1
1
1
1
1
1
1
1
1
1
1
1
1
1
1
1
1
1
1
1
1
1
1
1
1
1
1
1
1
1
1
1
1
1
1
1
1
1
1
1
1
1
1
1
1
1
1
1
1
1
1
1
1
1
1
1
1
1
1
1
1
1
1
1
1
1
1
1
0.999999
1
1
1
1
1
1
1
1
1
1
1
1
1
1
1
1
1
1
1
0.999999
1
1
1
0.999545
0.998978
0.999474
0.999359
1
1
0.999978
0.999969
0.998764
1
0.99995
0.998277
0.999933
0.998964
1
0.99998
1
1
1
1
1
1
1
1
1
1
1
1
1
1
1
1
1
1
1
1
1
1
1
1
1
1
1
1
1
1
1
1
1
1
1
1
1
1
1
1
1
1
1
1
0.999523
0.999803
0.999961
1
0.603559
0.691581
0.999168
1
0.999201
1
0.999976
0.999744
1
1
0.900404
0.999482
1
1
1
1
1
1
1
1
1
1
1
1
1
1
1
1
1
1
1
1
1
1
1
1
1
1
1
1
1
1
1
1
1
1
1
1
1
1
1
1
1
1
1
1
0.999446
1
1
0.0866852
0.306015
1
0.514112
0.746617
1
1
1
1
0.766177
0.0318495
0.0153166
0.931649
1
1
1
1
1
1
1
1
1
1
1
1
1
1
1
1
1
1
1
1
1
1
1
1
1
1
1
1
1
1
1
1
1
1
1
1
1
1
1
1
1
1
1
1
0.999463
1
0.76669
-8.75826e-23
0.324269
1
1
0.990858
0.355086
0.813274
1
0.909592
9.03701e-17
-5.90857e-31
-7.34479e-20
0.845466
1
1
1
1
1
1
1
1
1
1
1
1
1
1
1
1
1
1
1
1
1
1
1
1
1
1
1
1
1
1
1
1
1
1
1
1
1
1
1
1
1
1
1
1
0.998071
1
0.39208
1.11677e-18
0.88988
1
0.997292
0.998235
1
0.683981
0.17185
8.99258e-17
5.3657e-06
1.11575e-07
-3.14744e-20
0.857631
1
1
1
1
1
1
1
1
1
1
1
1
1
1
1
1
1
1
1
1
1
1
1
1
1
1
1
1
1
1
1
1
1
1
1
1
1
1
1
1
1
1
1
1
0.998064
1
0.109708
-1.5677e-20
0.99743
0.999885
0.998316
0.999708
0.988082
0.992918
0.997487
0.826811
0.000359111
6.21683e-07
4.80786e-27
0.9034
1
1
1
1
1
1
1
0.997173
0.96088
0.88187
0.790257
0.718846
0.663067
0.606669
0.551225
0.523344
0.505711
0.506562
0.511719
0.520931
0.532835
0.556371
0.597633
0.634684
0.649346
0.687117
0.736724
0.734362
0.744448
0.77936
0.775574
0.758288
0.763985
0.763982
0.73836
0.742887
0.728498
0.671055
0.681675
0.630407
0.591717
0.616149
0.429316
0.400318
0.999421
1
0.155165
0.649664
0.998535
0.999298
0.999973
0.972225
0.962193
0.962311
0.999515
1
0.387797
-3.34227e-20
9.86842e-26
0.958993
1
1
1
1
1
0.838241
0.0586006
-7.84082e-22
-1.87321e-22
1.75728e-21
8.52383e-21
2.27067e-20
5.22546e-20
1.07379e-19
1.83187e-19
2.73523e-19
3.81138e-19
4.97372e-19
6.19436e-19
8.60325e-19
8.27723e-19
7.91822e-19
7.88214e-19
7.83341e-19
7.80261e-19
7.79383e-19
7.78674e-19
7.7671e-19
7.75128e-19
7.74597e-19
7.69871e-19
7.71323e-19
7.75018e-19
7.70499e-19
7.71873e-19
7.77361e-19
7.78094e-19
7.81637e-19
7.81969e-19
7.82179e-19
7.84947e-19
7.85911e-19
7.9034e-19
7.91386e-19
1
1
0.84926
0.987771
0.999976
0.999978
0.994197
0.999996
1
1
1
1
0.904021
-1.85858e-20
-6.52525e-28
0.994949
1
1
1
1
0.464789
-3.09558e-20
-1.36594e-20
2.66679e-20
2.22796e-19
6.70959e-19
1.51506e-18
2.90122e-18
5.06152e-18
8.44162e-18
1.35578e-17
2.05902e-17
2.97098e-17
4.14607e-17
5.6142e-17
7.47756e-17
1.01267e-16
1.38936e-16
1.82821e-16
2.31427e-16
2.93581e-16
3.74664e-16
4.70331e-16
5.82192e-16
7.27773e-16
9.25711e-16
1.18365e-15
1.50768e-15
1.90873e-15
2.39994e-15
3.01498e-15
3.81066e-15
4.80383e-15
5.93651e-15
7.12002e-15
8.35221e-15
9.90632e-15
1.23658e-14
1.69563e-14
2.39772e-14
0.999816
0.999819
0.99995
0.998403
0.999926
0.999978
0.995567
1
1
0.958654
0.27366
0.0846446
9.90328e-19
1.86199e-10
-2.20327e-28
1
1
1
1
0.850181
5.56273e-19
5.23443e-22
1.49365e-19
7.92424e-19
2.42008e-18
5.68412e-18
1.15795e-17
2.14728e-17
3.72735e-17
6.14506e-17
9.74318e-17
1.4904e-16
2.19385e-16
3.12461e-16
4.34528e-16
5.95439e-16
8.1599e-16
1.12185e-15
1.51557e-15
2.00004e-15
2.61437e-15
3.4087e-15
4.41878e-15
5.6919e-15
7.30821e-15
9.35751e-15
1.19365e-14
1.51884e-14
1.93007e-14
2.4467e-14
3.08893e-14
3.87009e-14
4.77947e-14
5.79884e-14
6.94814e-14
8.32531e-14
1.01606e-13
1.28612e-13
1.69453e-13
2.21781e-13
0.99994
0.99995
0.999069
0.999543
0.999996
0.999538
0.999397
1
1
0.079426
1.24196e-26
2.48795e-09
2.13607e-10
-2.15161e-27
0.146016
1
1
1
1
0.0670961
-4.34654e-21
1.89167e-19
1.0876e-18
3.69965e-18
9.94505e-18
2.24799e-17
4.47535e-17
8.10068e-17
1.37053e-16
2.20189e-16
3.38824e-16
5.03697e-16
7.27311e-16
1.02376e-15
1.41462e-15
1.93556e-15
2.63719e-15
3.57482e-15
4.79494e-15
6.36036e-15
8.36865e-15
1.09262e-14
1.41442e-14
1.81796e-14
2.32623e-14
2.96753e-14
3.77419e-14
4.78436e-14
6.0441e-14
7.60681e-14
9.52974e-14
1.18704e-13
1.46994e-13
1.81451e-13
2.2443e-13
2.7978e-13
3.53791e-13
4.56198e-13
5.98751e-13
7.83016e-13
0.99878
0.998787
0.999893
0.999893
0.999512
0.999291
1
1
0.253868
0.190917
0.29187
1.43258e-09
5.3525e-09
1.5245e-08
0.497738
1
1
1
0.928585
1.70631e-19
5.90891e-20
7.77402e-19
3.53119e-18
1.09537e-17
2.71973e-17
5.69509e-17
1.04687e-16
1.75283e-16
2.75178e-16
4.14132e-16
6.04391e-16
8.62723e-16
1.21148e-15
1.67682e-15
2.2938e-15
3.1124e-15
4.19777e-15
5.63458e-15
7.53524e-15
1.00327e-14
1.32626e-14
1.73629e-14
2.25182e-14
2.90177e-14
3.72659e-14
4.7756e-14
6.10773e-14
7.79791e-14
9.94064e-14
1.26493e-13
1.6064e-13
2.03786e-13
2.58862e-13
3.30307e-13
4.24651e-13
5.51592e-13
7.2605e-13
9.70975e-13
1.31803e-12
1.78703e-12
0.970012
0.999892
0.999777
0.998475
0.999998
0.999941
1
0.303593
8.42968e-08
3.60421e-11
0.455743
0.23067
-8.70424e-22
-1.06723e-37
0.80176
1
1
1
0.252474
-1.15219e-21
2.42755e-19
1.94279e-18
7.99806e-18
2.25316e-17
4.884e-17
8.83514e-17
1.42707e-16
2.17958e-16
3.21691e-16
4.5961e-16
6.35306e-16
8.59405e-16
1.15496e-15
1.55005e-15
2.07814e-15
2.78314e-15
3.71987e-15
4.96121e-15
6.61195e-15
8.8043e-15
1.16827e-14
1.54055e-14
2.01719e-14
2.62797e-14
3.41896e-14
4.45917e-14
5.84684e-14
7.71391e-14
1.02268e-13
1.35878e-13
1.806e-13
2.40459e-13
3.21919e-13
4.3558e-13
5.97591e-13
8.32046e-13
1.17113e-12
1.64895e-12
2.2907e-12
3.28279e-12
0.00654907
0.991423
0.998653
1
0.999999
1
0.348729
2.98082e-07
4.36067e-06
3.60421e-11
0.00702277
0.0358674
-4.67399e-27
1.45625e-26
0.974447
1
1
1
0.00871567
1.3044e-20
5.69869e-19
3.69394e-18
1.33296e-17
3.1762e-17
5.76868e-17
9.00677e-17
1.21475e-16
1.54843e-16
1.94391e-16
2.41962e-16
2.98622e-16
3.69941e-16
4.63836e-16
5.88326e-16
7.52863e-16
9.69531e-16
1.25718e-15
1.64705e-15
2.18467e-15
2.92662e-15
3.93991e-15
5.31242e-15
7.18006e-15
9.77544e-15
1.35029e-14
1.90191e-14
2.72895e-14
3.95967e-14
5.75861e-14
8.35513e-14
1.21305e-13
1.7768e-13
2.63944e-13
3.96079e-13
5.93732e-13
8.72078e-13
1.19536e-12
1.44784e-12
1.53807e-12
1.52844e-12
0.00787184
0.0944519
0.737757
0.982395
0.912905
0.107324
1.37525e-07
6.42783e-06
6.06941e-11
6.81979e-11
1.26203e-13
1.13068e-10
6.3629e-08
2.1311e-25
1
1
1
0.986727
-1.93064e-20
5.78495e-20
1.00435e-18
5.59679e-18
1.67461e-17
3.23956e-17
4.50463e-17
5.42864e-17
6.0517e-17
6.03132e-17
5.6858e-17
5.11378e-17
4.6008e-17
4.29071e-17
4.19466e-17
4.3172e-17
4.65124e-17
5.28015e-17
6.34923e-17
8.08222e-17
1.08235e-16
1.5112e-16
2.18819e-16
3.29597e-16
5.19818e-16
8.57522e-16
1.45868e-15
2.50513e-15
4.2818e-15
7.2852e-15
1.24635e-14
2.16021e-14
3.80603e-14
6.70615e-14
1.06809e-13
1.32772e-13
1.35362e-13
1.21523e-13
7.51335e-14
3.02594e-14
9.40859e-15
2.35321e-15
4.44063e-13
0.00068209
-1.03125e-23
-3.05656e-25
-4.11721e-26
3.98732e-06
3.53144e-05
9.48483e-11
1.78874e-10
2.65839e-11
2.02971e-07
4.52986e-07
2.45923e-09
0.212847
1
1
1
0.430536
-2.93578e-22
1.23192e-19
1.48169e-18
6.92707e-18
1.64188e-17
2.29991e-17
2.49425e-17
2.26977e-17
1.56953e-17
8.32138e-18
3.82567e-18
1.73714e-18
8.58012e-19
4.88054e-19
3.27464e-19
2.53391e-19
2.01021e-19
1.91141e-19
2.08678e-19
2.72652e-19
4.26461e-19
7.79174e-19
1.61536e-18
3.61002e-18
8.23963e-18
1.86298e-17
4.17324e-17
9.374e-17
2.10958e-16
4.69394e-16
9.79286e-16
1.44347e-15
1.46394e-15
1.26528e-15
6.511e-16
1.52446e-16
2.3308e-17
7.79192e-18
8.46307e-18
3.1592e-17
1.66814e-16
7.61497e-16
1.09561e-10
-7.62848e-24
-2.32835e-23
3.41235e-05
0.000242164
0.00019762
2.61018e-06
9.56479e-11
1.35789e-10
2.26879e-11
9.14653e-07
2.68668e-11
2.44377e-12
0.658686
1
1
1
0.0939611
-1.63797e-21
2.02934e-19
1.91061e-18
7.31716e-18
1.23641e-17
1.31586e-17
1.04244e-17
4.63207e-18
1.10863e-18
1.63269e-19
1.82748e-20
2.35604e-21
2.58527e-21
4.94541e-21
1.11735e-20
1.5589e-20
1.45281e-20
6.88277e-21
8.83975e-22
7.74968e-22
1.39546e-21
3.92652e-21
1.07681e-20
2.71644e-20
6.61314e-20
1.59098e-19
3.76038e-19
8.01287e-19
9.57019e-19
8.69546e-19
4.25582e-19
2.32195e-19
3.36922e-19
2.1728e-18
1.84005e-17
1.33577e-16
8.25146e-16
4.38302e-15
2.00998e-14
7.97894e-14
2.733e-13
7.78381e-13
1.2557e-10
3.33468e-05
0.000584713
0.000584713
1.51502e-23
-1.21828e-24
9.48483e-11
2.4858e-10
3.09342e-11
2.52851e-06
7.54914e-07
8.96944e-09
-2.51021e-26
0.93782
1
1
1
-3.84792e-19
1.09194e-21
2.81399e-19
2.18758e-18
6.33079e-18
7.77739e-18
6.37255e-18
2.34201e-18
2.77764e-19
8.90485e-21
7.95395e-23
6.71088e-23
1.45507e-22
4.63725e-22
1.21957e-21
2.03836e-21
2.06147e-21
1.24955e-21
2.43857e-22
2.28772e-22
4.75792e-22
1.30648e-21
3.08107e-21
5.10226e-21
5.20499e-21
4.28234e-21
1.47064e-21
1.01172e-21
3.00998e-21
3.95149e-20
4.93939e-19
5.13383e-18
4.49742e-17
3.35252e-16
2.14351e-15
1.1873e-14
5.72667e-14
2.40398e-13
8.78842e-13
2.78554e-12
7.63626e-12
1.86947e-11
4.13154e-11
4.02591e-06
2.60912e-05
-1.68446e-25
-7.73882e-25
5.25646e-10
7.75447e-10
7.60374e-10
4.42876e-24
1.5512e-06
2.57979e-06
1.47901e-08
2.46016e-05
3.79143e-24
1
1
1
0.931311
6.18747e-20
1.4021e-20
3.53147e-19
2.27931e-18
4.66255e-18
4.52706e-18
2.08801e-18
2.18187e-19
4.64481e-21
1.62334e-22
8.60346e-24
8.41198e-24
2.0864e-23
5.87163e-23
9.28059e-23
8.67141e-23
3.35778e-23
1.00356e-23
1.41009e-23
3.57271e-23
7.75183e-23
9.34808e-23
8.26636e-23
4.04898e-23
5.68153e-23
5.27604e-22
7.15549e-21
8.47359e-20
8.8787e-19
8.32645e-18
7.01902e-17
5.29711e-16
3.54026e-15
2.07113e-14
1.04915e-13
4.57214e-13
1.71173e-12
5.4957e-12
1.51203e-11
3.55027e-11
7.08915e-11
1.29953e-10
3.29886e-10
3.01617e-06
1.31898e-13
4.62389e-11
2.84331e-10
1.59185e-09
5.56218e-10
2.51156e-23
9.66676e-07
3.0407e-06
4.59009e-09
4.59009e-09
5.5921e-05
0.195695
1
1
1
0.415482
-3.00012e-23
2.03725e-20
4.12525e-19
2.08834e-18
3.04246e-18
2.22918e-18
3.97493e-19
1.00595e-20
7.45237e-22
7.65839e-23
9.5251e-25
5.87422e-25
1.3296e-24
2.14558e-24
1.75935e-24
3.30277e-25
1.42284e-25
2.55329e-25
4.75293e-25
4.79232e-25
2.44324e-25
2.46012e-25
2.89381e-24
5.07454e-23
7.54632e-22
1.00018e-20
1.23345e-19
1.44177e-18
1.57546e-17
1.55531e-16
1.34011e-15
9.80252e-15
5.96627e-14
2.98688e-13
1.22743e-12
4.18841e-12
1.21943e-11
3.17663e-11
8.18588e-11
2.47135e-10
6.13998e-10
6.59184e-10
4.54554e-10
1.04495e-06
1.34774e-12
1.9882e-11
1.86712e-11
1.34619e-12
2.52811e-06
9.09555e-06
9.09555e-06
3.97563e-09
3.36539e-08
0.000370902
1.23074e-22
0.726787
1
1
1
0.0951301
9.72515e-39
3.15498e-20
4.48032e-19
1.70131e-18
1.8958e-18
8.32471e-19
4.20883e-20
1.4912e-21
2.46924e-22
5.03319e-24
1.14687e-26
1.60266e-26
2.78913e-26
2.16488e-26
2.28947e-27
7.31802e-28
1.10656e-27
1.09406e-27
3.68378e-28
2.97395e-28
3.87006e-27
1.0862e-25
2.86991e-24
6.99075e-23
1.56272e-21
3.21568e-20
5.88528e-19
9.25097e-18
1.21838e-16
1.31947e-15
1.15564e-14
8.04862e-14
4.38971e-13
1.84915e-12
6.13633e-12
1.72375e-11
4.60441e-11
1.44566e-10
4.97805e-10
6.9145e-10
5.28625e-10
1.43352e-10
1.27635e-10
1.2842e-13
1.28498e-13
1.32133e-13
5.28676e-07
5.62835e-06
9.09555e-06
3.20779e-06
7.16804e-11
7.16804e-11
7.74608e-05
0.00038589
-2.16149e-20
0.984509
1
1
1
4.19238e-19
-1.66529e-21
3.95368e-20
4.56477e-19
1.22716e-18
1.08239e-18
2.18437e-19
3.94495e-21
5.02383e-22
3.52826e-23
6.19798e-26
1.29546e-28
1.92182e-28
1.7111e-28
1.81011e-29
1.14274e-30
1.11291e-30
9.1474e-31
5.9231e-30
7.34889e-29
4.74097e-28
1.57931e-27
1.8988e-26
8.40392e-25
3.45865e-23
1.14501e-21
3.05301e-20
6.6323e-19
1.18191e-17
1.7245e-16
2.03681e-15
1.90878e-14
1.38205e-13
7.51989e-13
2.98527e-12
8.81432e-12
2.29779e-11
6.43664e-11
1.90837e-10
4.83754e-10
8.0633e-10
1.50736e-09
3.37261e-09
2.42339e-09
1.7726e-09
1.13367e-08
4.09091e-06
4.41613e-05
7.16804e-11
2.0323e-09
7.16804e-11
7.71751e-05
0.00089777
0.000895219
1.80691e-05
1.07612e-18
1
1
1
0.933365
3.11216e-20
-5.1068e-22
4.66394e-20
4.24725e-19
8.05682e-19
5.30782e-19
3.86804e-20
8.89914e-22
1.39392e-22
1.85674e-24
1.17924e-28
6.6892e-31
7.10476e-31
1.35954e-31
5.44107e-34
1.82624e-34
2.16715e-33
8.2585e-32
1.24758e-30
8.17698e-30
1.99959e-29
4.70302e-29
6.46102e-28
3.22145e-26
1.54206e-24
6.11848e-23
2.03306e-21
5.65143e-20
1.30112e-18
2.44539e-17
3.67941e-16
4.32168e-15
3.84046e-14
2.49085e-13
1.13511e-12
3.52865e-12
7.83852e-12
1.53532e-11
3.30382e-11
7.14538e-11
9.09969e-11
5.27797e-11
7.59303e-12
4.76703e-12
2.98688e-09
1.8437e-09
3.18065e-05
1.46418e-05
8.8929e-10
4.18696e-10
0.000729815
0.00133375
0.000193343
0.000892903
-5.90222e-23
0.553661
1
1
1
0.39661
-1.26782e-20
-8.0932e-22
5.16812e-20
3.612e-19
5.03172e-19
2.12227e-19
5.08132e-21
3.16011e-22
2.44831e-23
3.30818e-26
1.61261e-32
1.3426e-33
5.46095e-34
3.35104e-36
5.41754e-39
9.63152e-37
8.7186e-35
2.12509e-33
1.01388e-32
8.74478e-32
2.89845e-30
3.48407e-29
9.74961e-29
1.95291e-28
3.78279e-27
1.67053e-25
6.94971e-24
2.59597e-22
8.45073e-21
2.30924e-19
5.07101e-18
8.65439e-17
1.10842e-15
1.02643e-14
6.63018e-14
2.88104e-13
8.16017e-13
1.52937e-12
2.03041e-12
2.10173e-12
1.95388e-12
1.42562e-12
6.98424e-13
1.0817e-13
2.7926e-08
1.8437e-09
3.58629e-05
2.35794e-23
7.84801e-09
2.19412e-06
0.001334
0.00133354
8.27418e-05
0.000387605
-2.36812e-20
0.933197
1
1
1
0.0770352
1.98931e-38
5.74252e-22
5.35209e-20
2.76693e-19
2.9825e-19
6.57604e-20
8.01478e-22
1.10477e-22
2.43277e-24
1.89129e-28
8.37014e-36
3.16015e-36
1.99546e-37
2.09816e-41
1.30303e-41
4.52074e-39
1.9815e-37
8.29684e-37
9.81476e-35
9.81518e-33
1.70341e-31
5.42492e-31
4.7354e-31
1.76991e-31
9.7049e-31
3.62493e-29
1.37792e-27
5.13732e-26
1.8693e-24
6.16768e-23
1.72194e-21
3.8923e-20
6.92844e-19
9.33162e-18
9.10298e-17
6.18913e-16
2.79322e-15
7.98306e-15
1.27994e-14
1.24089e-14
6.27446e-15
1.07964e-15
3.38068e-17
8.67092e-20
6.67309e-06
8.6204e-08
2.63815e-12
2.02552e-06
1.37485e-30
1.93855e-06
0.00133383
4.36531e-06
0.000713864
0.000144071
-6.38433e-20
1
1
1
1
1.01727e-19
-2.37595e-21
1.06446e-21
5.17494e-20
1.90038e-19
1.59778e-19
1.52114e-20
2.35869e-22
3.19926e-23
1.30009e-25
1.60567e-31
2.20335e-37
2.25893e-38
1.71928e-41
1.8036e-48
1.92411e-44
1.70733e-42
1.09184e-41
4.54009e-42
4.75131e-37
4.36304e-35
3.12119e-34
2.90363e-34
3.93721e-35
3.04942e-36
4.94349e-35
1.62256e-33
4.77617e-32
1.37822e-30
3.80044e-29
9.56144e-28
2.11962e-26
4.00299e-25
6.30432e-24
7.87781e-23
7.5342e-22
5.2883e-21
2.57091e-20
8.0337e-20
1.17711e-19
7.28584e-20
9.77904e-21
2.49542e-22
7.5962e-25
3.26004e-28
2.63815e-12
2.63815e-12
2.11766e-08
8.88969e-08
3.66621e-32
-2.68562e-28
0.000240164
1.35856e-06
0.000744368
-2.99612e-22
0.530754
1
1
1
0.771684
-1.99003e-20
-2.66183e-21
1.47227e-21
4.63432e-20
1.18405e-19
7.43404e-20
2.61504e-21
9.06238e-23
7.03642e-24
3.66195e-27
6.11377e-38
2.67089e-38
5.59633e-41
1.80443e-47
1.61874e-50
4.52488e-48
7.07783e-47
5.73984e-47
6.70065e-48
7.99738e-41
4.95779e-39
1.37551e-38
1.58033e-38
1.3088e-38
6.59718e-40
5.88669e-40
1.69086e-38
4.14541e-37
9.62715e-36
1.95135e-34
3.38574e-33
5.03947e-32
6.26367e-31
6.44901e-30
5.31575e-29
3.39242e-28
1.65173e-27
5.68063e-27
1.29633e-26
1.37247e-26
4.11507e-27
2.56761e-28
3.38977e-30
6.08466e-33
1.22991e-36
0.000224599
4.77497e-05
1.51727e-24
5.96225e-05
-7.50194e-25
7.94506e-31
1.01495e-06
1.61918e-06
0.000730282
2.4572e-22
0.947802
1
1
1
0.251438
4.32603e-37
-1.95677e-21
1.80263e-21
3.80526e-20
6.91127e-20
2.90095e-20
3.75687e-22
3.56463e-23
1.11628e-24
5.12283e-29
1.13458e-38
3.52037e-39
1.60138e-42
2.40498e-50
2.66127e-54
2.12744e-52
5.21624e-52
5.72125e-53
3.5088e-50
1.18414e-46
3.01917e-44
1.08074e-41
4.23457e-41
2.10792e-41
4.11685e-43
1.30508e-45
3.73012e-44
8.53803e-43
1.69046e-41
2.72409e-40
3.5725e-39
3.81269e-38
3.38022e-37
2.38038e-36
1.30524e-35
5.61156e-35
1.85884e-34
4.49632e-34
7.1945e-34
4.97658e-34
9.29819e-35
4.2188e-36
3.94868e-38
4.93381e-41
4.25753e-45
2.28578e-22
4.11345e-05
-2.99204e-25
5.97741e-05
-4.61829e-25
5.07056e-08
2.5574e-06
0.000578575
6.33021e-05
0.00479882
1
1
1
1
0.0107328
-2.9201e-21
-1.92129e-21
1.92353e-21
2.83127e-20
3.82273e-20
9.07723e-21
6.8823e-23
1.30883e-23
1.24627e-25
2.38193e-31
9.65337e-39
1.73027e-40
1.03275e-46
2.97329e-52
-6.27378e-74
-5.26886e-57
1.8089e-57
1.16714e-58
5.92824e-55
1.28238e-52
2.22874e-49
3.89608e-46
3.42415e-45
3.18855e-45
1.60849e-46
4.25623e-50
1.50667e-50
3.49812e-49
6.44482e-48
9.07715e-47
1.0482e-45
9.1894e-45
6.19601e-44
3.22401e-43
1.31281e-42
4.2722e-42
1.0263e-41
1.82617e-41
2.19188e-41
1.10022e-41
1.62377e-42
5.9476e-44
4.23871e-46
3.79143e-49
4.26643e-54
0.000442062
0.000572279
3.29263e-05
3.22901e-05
1.41164e-05
3.66197e-06
2.13204e-07
0.000469962
3.81731e-23
0.745747
1
1
1
0.994858
-5.71875e-20
-3.53995e-21
-1.73785e-21
1.82295e-21
1.88019e-20
1.93981e-20
2.20106e-21
2.09753e-23
4.18826e-24
9.64384e-27
2.60165e-33
9.15229e-40
1.36897e-41
6.68699e-48
-6.94561e-54
-3.0143e-55
-6.23617e-57
-1.85815e-58
-6.97653e-60
5.7627e-61
2.35092e-58
8.84659e-57
4.4631e-52
1.73027e-50
2.68893e-50
3.67898e-51
2.68818e-55
1.47308e-57
3.23246e-56
5.25161e-55
6.89073e-54
7.16864e-53
5.74809e-52
3.54656e-51
1.62077e-50
5.76107e-50
1.58351e-49
3.20317e-49
4.55413e-49
4.28337e-49
1.91788e-49
2.44766e-50
6.97982e-52
-5.44569e-70
-4.43863e-52
-5.81469e-52
0.00889823
0.00154954
-7.73888e-22
6.97167e-26
2.26685e-05
6.55454e-06
4.6101e-05
0.000105129
-2.06935e-19
1
1
1
1
0.362964
-1.35474e-21
-2.80161e-21
-1.48778e-21
1.51109e-21
1.10636e-20
8.74006e-21
3.97434e-22
7.70839e-24
1.13463e-24
5.03166e-28
5.72074e-36
9.62126e-41
2.57592e-44
1.48861e-53
-5.11657e-54
-1.62519e-55
-6.12734e-57
-2.35387e-58
-9.67443e-60
-4.59989e-61
-1.86319e-62
6.43357e-64
1.36045e-58
1.34193e-56
2.94097e-56
5.86097e-57
3.94298e-61
1.07455e-64
2.04638e-63
2.74211e-62
3.03032e-61
2.6324e-60
1.79433e-59
9.33925e-59
3.573e-58
9.66266e-58
1.0227e-57
-4.84278e-57
-1.2995e-55
-2.31322e-54
-1.20268e-53
-4.23263e-53
-1.06135e-52
-1.71289e-52
-2.04464e-52
-1.83493e-52
0.00889823
0.00127053
1.97722e-10
7.0841e-06
3.81743e-05
6.978e-06
0.00049837
6.78949e-23
0.548139
1
1
1
1
0.0259106
-1.57405e-21
-2.64174e-21
-1.29941e-21
1.08007e-21
5.80405e-21
3.36046e-21
5.24603e-23
2.8286e-24
2.54179e-25
1.72711e-29
3.95613e-38
1.07945e-41
6.47609e-48
-6.5294e-53
-2.71247e-54
-1.12579e-55
-4.74174e-57
-2.00472e-58
-8.70374e-60
-4.02532e-61
-1.83679e-62
-7.52046e-64
2.22263e-65
5.22339e-63
1.07889e-62
2.09244e-63
2.66713e-67
-4.70512e-69
-2.17739e-67
-8.13769e-66
-2.49094e-64
-6.35597e-63
-1.3649e-61
-2.466e-60
-3.72579e-59
-4.67434e-58
-4.85437e-57
-4.14001e-56
-2.84481e-55
-1.53021e-54
-6.18834e-54
-1.78284e-53
-3.51337e-53
-4.86404e-53
-5.05559e-53
-3.96785e-53
1.72217e-11
0.00495343
0.00027818
3.13356e-24
8.80238e-05
3.674e-22
8.85165e-05
-5.30444e-20
1
1
1
1
1
-7.06673e-20
-3.03259e-21
-2.44799e-21
-1.10524e-21
6.48635e-22
2.77397e-21
1.07428e-21
5.32648e-24
9.89079e-25
4.61962e-26
3.3927e-31
3.22565e-40
3.92673e-43
-1.12903e-68
-3.44362e-53
-1.55115e-54
-6.877e-56
-3.04124e-57
-1.35054e-58
-6.10254e-60
-2.84539e-61
-1.33663e-62
-6.15968e-64
-2.7245e-65
-1.07274e-66
-2.43804e-68
-1.06309e-69
-1.18181e-69
-8.17934e-70
-3.45075e-68
-1.25285e-66
-3.87635e-65
-1.01806e-63
-2.26343e-62
-4.24482e-61
-6.69044e-60
-8.81173e-59
-9.60838e-58
-8.54412e-57
-6.05482e-56
-3.30648e-55
-1.32822e-54
-3.71776e-54
-6.99892e-54
-9.1132e-54
-8.72547e-54
-6.26911e-54
2.81228e-11
2.89744e-12
0.000586391
0.000271525
1.46899e-23
0.000304395
-3.32008e-23
0.52929
1
1
1
1
0.323984
-2.80522e-21
-3.39118e-21
-2.11488e-21
-8.92872e-22
3.01629e-22
1.2055e-21
2.77299e-22
5.70478e-25
3.19014e-25
6.87233e-27
1.24673e-33
1.16938e-40
8.85138e-48
-2.51846e-50
-3.19852e-53
-8.32331e-55
-3.68771e-56
-1.66265e-57
-7.59393e-59
-3.53015e-60
-1.67699e-61
-8.05525e-63
-3.86476e-64
-1.82974e-65
-8.34246e-67
-3.35194e-68
-1.68245e-69
-3.21004e-70
-5.71917e-71
-2.40247e-69
-9.28275e-68
-3.07617e-66
-8.6997e-65
-2.08946e-63
-4.24073e-62
-7.22769e-61
-1.02611e-59
-1.19931e-58
-1.13394e-57
-8.44956e-57
-4.77395e-56
-1.94285e-55
-5.38123e-55
-9.82838e-55
-1.22487e-54
-1.10462e-54
-7.42969e-55
9.29629e-11
1.49866e-10
5.51141e-24
-6.40893e-24
7.10707e-05
7.0161e-05
-2.33369e-19
1
1
1
1
1
0.00483303
-2.73016e-21
-2.60644e-21
-1.65702e-21
-6.89931e-22
7.67768e-23
4.67759e-22
5.7709e-23
9.60459e-26
8.91595e-26
8.62319e-28
1.24671e-40
1.09731e-41
-1.05241e-45
-5.60901e-49
-7.93627e-52
-5.20195e-54
-1.09711e-55
-2.5215e-57
-6.41857e-59
-2.09493e-60
-8.74178e-62
-4.1173e-63
-2.00796e-64
-9.79163e-66
-4.68237e-67
-2.11112e-68
-9.5566e-70
-7.82475e-71
-4.54835e-72
-1.19382e-70
-4.94054e-69
-1.76232e-67
-5.38357e-66
-1.4001e-64
-3.08026e-63
-5.68657e-62
-8.72069e-61
-1.09541e-59
-1.10428e-58
-8.67561e-58
-5.09191e-57
-2.10987e-56
-5.81326e-56
-1.03359e-55
-1.23461e-55
-1.05717e-55
-6.72503e-56
9.77547e-11
2.00614e-09
2.72408e-08
-6.76548e-23
2.18157e-05
1.35188e-37
0.784613
1
1
1
1
0.810858
-3.55245e-20
-2.93143e-21
-2.04529e-21
-1.24504e-21
-5.2181e-22
-2.14891e-23
1.55386e-22
1.02124e-23
1.31377e-26
2.07636e-26
1.0065e-28
2.18047e-51
-1.60216e-41
-1.05931e-44
-1.23674e-47
-3.86477e-50
-4.4354e-52
-8.24878e-54
-1.36562e-55
-1.97008e-57
-2.47796e-59
-2.87914e-61
-4.01612e-63
-1.04722e-64
-4.45977e-66
-2.13356e-67
-1.0047e-68
-4.57113e-70
-2.43931e-71
-1.0448e-72
-4.60499e-72
-2.02579e-70
-7.77539e-69
-2.56459e-67
-7.21594e-66
-1.71924e-64
-3.43501e-63
-5.68614e-62
-7.67382e-61
-8.24906e-60
-6.83443e-59
-4.16876e-58
-1.76186e-57
-4.84143e-57
-8.40276e-57
-9.65406e-57
-7.88839e-57
-4.76218e-57
1.21376e-10
4.11698e-08
1.01243e-08
0.000194169
9.21359e-06
0.178341
1
1
1
1
1
0.121882
-1.457e-21
-2.81177e-21
-1.55563e-21
-9.37883e-22
-3.9195e-22
-4.62019e-23
4.0654e-23
1.86089e-24
-1.88047e-28
3.07828e-27
1.52636e-29
-1.17146e-52
-6.63861e-41
-1.01842e-43
-2.56324e-46
-1.67665e-48
-2.73228e-50
-4.64447e-52
-7.01615e-54
-9.28249e-56
-1.06864e-57
-1.06921e-59
-9.3547e-62
-7.36465e-64
-6.29291e-66
-1.07517e-67
-4.0124e-69
-1.80376e-70
-8.46053e-72
-3.69234e-73
-1.54019e-73
-6.57376e-72
-2.71257e-70
-9.64355e-69
-2.93248e-67
-7.55579e-66
-1.63227e-64
-2.91396e-63
-4.22234e-62
-4.83756e-61
-4.22758e-60
-2.68009e-59
-1.15595e-58
-3.17288e-58
-5.38587e-58
-5.96457e-58
-4.6611e-58
-2.67292e-58
7.59918e-10
9.94526e-09
0.000186309
3.92749e-05
1.03735e-18
1
1
1
1
1
1
-1.52828e-19
-5.35308e-21
-2.06352e-21
-1.24948e-21
-7.16208e-22
-2.90948e-22
-4.87753e-23
5.45921e-24
4.46762e-25
-5.9271e-27
-2.63747e-28
2.56946e-30
-1.33951e-53
-2.90666e-40
-9.01363e-43
-4.68455e-45
-5.5909e-47
-1.00362e-48
-1.61814e-50
-2.31193e-52
-2.90575e-54
-3.20486e-56
-3.1051e-58
-2.65025e-60
-1.99792e-62
-1.33895e-64
-8.17424e-67
-5.41889e-69
-7.78189e-71
-2.74669e-72
-1.17126e-73
-8.27509e-75
-1.71512e-73
-7.59472e-72
-2.90896e-70
-9.54574e-69
-2.65712e-67
-6.19767e-66
-1.19252e-64
-1.85418e-63
-2.26438e-62
-2.08791e-61
-1.37699e-60
-6.06271e-60
-1.66244e-59
-2.76278e-59
-2.95171e-59
-2.20695e-59
-1.20181e-59
6.11251e-10
0.000126653
5.53406e-06
5.22348e-19
0.972358
1
1
1
1
1
0.218747
-4.74054e-21
-2.80607e-21
-1.77327e-21
-1.02299e-21
-5.34239e-22
-2.09308e-22
-4.1721e-23
-1.6594e-24
3.93617e-26
-1.06964e-26
-8.60231e-28
-1.48421e-30
-2.12218e-37
-1.1493e-39
-6.94476e-42
-6.8473e-44
-1.19394e-45
-2.13633e-47
-3.36536e-49
-4.6779e-51
-5.72868e-53
-6.18547e-55
-5.91058e-57
-5.01661e-59
-3.7956e-61
-2.56832e-63
-1.5595e-65
-8.5262e-68
-4.31262e-70
-2.53552e-72
-3.81274e-74
-1.36802e-75
-3.67255e-75
-1.72462e-73
-7.11035e-72
-2.5166e-70
-7.56121e-69
-1.90287e-67
-3.94395e-66
-6.57933e-65
-8.56563e-64
-8.33867e-63
-5.72656e-62
-2.57706e-61
-7.06214e-61
-1.14784e-60
-1.18235e-60
-8.45508e-61
-4.36743e-61
4.37036e-05
4.66527e-05
-2.92765e-19
0.966204
1
1
1
1
1
1
1.69581e-21
-3.07821e-21
-2.70121e-21
-1.52598e-21
-7.90233e-22
-3.78499e-22
-1.43817e-22
-3.21405e-23
-2.82489e-24
-8.84321e-26
-1.35248e-26
-9.49659e-28
-1.67705e-30
-4.36462e-37
-3.95415e-39
-4.301e-41
-6.96107e-43
-1.41223e-44
-2.53724e-46
-3.98956e-48
-5.51345e-50
-6.71529e-52
-7.2296e-54
-6.91966e-56
-5.91468e-58
-4.53539e-60
-3.13065e-62
-1.9512e-64
-1.09951e-66
-5.60899e-69
-2.59949e-71
-1.14158e-73
-6.80614e-76
-7.45939e-77
-3.20292e-75
-1.42064e-73
-5.42013e-72
-1.75717e-70
-4.77058e-69
-1.0649e-67
-1.90629e-66
-2.64694e-65
-2.72305e-64
-1.94924e-63
-8.97477e-63
-2.45935e-62
-3.91031e-62
-3.87854e-62
-2.64738e-62
-1.29477e-62
0.215236
0.150968
1
1
1
1
1
1
1
0.17569
-1.0885e-36
-4.52456e-21
-2.47176e-21
-1.21184e-21
-5.70849e-22
-2.53466e-22
-9.38855e-23
-2.31488e-23
-2.88966e-24
-1.67264e-25
-1.39621e-26
-9.5194e-28
-6.98128e-30
-8.51905e-37
-1.16487e-38
-1.98444e-40
-4.30331e-42
-9.04176e-44
-1.64808e-45
-2.61923e-47
-3.65212e-49
-4.48896e-51
-4.8883e-53
-4.74286e-55
-4.12517e-57
-3.23189e-59
-2.289e-61
-1.46997e-63
-8.57045e-66
-4.54544e-68
-2.18966e-70
-9.56661e-73
-3.82277e-75
-1.62242e-77
-4.89542e-77
-2.33329e-75
-9.60218e-74
-3.36099e-72
-9.84757e-71
-2.36858e-69
-4.55242e-68
-6.74681e-67
-7.34034e-66
-5.48374e-65
-2.58487e-64
-7.08431e-64
-1.10153e-63
-1.05136e-63
-6.84319e-64
-3.16431e-64
1
1
1
1
1
1
1
1
1
1
1
1
1
1
1
1
1
0.999999
1
1
1
1
1
1
1
1
1
1
1
1
1
1
1
1
1
1
1
1
0.999999
1
1
1
1
1
1
1
1
1
1
1
1
1
1
1
1
1
1
1
1
0.999999
1
1
1
1
1
1
1
1
1
1
1
1
1
1
1
1
1
1
1
1
1
1
1
1
1
1
1
1
1
1
1
1
1
1
1
1
1
1
1
0.999999
1
1
1
1
1
1
1
1
1
1
1
1
1
1
1
1
1
1
1
1
1
1
1
1
1
1
1
1
1
1
1
1
1
1
1
1
1
1
1
1
1
1
1
1
1
1
1
1
1
1
1
1
0.999999
0.999999
1
1
1
1
1
1
1
1
1
1
1
1
1
1
1
1
1
1
1
1
1
1
1
1
1
1
1
1
1
1
1
1
1
1
1
1
1
1
1
1
1
1
1
1
1
1
1
1
1
1
1
1
1
1
1
1
1
1
1
1
1
1
1
1
1
1
1
1
1
1
1
1
1
1
1
1
1
1
1
1
1
1
1
1
1
1
0.142057
1
1
1
0.999857
0.999668
1
1
1
1
1
1
0.999513
0.997566
0.993949
0.983799
0.96363
0.92823
0.866573
0.787418
-3.36941e-25
-3.5899e-21
8.37721e-07
-5.37419e-23
-2.93688e-23
-2.07294e-23
-3.94446e-23
-7.11348e-23
-1.12441e-22
-1.61116e-22
-2.15083e-22
-2.72493e-22
-3.29246e-22
-3.8057e-22
-4.26832e-22
-4.72692e-22
-5.22742e-22
-5.73707e-22
-6.28588e-22
-6.404e-22
-9.05479e-26
-1.01697e-24
-5.85473e-24
-1.32352e-23
-2.39581e-23
-3.80147e-23
-5.45926e-23
-7.21866e-23
-8.91858e-23
-1.04083e-22
-1.15689e-22
-1.23361e-22
-1.26643e-22
-1.25363e-22
-1.19822e-22
-1.10836e-22
-9.94621e-23
-8.65402e-23
-7.3827e-23
-6.20167e-23
-1.69642e-26
-5.78986e-26
-3.01969e-25
-8.53192e-25
-1.78677e-24
-3.13855e-24
-4.86058e-24
-6.82146e-24
-8.83245e-24
-1.06821e-23
-1.21756e-23
-1.31672e-23
-1.357e-23
-1.337e-23
-1.26309e-23
-1.14793e-23
-1.00714e-23
-8.56749e-24
-7.12066e-24
-5.79429e-24
-2.36347e-27
-4.30742e-27
-1.76428e-26
-5.5038e-26
-1.30058e-25
-2.52432e-25
-4.23074e-25
-6.31814e-25
-8.58334e-25
-1.07618e-24
-1.25864e-24
-1.38455e-24
-1.44215e-24
-1.43053e-24
-1.35866e-24
-1.24214e-24
-1.09915e-24
-9.4697e-25
-7.99208e-25
-6.62868e-25
-2.44176e-28
-3.6956e-28
-1.31619e-27
-4.24773e-27
-1.09134e-26
-2.30274e-26
-4.14651e-26
-6.55973e-26
-9.31284e-26
-1.20667e-25
-1.4474e-25
-1.62716e-25
-1.73251e-25
-1.76212e-25
-1.72313e-25
-1.62767e-25
-1.49069e-25
-1.32884e-25
-1.15839e-25
-9.92313e-26
-2.12007e-29
-3.21112e-29
-1.0981e-28
-3.71468e-28
-1.02744e-27
-2.33696e-27
-4.48962e-27
-7.4503e-27
-1.09299e-26
-1.45252e-26
-1.78807e-26
-2.07489e-26
-2.29497e-26
-2.43155e-26
-2.47026e-26
-2.40708e-26
-2.2556e-26
-2.0457e-26
-1.81289e-26
-1.58567e-26
-1.57932e-30
-2.53027e-30
-8.938e-30
-3.26593e-29
-9.72793e-29
-2.36746e-28
-4.79249e-28
-8.20012e-28
-1.2258e-27
-1.66502e-27
-2.11864e-27
-2.56341e-27
-2.95335e-27
-3.22497e-27
-3.32754e-27
-3.25433e-27
-3.04774e-27
-2.77432e-27
-2.49117e-27
-2.22762e-27
-8.69223e-32
-1.65402e-31
-6.15423e-31
-2.49161e-30
-7.97354e-30
-2.04916e-29
-4.28661e-29
-7.41263e-29
-1.1177e-28
-1.55533e-28
-2.05664e-28
-2.58361e-28
-3.04432e-28
-3.33565e-28
-3.40843e-28
-3.29549e-28
-3.07979e-28
-2.83727e-28
-2.60416e-28
-2.38293e-28
-2.49509e-33
-7.61629e-33
-3.05361e-32
-1.39363e-31
-4.73477e-31
-1.25918e-30
-2.66027e-30
-4.5669e-30
-6.91419e-30
-9.89195e-30
-1.35501e-29
-1.73846e-29
-2.04621e-29
-2.20454e-29
-2.21138e-29
-2.12546e-29
-2.01085e-29
-1.89678e-29
-1.78084e-29
-1.65365e-29
-1.81592e-35
-1.94898e-34
-8.94676e-34
-4.54968e-33
-1.5923e-32
-4.27004e-32
-8.91152e-32
-1.49937e-31
-2.28098e-31
-3.362e-31
-4.72306e-31
-6.07042e-31
-7.00828e-31
-7.3633e-31
-7.29588e-31
-7.08527e-31
-6.87492e-31
-6.64007e-31
-6.3167e-31
-5.89529e-31
-5.41309e-39
-1.73722e-36
-1.00877e-35
-5.33164e-35
-1.83533e-34
-4.85108e-34
-9.857e-34
-1.61872e-33
-2.49053e-33
-3.78309e-33
-5.38039e-33
-6.80815e-33
-7.61904e-33
-7.8181e-33
-7.76668e-33
-7.73296e-33
-7.69518e-33
-7.52016e-33
-7.16468e-33
-6.68446e-33
1
1
1
1
1
1
1
1
1
1
1
1
1
1
1
1
1
1
1
1
1
1
1
1
1
1
1
1
1
1
1
1
1
1
1
1
1
1
0.999999
0.999999
1
1
1
1
1
0.999999
0.999999
1
1
1
1
1
1
1
1
1
1
1
1
1
1
1
1
1
1
1
1
0.999999
1
1
1
1
1
1
1
1
1
1
0.999999
1
0.999999
0.999999
0.999999
1
1
1
1
1
1
1
1
1
1
1
1
1
1
1
1
1
1
1
1
0.999999
1
1
1
1
1
1
1
1
1
1
1
1
1
1
1
0.913761
1
1
1
1
1
1
1
1
1
1
1
1