/*--------------------------------*- C++ -*----------------------------------*\
| =========                 |                                                 |
| \\      /  F ield         | OpenFOAM: The Open Source CFD Toolbox           |
|  \\    /   O peration     | Version:  v1912                                 |
|   \\  /    A nd           | Website:  www.openfoam.com                      |
|    \\/     M anipulation  |                                                 |
\*---------------------------------------------------------------------------*/
FoamFile
{
    version     2.0;
    format      ascii;
    class       surfaceScalarField;
    location    "14";
    object      alphaPhi0.water;
}
// * * * * * * * * * * * * * * * * * * * * * * * * * * * * * * * * * * * * * //

dimensions      [0 3 -1 0 0 0 0];
oriented        oriented;


internalField   nonuniform List<scalar> 
40282
(
0.00284746
0.0025129
1.94442
-1.95132
1.94625
0.00507289
-1.93783
1.92646
0.0113747
-1.91245
1.89581
0.0166381
-1.87636
1.85436
0.022009
-1.83017
1.80352
0.0266435
-1.77436
1.7433
0.0310593
-1.71039
1.67536
0.0350364
-1.63853
1.60023
0.0383067
-1.56032
1.519
0.0413162
-1.47662
1.4333
0.043319
-1.38939
1.34537
0.0440192
-1.30147
1.25809
0.0433792
-1.21574
1.17383
0.0419122
-1.12996
1.08033
0.0496302
-1.02088
0.948075
0.0728023
-0.858998
0.752233
0.106766
-0.627576
0.484601
0.142975
-0.327858
0.175734
0.152125
-0.0553205
-0.0113485
0.066669
-0.00399099
0.00530843
1.87861
-1.87445
1.86794
-0.0132607
0.0197673
-1.85888
1.84724
-0.023921
0.0355604
-1.83303
1.81626
-0.0341946
0.0509586
-1.79705
1.77544
-0.0440764
0.0656906
-1.75142
1.72518
-0.0534195
0.0796578
-1.6968
1.66617
-0.0621819
0.0928104
-1.63347
1.59887
-0.0702355
0.104837
-1.56226
1.52382
-0.0772707
0.115709
-1.48377
1.44195
-0.0835206
0.125338
-1.39862
1.35428
-0.0884062
0.132749
-1.30874
1.26178
-0.0908791
0.13784
-1.21339
1.16239
-0.0916638
0.142659
-1.10638
1.0436
-0.0966694
0.159446
-0.974214
0.899656
-0.116048
0.190606
-0.821649
0.741661
-0.152034
0.232022
-0.660891
0.580357
-0.197309
0.277842
-0.501149
0.424511
-0.237741
0.314379
-0.350462
0.2756
-0.239814
0.314676
-0.19448
0.103466
-0.164287
0.255301
-0.00666903
0.0079714
1.81127
-1.80727
1.80077
-0.0265672
0.0330611
-1.79174
1.78021
-0.0474843
0.0590205
-1.76625
1.74985
-0.0678886
0.0842818
-1.73102
1.70983
-0.0875235
0.108712
-1.6863
1.66043
-0.106151
0.132023
-1.63238
1.60218
-0.123748
0.153944
-1.56974
1.53526
-0.14001
0.174495
-1.49888
1.46044
-0.154693
0.193137
-1.42013
1.37839
-0.167901
0.209637
-1.33495
1.28954
-0.178127
0.223537
-1.24235
1.19232
-0.1867
0.236722
-1.13743
1.07683
-0.200346
0.26095
-1.01125
0.942013
-0.228666
0.297909
-0.870301
0.797136
-0.266822
0.339987
-0.723441
0.650093
-0.310245
0.383594
-0.577895
0.507485
-0.353757
0.424167
-0.439152
0.372561
-0.3855
0.452092
-0.30645
0.238597
-0.386204
0.454056
-0.166361
0.0874738
-0.341634
0.420521
-0.00921268
0.0104606
1.7464
-1.74267
1.73642
-0.0395114
0.0457576
-1.72775
1.71664
-0.0705335
0.0816422
-1.70305
1.68704
-0.100815
0.116818
-1.6687
1.64798
-0.130071
0.150789
-1.62494
1.59967
-0.158102
0.183371
-1.57208
1.54218
-0.184596
0.21449
-1.51025
1.47623
-0.209388
0.243413
-1.43995
1.40181
-0.232306
0.27045
-1.36196
1.31996
-0.252231
0.29423
-1.27587
1.2296
-0.270241
0.316519
-1.17959
1.12447
-0.29044
0.34556
-1.06452
1.001
-0.324976
0.388497
-0.935116
0.867763
-0.367862
0.435216
-0.799608
0.731212
-0.412088
0.480484
-0.663086
0.59569
-0.455028
0.522424
-0.52939
0.464383
-0.492761
0.557768
-0.400593
0.337593
-0.517832
0.580833
-0.274574
0.210436
-0.521141
0.585278
-0.143991
0.0741797
-0.495673
0.565484
-0.0116683
0.012868
1.68384
-1.68024
1.67428
-0.0519747
0.0579386
-1.6659
1.65512
-0.0928101
0.10359
-1.64204
1.62665
-0.132808
0.148199
-1.60888
1.5888
-0.1716
0.191677
-1.56648
1.54181
-0.208815
0.233481
-1.51491
1.48595
-0.2445
0.273459
-1.45474
1.4212
-0.277869
0.311404
-1.38581
1.34857
-0.308858
0.346091
-1.30906
1.26743
-0.337004
0.378634
-1.22339
1.17535
-0.36439
0.412425
-1.12237
1.06511
-0.403218
0.460477
-1.00488
0.94277
-0.452753
0.514867
-0.879508
0.815601
-0.502095
0.566001
-0.75144
0.687357
-0.547836
0.611919
-0.623641
0.560528
-0.588696
0.651809
-0.498168
0.43659
-0.622056
0.683634
-0.375671
0.315116
-0.643659
0.704214
-0.254477
0.193196
-0.649038
0.710319
-0.130689
0.0664146
-0.633414
0.697688
-0.0140068
0.0151279
1.62365
-1.62007
1.61434
-0.0638948
0.0696174
-1.60636
1.59618
-0.114283
0.124461
-1.58372
1.56893
-0.163583
0.178379
-1.55193
1.53275
-0.211691
0.230864
-1.51129
1.48762
-0.258159
0.281826
-1.46189
1.43387
-0.302449
0.330466
-1.40355
1.3714
-0.344973
0.377126
-1.33738
1.30102
-0.383611
0.419966
-1.26251
1.22155
-0.420627
0.461582
-1.17665
1.12696
-0.462335
0.512026
-1.0732
1.01666
-0.518668
0.575211
-0.958347
0.898911
-0.576815
0.636252
-0.838774
0.778243
-0.629317
0.689848
-0.717565
0.65695
-0.675311
0.735925
-0.596573
0.536562
-0.714382
0.774393
-0.476983
0.417828
-0.745013
0.804168
-0.359003
0.30033
-0.76486
0.823533
-0.241562
0.182406
-0.771558
0.830714
-0.122561
0.0617551
-0.761177
0.821983
-0.0161957
0.0172499
1.56527
-1.56222
1.55689
-0.0752701
0.0806016
-1.54947
1.53986
-0.134526
0.144135
-1.52804
1.51418
-0.193032
0.206901
-1.49825
1.48009
-0.249887
0.268045
-1.45977
1.43745
-0.305265
0.327588
-1.41292
1.38614
-0.358455
0.38524
-1.35754
1.32711
-0.408992
0.439414
-1.29435
1.25938
-0.456393
0.491365
-1.2221
1.18111
-0.503233
0.544219
-1.13545
1.08568
-0.562873
0.612643
-1.03303
0.978513
-0.631853
0.68637
-0.922753
0.866135
-0.695337
0.751954
-0.808923
0.751322
-0.749943
0.807545
-0.693503
0.63561
-0.796189
0.854082
-0.577761
0.520038
-0.83426
0.891982
-0.462484
0.405093
-0.863444
0.920835
-0.347813
0.290547
-0.882511
0.939777
-0.233163
0.175509
-0.890115
0.947769
-0.117433
0.0588259
-0.882647
0.941254
-0.0182453
0.0192075
1.50936
-1.50658
1.50171
-0.0857925
0.0906659
-1.4948
1.48586
-0.153615
0.162548
-1.47505
1.46233
-0.22044
0.233167
-1.44747
1.43054
-0.285957
0.302888
-1.41173
1.39088
-0.349583
0.370433
-1.36785
1.343
-0.411601
0.436448
-1.31642
1.28758
-0.469605
0.498449
-1.25648
1.22325
-0.526098
0.559326
-1.18672
1.14567
-0.58604
0.627097
-1.10033
1.05185
-0.662791
0.711269
-1.00126
0.949204
-0.740651
0.792706
-0.896069
0.842101
-0.808227
0.862195
-0.787479
0.732355
-0.864881
0.920005
-0.676858
0.621099
-0.911877
0.967636
-0.565171
0.50914
-0.949827
1.00586
-0.45305
0.396911
-0.978571
1.03471
-0.340709
0.284405
-0.99753
1.05383
-0.227938
0.171239
-1.00589
1.06258
-0.114244
0.0569568
-1.0001
1.05739
-0.0200925
0.0209293
1.45537
-1.45269
1.44825
-0.0954127
0.0998562
-1.44199
1.43404
-0.171174
0.179125
-1.42436
1.41272
-0.245574
0.257215
-1.39913
1.38383
-0.319348
0.334648
-1.36673
1.34757
-0.390838
0.409996
-1.32658
1.30397
-0.460622
0.483227
-1.2793
1.25236
-0.526942
0.553882
-1.22344
1.19175
-0.592341
0.624035
-1.15583
1.11545
-0.668673
0.709051
-1.07155
1.02519
-0.75963
0.805993
-0.977066
0.927591
-0.844405
0.89388
-0.877006
0.825478
-0.915884
0.967411
-0.773145
0.720124
-0.975025
1.02805
-0.666523
0.612439
-1.02351
1.07759
-0.557955
0.503139
-1.06224
1.11705
-0.448043
0.392702
-1.0914
1.14675
-0.337134
0.281344
-1.11082
1.16661
-0.225323
0.169056
-1.11995
1.17621
-0.112534
0.0558645
-1.11517
1.17184
-0.0216879
0.0223992
1.40344
-1.40107
1.39715
-0.104133
0.108048
-1.39176
1.38487
-0.186675
0.193564
-1.37625
1.36587
-0.268473
0.278857
-1.35397
1.34054
-0.34929
0.362719
-1.32525
1.30815
-0.42851
0.445613
-1.28955
1.2692
-0.505113
0.525467
-1.24666
1.2222
-0.580128
0.604589
-1.19551
1.16515
-0.655634
0.686
-1.13029
1.09152
-0.749465
0.78824
-1.04985
1.00606
-0.851942
0.89573
-0.960603
0.913727
-0.942944
0.98982
-0.865591
0.816318
-1.01872
1.06799
-0.766014
0.71478
-1.0811
1.13233
-0.66271
0.609896
-1.13198
1.18479
-0.556421
0.502362
-1.17243
1.22649
-0.447786
0.392754
-1.20287
1.2579
-0.337316
0.281516
-1.22332
1.27912
-0.225389
0.168961
-1.23335
1.28978
-0.112263
0.0555351
-1.22924
1.28597
-0.0230391
0.0236315
1.35319
-1.35117
1.34794
-0.111705
0.11494
-1.34348
1.3376
-0.200063
0.205942
-1.33018
1.32144
-0.288644
0.297386
-1.31148
1.29996
-0.375424
0.38694
-1.28672
1.27207
-0.461827
0.476473
-1.25604
1.2381
-0.545011
0.562946
-1.21825
1.19657
-0.628104
0.649778
-1.172
1.14323
-0.716174
0.74494
-1.11026
1.07393
-0.826576
0.862899
-1.03509
0.994229
-0.938875
0.979735
-0.951623
0.907422
-1.03621
1.08041
-0.861728
0.814627
-1.11706
1.16416
-0.766205
0.716547
-1.18369
1.23334
-0.665739
0.613869
-1.23806
1.28993
-0.561026
0.507296
-1.28132
1.33505
-0.452769
0.39753
-1.31397
1.36921
-0.341668
0.285264
-1.33611
1.39251
-0.228399
0.171137
-1.34733
1.40459
-0.113557
0.0561144
-1.34375
1.4012
-0.0241517
0.0246144
1.30484
-1.30305
1.30056
-0.117856
0.120345
-1.29701
1.2922
-0.2114
0.216202
-1.28628
1.27944
-0.305339
0.31218
-1.27144
1.26193
-0.397669
0.407178
-1.2511
1.23922
-0.490012
0.501895
-1.2259
1.21076
-0.579848
0.594981
-1.19402
1.1752
-0.670412
0.689239
-1.15289
1.12641
-0.773178
0.799663
-1.0962
1.06306
-0.898357
0.931493
-1.02757
0.990001
-1.01972
1.05729
-0.95051
0.909167
-1.12401
1.16535
-0.866028
0.821146
-1.21102
1.2559
-0.774581
0.7264
-1.28316
1.33134
-0.676678
0.625497
-1.34238
1.39356
-0.572946
0.519125
-1.38976
1.44358
-0.464142
0.408113
-1.42577
1.4818
-0.351165
0.29343
-1.45046
1.50819
-0.23504
0.176116
-1.46333
1.52225
-0.116809
0.0579896
-1.46036
1.51918
-0.0249971
0.025309
1.25839
-1.25706
1.2553
-0.122504
0.124261
-1.25266
1.24912
-0.220477
0.224018
-1.24492
1.24001
-0.318158
0.323064
-1.23398
1.22673
-0.41575
0.422996
-1.21866
1.20971
-0.512521
0.521473
-1.19931
1.18739
-0.608808
0.62072
-1.17401
1.15817
-0.70693
0.722776
-1.13865
1.11531
-0.825154
0.848501
-1.08871
1.05945
-0.963358
0.992621
-1.02784
0.994035
-1.0937
1.12751
-0.958055
0.919913
-1.20589
1.24403
-0.879614
0.837171
-1.30042
1.34286
-0.792607
0.745961
-1.37966
1.4263
-0.69728
0.646631
-1.44541
1.49606
-0.594096
0.539776
-1.4986
1.55292
-0.483794
0.426297
-1.53951
1.597
-0.367455
0.307462
-1.56795
1.62795
-0.246523
0.184848
-1.5832
1.64487
-0.122736
0.0618723
-1.58116
1.64203
-0.0255349
0.0256811
1.21326
-1.21259
1.21155
-0.125688
0.126735
-1.20989
1.20778
-0.226912
0.229026
-1.20536
1.20233
-0.327097
0.330122
-1.19836
1.19368
-0.429105
0.433788
-1.18858
1.18265
-0.529062
0.534991
-1.17543
1.16707
-0.631085
0.639452
-1.15723
1.14474
-0.737272
0.749768
-1.12877
1.10946
-0.870338
0.889649
-1.08729
1.06263
-1.02018
1.04485
-1.03559
1.00617
-1.15981
1.18923
-0.974317
0.939972
-1.28104
1.31539
-0.903075
0.863581
-1.38468
1.42417
-0.821459
0.776692
-1.47293
1.51769
-0.729282
0.67925
-1.54736
1.59739
-0.626648
0.571554
-1.60862
1.66371
-0.51409
0.454418
-1.65658
1.71625
-0.392754
0.329365
-1.69059
1.75398
-0.264566
0.198711
-1.70942
1.77527
-0.132401
0.0688979
-1.70908
1.77259
-0.0257421
0.0257215
1.17002
-1.16981
1.16947
-0.127444
0.127786
-1.16887
1.16824
-0.230423
0.231056
-1.16754
1.16636
-0.332261
0.333437
-1.16461
1.16268
-0.437171
0.439105
-1.16058
1.15774
-0.539464
0.542303
-1.15395
1.14934
-0.646083
0.650696
-1.14327
1.13466
-0.760591
0.769204
-1.12303
1.1086
-0.906935
0.921371
-1.09167
1.07238
-1.06734
1.08663
-1.05069
1.02649
-1.21665
1.24085
-0.999631
0.969973
-1.34811
1.37777
-0.937377
0.901716
-1.46258
1.49824
-0.862876
0.820754
-1.56207
1.60419
-0.77526
0.726331
-1.64788
1.69681
-0.673933
0.618076
-1.72024
1.7761
-0.558827
0.496327
-1.7784
1.8409
-0.430809
0.362617
-1.82083
1.88903
-0.292211
0.220204
-1.84532
1.91733
-0.147792
0.0810939
-1.84817
1.91487
-0.0256226
0.0254457
1.12827
-1.12831
1.12867
-0.127775
0.127411
-1.12916
1.12995
-0.230963
0.230171
-1.13086
1.13152
-0.333695
0.333026
-1.13209
1.13291
-0.439662
0.438841
-1.13374
1.13403
-0.543602
0.543309
-1.1338
1.13306
-0.653433
0.654176
-1.13103
1.12685
-0.775785
0.779964
-1.12028
1.11146
-0.933299
0.942117
-1.10053
1.08743
-1.10323
1.11632
-1.07202
1.05406
-1.26246
1.28042
-1.03333
1.0096
-1.40514
1.42888
-0.982625
0.952186
-1.53212
1.56256
-0.91805
0.879984
-1.64526
1.68333
-0.837757
0.791147
-1.74568
1.79229
-0.739955
0.684024
-1.83319
1.88912
-0.62326
0.557674
-1.90618
1.97176
-0.487424
0.412865
-1.96171
2.03626
-0.334622
0.253706
-1.99566
2.07658
-0.172434
0.102116
-2.00489
2.07521
-0.0252012
0.0248852
1.088
-1.08863
1.08968
-0.126688
0.125638
-1.0912
1.09329
-0.228683
0.226591
-1.09569
1.09817
-0.331414
0.328933
-1.10101
1.10444
-0.436652
0.433228
-1.10804
1.11144
-0.541421
0.538028
-1.11476
1.1179
-0.65295
0.649809
-1.12012
1.12079
-0.781792
0.781122
-1.11978
1.11715
-0.948008
0.950638
-1.11287
1.10676
-1.12619
1.13229
-1.09857
1.08799
-1.2951
1.30568
-1.07472
1.05844
-1.44947
1.46576
-1.03882
1.01553
-1.5902
1.61349
-0.9882
0.956438
-1.71924
1.751
-0.919817
0.877879
-1.83779
1.87973
-0.830147
0.776144
-1.9455
1.9995
-0.715428
0.64764
-2.04
2.10779
-0.572599
0.490425
-2.11642
2.19859
-0.401725
0.307946
-2.1672
2.26098
-0.213236
0.139085
-2.18919
2.26334
-0.0245144
0.0240806
1.04904
-1.05003
1.05171
-0.124238
0.122555
-1.05415
1.05738
-0.223859
0.220629
-1.06114
1.06532
-0.325518
0.321334
-1.07025
1.07601
-0.428511
0.422749
-1.08218
1.08852
-0.533042
0.526701
-1.09522
1.10213
-0.644668
0.637763
-1.10863
1.11432
-0.777886
0.772196
-1.11912
1.123
-0.950024
0.946145
-1.12582
1.12733
-1.1347
1.13319
-1.1272
1.1251
-1.31226
1.31437
-1.12066
1.11352
-1.4779
1.48503
-1.10331
1.08958
-1.63268
1.6464
-1.07187
1.04963
-1.77897
1.80121
-1.02224
0.988979
-1.91866
1.95192
-0.949002
0.901366
-2.05206
2.09969
-0.845027
0.778885
-2.1769
2.24305
-0.701884
0.613222
-2.28684
2.3755
-0.51271
0.401593
-2.3694
2.48052
-0.286456
0.206256
-2.41987
2.50007
-0.0236049
0.0230758
1.01155
-1.01305
1.01528
-0.120549
0.118315
-1.0185
1.02269
-0.216828
0.212642
-1.02762
1.03331
-0.316275
0.310583
-1.04005
1.04781
-0.415818
0.408056
-1.05623
1.06522
-0.518846
0.509851
-1.07498
1.08536
-0.628916
0.618543
-1.09594
1.1065
-0.763879
0.753316
-1.117
1.12736
-0.938868
0.928511
-1.13738
1.14679
-1.12765
1.11824
-1.15525
1.16242
-1.31186
1.30469
-1.16795
1.17149
-1.48704
1.4835
-1.17264
1.17099
-1.65455
1.6562
-1.16603
1.15719
-1.81755
1.82639
-1.14375
1.12484
-1.97931
1.99823
-1.09936
1.06594
-2.14224
2.17566
-1.02289
0.968114
-2.30658
2.36135
-0.899089
0.812968
-2.46789
2.55401
-0.706835
0.578929
-2.61158
2.73949
-0.436257
0.340897
-2.73182
2.82718
-0.0225177
0.0219159
0.975538
-0.977117
0.979797
-0.115799
0.113119
-0.983628
0.988576
-0.207966
0.203018
-0.994483
1.00141
-0.304119
0.297188
-1.0096
1.01897
-0.399282
0.389911
-1.02926
1.04048
-0.499496
0.488273
-1.05281
1.06616
-0.60639
0.593036
-1.08034
1.09528
-0.740247
0.725305
-1.11098
1.12736
-0.914814
0.898433
-1.14424
1.16134
-1.10468
1.08758
-1.17838
1.19506
-1.29253
1.27584
-1.21111
1.22623
-1.47407
1.45895
-1.24012
1.25248
-1.65093
1.63858
-1.26294
1.27107
-1.82713
1.819
-1.27634
1.27808
-2.00773
2.006
-1.27538
1.26704
-2.19841
2.20676
-1.25139
1.22613
-2.40517
2.43042
-1.18801
1.13242
-2.6333
2.68889
-1.05267
0.939428
-2.88377
2.99701
-0.789061
0.702289
-3.18183
3.2686
-0.250075
0.572052
-0.321977
0.688415
-0.958935
0.270337
1.12407
-1.22742
0.103629
1.30606
-1.37884
0.072352
1.40215
-1.29027
-0.111882
1.07014
-0.830743
-0.2394
0.629425
-0.502974
-0.126451
0.438686
-0.411962
-0.0267231
0.420651
-0.472227
0.0515466
0.574636
-0.731399
0.156763
0.946247
-1.22341
0.277598
1.5569
-1.93526
0.378022
2.34068
-2.76386
0.422949
3.18846
-3.55905
0.369731
3.73316
-3.35523
-0.377928
2.24192
-0.827236
-1.41453
-0.413833
1.44773
-1.0339
-2.31074
3.04102
-0.730274
-3.66668
4.20514
-0.538461
-4.66672
5.05773
-0.391004
-5.38269
5.64616
-0.26347
-5.8532
6.00998
-0.156782
-6.12321
6.20007
-0.0768641
-6.24733
6.27161
-0.0242814
-6.27831
6.27024
0.0080768
-6.25218
6.22788
0.024298
-6.1996
6.16912
0.030478
-6.13779
6.10653
0.0312608
-6.07594
6.04645
0.0294937
-6.01833
5.99183
0.0265021
-5.9671
5.94422
0.0228834
-5.92317
5.90386
0.0193108
-5.88617
5.86996
0.0162101
-5.85509
5.84142
0.0136663
-5.82883
5.81719
0.0116438
-5.80637
5.79628
0.0100937
-5.78679
5.77782
0.00897577
-5.76923
5.76092
0.0083119
-5.75279
5.74478
0.00801034
-5.73686
5.72902
0.00783824
-5.72131
5.71376
0.00754587
-5.70643
5.69932
0.00711133
-5.69243
5.68573
0.00669565
-5.67924
5.67299
0.00625195
-5.66698
5.66122
0.00575248
-5.65566
5.6503
0.00536315
-5.64506
5.64
0.00506187
-5.63508
5.63037
0.00471416
-5.62583
5.62146
0.00437455
-5.61727
5.61322
0.00404728
-5.60943
5.60582
0.00360847
-5.60249
5.59934
0.00314868
-5.59645
5.5938
0.00265773
-5.59148
5.58947
0.002008
-5.58776
5.58626
0.0015007
-5.58492
5.58371
0.00120284
-5.58265
5.58161
0.00103548
-5.58049
5.57921
0.00127583
-5.57764
5.57656
0.0010742
-5.575
5.57476
0.000244633
-0.896574
1.18213
-0.285678
0.500594
-0.66938
-0.487912
0.656379
0.808414
-0.910087
-0.202443
0.304102
0.974722
-1.00569
-0.116823
0.147793
0.818567
-0.599464
0.177074
-0.0511255
0.485993
-0.539931
0.365049
-0.32709
0.515661
-0.420404
0.242597
-0.333939
0.353337
-0.319252
0.0561525
-0.0902382
0.316081
-0.343794
-0.0908543
0.118662
0.404403
-0.499846
-0.277644
0.373087
0.630852
-0.800879
-0.490794
0.660933
1.01396
-1.26854
-0.6785
0.933329
1.54977
-1.831
-0.739156
1.02039
2.08384
-2.2057
-0.594853
0.716718
2.13852
-2.05583
0.567638
-0.521377
1.62164
-0.784348
2.46602
-3.30245
-0.15706
1.05594
1.99817
-2.89705
-1.87083
2.5962
1.45919
-2.18456
-3.23708
3.80053
1.08908
-1.65253
-4.29197
4.71525
0.798189
-1.22147
-5.07359
5.37
0.544864
-0.841272
-5.6091
5.79594
0.33073
-0.517569
-5.93706
6.03957
0.168682
-0.271191
-6.11078
6.15725
0.061445
-0.107913
-6.18472
6.19833
-0.00399386
-0.00961401
-6.20074
6.1957
-0.0374611
0.0424998
-6.18585
6.1732
-0.05073
0.063385
-6.15908
6.14441
-0.0530605
0.0677355
-6.12979
6.11557
-0.0502942
0.0645109
-6.10202
6.08931
-0.0451202
0.0578227
-6.07755
6.06679
-0.0388078
0.0495689
-6.05706
6.04833
-0.0325432
0.0412814
-6.04052
6.03357
-0.0270748
0.0340302
-6.02737
6.02182
-0.0226215
0.0281655
-6.01683
6.01228
-0.0191545
0.0236998
-6.00811
6.00421
-0.0165742
0.0204733
-6.00052
5.99699
-0.0147657
0.0182938
-5.99357
5.9902
-0.0137015
0.0170657
-5.98685
5.98345
-0.0132904
0.016692
-5.97996
5.97637
-0.0131506
0.0167348
-5.97271
5.96903
-0.0127824
0.0164598
-5.96539
5.9618
-0.0121209
0.0157097
-5.95825
5.95471
-0.011516
0.0150541
-5.95119
5.94771
-0.0108457
0.0143238
-5.94432
5.94102
-0.010035
0.013331
-5.93781
5.93463
-0.00942325
0.012603
-5.93147
5.92829
-0.00899614
0.0121703
-5.92515
5.92207
-0.00844427
0.0115261
-5.91908
5.91619
-0.00783914
0.0107279
-5.91338
5.91067
-0.00726593
0.00997757
-5.90806
5.9056
-0.00649426
0.0089504
-5.9033
5.90116
-0.00566772
0.00781209
-5.89911
5.89719
-0.0048529
0.00677699
-5.89542
5.8939
-0.00370417
0.00522632
-5.89263
5.89154
-0.00274084
0.00382923
-5.89056
5.88967
-0.00220052
0.00308808
-5.88892
5.88831
-0.00179629
0.00240442
-5.88769
5.88683
-0.00231746
0.003174
-5.88568
5.88418
-0.00251898
0.00401717
-5.88294
5.88173
-0.0012471
0.00245805
-1.42299
1.61698
-0.193805
0.362747
-0.462032
-0.784899
0.884184
0.563023
-0.654623
-0.406248
0.497849
0.260067
-0.0154399
-0.094191
0.0119464
0.0176906
-0.449311
0.128372
-0.160619
0.399137
-0.300302
0.612537
-0.711371
0.184051
-0.12563
0.30113
-0.327417
0.136445
-0.164952
0.121551
-0.0862731
0.177112
-0.186043
-0.135508
0.144438
0.216563
-0.268675
-0.444847
0.496959
0.341453
-0.439451
-0.792068
0.890066
0.570142
-0.738977
-1.14267
1.31151
0.878296
-0.620439
-1.23898
0.56139
0.174094
-0.0429267
-0.142875
0
0.0204691
-0.191206
0.146021
-0.00635559
0.626984
-0.342053
3.83308
-3.95119
-0.301429
0.996144
3.69408
-4.38879
-1.69006
2.35034
2.87814
-3.53843
-2.96123
3.51548
2.21089
-2.76515
-4.01023
4.44304
1.64878
-2.08158
-4.81375
5.12361
1.14372
-1.45357
-5.37527
5.57412
0.710408
-0.909265
-5.72684
5.84093
0.379718
-0.493805
-5.92436
5.98427
0.161243
-0.22116
-6.02623
6.05445
0.030383
-0.0585988
-6.07218
6.08255
-0.0399425
0.0295707
-6.08818
6.0908
-0.0685099
0.0658891
-6.09161
6.09135
-0.0752564
0.0755119
-6.09048
6.08932
-0.0721962
0.0733563
-6.08805
6.0868
-0.0647467
0.0659979
-6.08571
6.08484
-0.0553041
0.0561803
-6.08422
6.0839
-0.0457201
0.0460439
-6.08385
6.08404
-0.0372984
0.0371056
-6.08445
6.08503
-0.0305542
0.0299824
-6.08569
6.08639
-0.025521
0.0248226
-6.08706
6.08764
-0.0220303
0.0214515
-6.0881
6.08842
-0.0198063
0.0194814
-6.08861
6.08866
-0.0186257
0.0185729
-6.08857
6.08829
-0.0184343
0.0187134
-6.08779
6.08705
-0.0188097
0.0195514
-6.08608
6.08494
-0.0187705
0.0199028
-6.08374
6.0825
-0.0180329
0.019272
-6.0812
6.07978
-0.0174624
0.0188848
-6.07821
6.07654
-0.0168247
0.0184938
-6.07484
6.07316
-0.0157457
0.0174315
-6.07149
6.06977
-0.0149896
0.0167069
-6.06796
6.06602
-0.0146699
0.0166054
-6.064
6.06197
-0.0140254
0.0160642
-6.05997
6.05802
-0.0130957
0.0150424
-6.0561
6.0542
-0.0122418
0.0141446
-6.05232
6.05054
-0.0110232
0.0128074
-6.04889
6.04736
-0.00961577
0.0111469
-6.04587
6.04437
-0.00845721
0.00995142
-6.04292
6.04165
-0.00659336
0.00786198
-6.04062
6.03977
-0.00478586
0.00564179
-6.03895
6.03815
-0.00390864
0.0047103
-6.03747
6.03701
-0.00291887
0.00337686
-6.03664
6.03604
-0.00388821
0.00448256
-6.03492
6.0333
-0.00554764
0.00717536
-6.03175
6.0304
-0.00374858
0.00510422
-1.77467
1.90394
-0.130286
0.2402
-0.290343
-0.95694
1.00708
0.333736
-0.0482864
-0.488231
0.313546
-4.18835e-23
-1.32228e-21
7.34208e-23
-1.27146e-23
-0.00134617
-0.148889
0.118091
-0.183499
0.12923
-0.10167
0.753751
-0.781312
0.0543956
0.00789696
0.524496
-0.586788
-0.072387
0.113228
0.121146
-0.196674
-0.0810344
0.0242335
-0.149053
0.0838489
-0.0131153
-0.0126328
-0.530402
0.466684
0.0507561
-0.0926306
-0.95675
0.998625
0.149219
-0.134148
-1.40745
0.921542
0.0133228
-3.07979e-13
-0.0133228
1.84387e-16
-1.60972e-14
-2.59108e-13
1.91114e-20
2.75206e-13
-1.38974e-13
-6.82349e-05
6.82349e-05
-5.82642e-19
0.136519
0.228081
4.07208
-4.37282
-0.690878
1.19923
4.975
-5.48335
-1.74478
2.30122
4.14492
-4.70136
-2.84449
3.35836
3.29729
-3.81115
-3.82931
4.25012
2.50695
-2.92777
-4.61407
4.91999
1.76062
-2.06653
-5.16884
5.36656
1.10735
-1.30507
-5.52007
5.63765
0.609369
-0.726948
-5.72779
5.79824
0.285782
-0.356232
-5.85386
5.89792
0.0940469
-0.138108
-5.93258
5.96043
-0.0110446
-0.0168142
-5.98374
6.00378
-0.0549864
0.0349433
-6.02129
6.03684
-0.0681149
0.0525681
-6.05076
6.06329
-0.0677806
0.0552574
-6.07465
6.08494
-0.0614836
0.0511867
-6.09436
6.10303
-0.0522382
0.0435652
-6.11111
6.11864
-0.0423681
0.0348368
-6.1257
6.13235
-0.0335926
0.0269435
-6.13863
6.14455
-0.0266453
0.0207275
-6.1501
6.15528
-0.0218019
0.0166274
-6.16005
6.16438
-0.0189067
0.0145725
-6.16828
6.17175
-0.0174982
0.0140261
-6.17484
6.17762
-0.0170744
0.0143018
-6.18011
6.18232
-0.0176662
0.0154564
-6.18421
6.18573
-0.0190906
0.0175743
-6.18687
6.1877
-0.019978
0.0191516
-6.18836
6.18896
-0.0195173
0.0189174
-6.18946
6.18973
-0.0194019
0.0191352
-6.18971
6.18942
-0.0194068
0.0196904
-6.18899
6.18853
-0.0184433
0.0189081
-6.18806
6.18749
-0.0177983
0.0183662
-6.18675
6.18578
-0.0180112
0.0189823
-6.18462
6.18337
-0.0176612
0.0189154
-6.18212
6.18089
-0.0165852
0.0178073
-6.17968
6.1784
-0.0156979
0.0169738
-6.17707
6.17576
-0.0143115
0.0156149
-6.17459
6.17354
-0.0124111
0.0134581
-6.17251
6.17134
-0.0112577
0.0124211
-6.17008
6.16895
-0.00903494
0.0101687
-6.16809
6.16742
-0.00639054
0.00705646
-6.16673
6.1659
-0.00550752
0.00634304
-6.16513
6.1647
-0.00379583
0.00422109
-6.16457
6.16427
-0.00493601
0.00523445
-6.1632
6.16129
-0.0089129
0.0108233
-6.15934
6.15788
-0.00649376
0.00795429
-2.01685
2.11764
-0.100479
0.170887
-0.189914
-1.03825
1.05728
0.158232
-5.27881e-19
-0.183259
0.104198
5.28447e-19
-2.61626e-22
8.64289e-21
1.16077e-22
-0.00441247
0.0543972
0.520831
-0.66606
-0.0709263
0.0894969
0.801729
-0.8203
-0.120389
0.165909
0.638142
-0.682541
-0.224877
0.292526
0.260636
-0.327419
-0.35852
0.414877
-0.196058
0.139701
-0.416367
0.19994
-0.290445
0.592502
-0.0262071
0.0103296
-0.432347
0.351658
-0.00365901
9.17894e-17
-0.0573389
0.0609979
-8.06909e-17
5.02091e-06
-2.34222e-16
1.56298e-05
-7.34592e-07
-9.27007e-11
1.08944e-08
7.05464e-07
-3.02524e-20
0
2.21552e-19
3.13748e-22
-0.0538121
0.659767
4.80396
-5.34433
-1.07572
1.48556
5.92764
-6.33748
-1.92287
2.38143
5.20151
-5.66007
-2.84912
3.30472
4.29229
-4.7479
-3.73499
4.12457
3.3311
-3.72068
-4.46476
4.74925
2.36107
-2.64555
-4.98055
5.16465
1.49556
-1.67966
-5.31183
5.42927
0.843343
-0.960782
-5.5265
5.60989
0.431597
-0.514985
-5.68313
5.74789
0.191181
-0.255942
-5.80459
5.85472
0.0546791
-0.104819
-5.89965
5.93981
-0.00538383
-0.0347703
-5.9757
6.00801
-0.0288621
-0.00344426
-6.03682
6.06266
-0.0360607
0.0102276
-6.08593
6.10687
-0.0354811
0.014538
-6.12571
6.14271
-0.0305959
0.0135905
-6.15816
6.1722
-0.0239026
0.00985677
-6.185
6.19673
-0.0176075
0.00588023
-6.20752
6.21747
-0.012655
0.00270801
-6.22663
6.23507
-0.00969896
0.00126701
-6.24279
6.2498
-0.00878659
0.00176817
-6.25613
6.26179
-0.00936294
0.00369861
-6.26684
6.27142
-0.0105299
0.00595097
-6.27561
6.27948
-0.0123241
0.00845611
-6.283
6.28611
-0.0151909
0.0120838
-6.28873
6.29089
-0.0175881
0.0154289
-6.29276
6.29457
-0.0176338
0.0158247
-6.29632
6.29778
-0.0182052
0.0167412
-6.29884
6.29951
-0.0194438
0.0187757
-6.29991
6.30021
-0.0189257
0.0186249
-6.30052
6.30073
-0.018486
0.0182741
-6.30073
6.30045
-0.0195657
0.0198505
-6.29988
6.29915
-0.0198646
0.0205956
-6.29839
6.29765
-0.0187401
0.0194727
-6.29693
6.29611
-0.0179866
0.0188024
-6.29514
6.29412
-0.0167397
0.0177599
-6.29322
6.29248
-0.0143129
0.0150481
-6.2918
6.29092
-0.0134317
0.0143162
-6.28974
6.28861
-0.011274
0.012401
-6.28779
6.28724
-0.00764144
0.00818766
-6.28666
6.28571
-0.00722326
0.00817435
-6.28467
6.28406
-0.00469661
0.00530616
-6.28401
6.28405
-0.00535673
0.00531874
-6.2832
6.28099
-0.0128797
0.0150927
-6.27858
6.27697
-0.00947265
0.0110887
-2.20418
2.26465
-0.0600141
0.129057
-0.14257
-1.07076
1.08428
0.0539689
-5.6723e-22
-0.0417425
0.0349665
5.56052e-22
0.00986477
-5.80844e-21
-0.00986477
-0.183899
0.193422
0.772252
-0.794719
-0.211095
0.233857
0.840297
-0.862895
-0.26302
0.302963
0.723959
-0.765084
-0.355167
0.416704
0.392727
-0.455292
-0.479867
0.547343
-0.0722644
0.00146803
-0.621138
0.700435
-0.569401
0.489447
-0.779385
0.864445
-0.924069
0.863223
-0.906253
0.662073
-0.559891
0.996077
-0.0231533
-1.54255e-05
-3.81088e-05
0.0170423
3.82262e-07
1.07443e-06
-3.14034e-06
4.43851e-06
-1.36033e-08
1.36033e-08
5.54177e-26
-5.8059e-26
-0.269735
0.996375
5.97089
-6.64807
-1.38517
1.75247
6.72054
-7.08785
-2.12512
2.51457
6.07757
-6.46702
-2.91491
3.31371
5.17129
-5.57009
-3.69493
4.04139
4.08762
-4.43408
-4.34175
4.5885
2.9121
-3.15885
-4.78721
4.94806
1.85203
-2.01287
-5.08677
5.21112
1.0787
-1.20304
-5.32629
5.39351
0.607707
-0.687412
-5.35892
5.22713
0.333383
-0.263388
-5.00431
4.75273
0.168738
-0.0538038
-4.47515
4.23523
0.0853613
1.69271e-21
-4.03745
3.87088
0.0428773
8.79457e-22
-3.71897
3.56727
0.021145
1.0993e-22
-3.40498
3.2305
0.0105624
-6.75288e-21
-3.0707
2.96782
0.00625375
-9.61241e-21
-2.90864
2.85511
0.0060838
-1.17078e-20
-2.81617
2.82694
0.00699207
-1.40283e-20
-2.84359
2.86528
0.00791325
-1.61636e-20
-2.89462
2.93279
0.00761025
-1.74053e-20
-2.97512
3.01827
0.00569378
-1.95313e-20
-3.06712
3.13257
0.00246982
-0.000110822
-3.2243
3.3477
-0.000875893
-0.000912924
-3.49976
3.65756
-0.00420929
-6.85105e-05
-3.7847
3.86141
-0.00851608
0.000843121
-3.91104
3.97547
-0.0128384
0.00196085
-4.10954
4.34878
-0.0137291
0.00279452
-4.53276
4.54422
-0.0149352
0.00396865
-4.53727
4.54078
-0.01778
0.00499828
-4.5735
4.69279
-0.0181337
0.00555216
-4.84349
4.87026
-0.017863
0.00636625
-4.86489
4.81215
-0.0198967
0.00711675
-4.74172
4.74127
-0.0211374
0.00721681
-4.76326
4.80261
-0.0200612
0.00708349
-4.804
4.76215
-0.0194423
0.00686275
-4.65307
4.63083
-0.0186854
0.00601555
-4.64678
4.67026
-0.0157318
0.00519119
-4.64812
4.45974
-0.0150547
0.00461522
-4.21925
4.22076
-0.0135386
0.00328525
-4.27744
4.27778
-0.00876086
0.00226397
-4.14162
3.77364
-0.00916025
0.00178014
-3.70828
3.78936
-0.00613535
0.00101674
-3.88679
3.80019
-0.00521466
0.000886016
-3.14477
2.37346
-0.0173244
0.000228123
-2.40423
2.70473
-0.0127772
8.06369e-06
-2.28696
2.26204
0.0273748
0.027305
-0.0296573
-1.09744
1.0998
0.00669533
0.00673514
-0.0556076
0.105497
-0.0321966
0.266937
0.107689
-0.392808
-0.276968
0.287869
0.800205
-0.811168
-0.310467
0.338127
0.887957
-0.9156
-0.370999
0.410326
0.804645
-0.84425
-0.456207
0.500817
0.50682
-0.559118
-0.560289
0.634445
0.0655753
-0.131822
-0.695811
0.766841
-0.412226
0.356705
-0.836036
0.885942
-0.794112
0.746886
-0.92771
0.97061
-0.976122
0.933222
-0.919733
0.122687
-0.337835
1.1756
2.00745e-06
-2.01911e-07
-1.80554e-06
-7.90814e-20
-1.20409e-07
1.20409e-07
7.97513e-25
-2.02031e-26
-0.67025
1.32
7.29964
-7.9047
-1.65118
1.97789
7.43341
-7.76013
-2.30775
2.64741
6.82564
-7.1653
-2.99581
3.3433
5.93932
-6.28681
-3.67358
3.96763
4.75425
-5.0483
-4.21228
4.40034
3.37828
-3.56633
-4.38964
2.79086
2.15159
-0.702925
-0.899557
0.123868
0.473148
2.18205e-20
-2.42968e-18
-1.06433e-19
0
9.33517e-23
1.64286e-20
-8.24761e-22
0
-1.04076e-20
1.09983e-37
1.8177e-20
3.52156e-20
-6.4125e-21
-3.24462e-20
6.77583e-20
1.83759e-21
-1.42532e-20
-1.11019e-19
1.7019e-19
3.16871e-21
-2.16976e-20
-2.60189e-19
3.92114e-19
5.01234e-21
-3.02742e-20
-5.67966e-19
7.82277e-19
7.42414e-21
-4.14225e-20
-1.02547e-18
1.29047e-18
9.61241e-21
-5.20129e-20
-1.5777e-18
1.89244e-18
1.17078e-20
-6.04203e-20
-2.23716e-18
2.60606e-18
1.40283e-20
-6.87897e-20
-2.98237e-18
3.34657e-18
1.61636e-20
-7.751e-20
-3.71813e-18
4.21723e-18
1.74053e-20
-8.41195e-20
-5.03342e-18
5.58082e-18
1.95313e-20
-9.25449e-20
-5.59698e-18
5.25889e-18
1.30133e-20
-1.10944e-19
-5.06539e-18
5.11559e-18
1.40828e-18
-7.89186e-19
-5.09985e-18
5.1454e-18
1.74661e-18
-6.48262e-19
-4.49617e-18
4.57229e-18
1.9702e-18
-2.57341e-19
-4.49986e-18
4.6181e-18
2.35814e-18
-1.01318e-21
-4.51147e-18
4.55538e-18
2.49366e-18
-1.49759e-19
-4.61774e-18
4.66812e-18
2.71051e-18
-3.06818e-19
-4.56071e-18
4.6922e-18
3.03577e-18
-5.82583e-19
-4.5857e-18
4.68704e-18
2.81893e-18
-9.00412e-19
-4.60491e-18
4.6404e-18
3.03577e-18
-1.24019e-18
-4.70105e-18
4.66185e-18
4.55365e-18
-1.81465e-18
-4.72291e-18
4.69464e-18
4.98733e-18