/*--------------------------------*- C++ -*----------------------------------*\
| =========                 |                                                 |
| \\      /  F ield         | OpenFOAM: The Open Source CFD Toolbox           |
|  \\    /   O peration     | Version:  v1912                                 |
|   \\  /    A nd           | Website:  www.openfoam.com                      |
|    \\/     M anipulation  |                                                 |
\*---------------------------------------------------------------------------*/
FoamFile
{
    version     2.0;
    format      ascii;
    class       volScalarField;
    location    "14";
    object      epsilon;
}
// * * * * * * * * * * * * * * * * * * * * * * * * * * * * * * * * * * * * * //

dimensions      [0 2 -3 0 0 0 0];


internalField   nonuniform List<scalar> 
20320
(
4.43959e-05
0.000214504
0.000220458
0.000226358
0.000232158
0.000237821
0.000243296
0.000248525
0.000253435
0.000257963
0.00026215
0.000267738
0.000294737
0.000498692
0.00167929
0.00590276
0.0146144
0.0249498
0.0290158
0.0166483
4.39755e-05
4.3838e-05
4.43978e-05
4.57828e-05
4.83187e-05
5.23835e-05
5.83526e-05
6.66159e-05
7.75997e-05
9.17893e-05
0.000114191
0.000207321
0.000861722
0.00380846
0.0106811
0.0205446
0.0309676
0.0391717
0.0441679
0.0538296
4.43395e-05
4.46903e-05
4.56222e-05
4.71783e-05
4.96529e-05
5.34154e-05
5.88842e-05
6.67535e-05
7.79976e-05
9.76204e-05
0.000180668
0.000793833
0.00382374
0.0113633
0.0225963
0.0347482
0.0451887
0.0527898
0.0594243
0.0774172
4.48705e-05
4.60939e-05
4.79245e-05
5.03854e-05
5.3754e-05
5.84675e-05
6.51334e-05
7.45014e-05
8.97798e-05
0.000139388
0.000495884
0.00265429
0.00927789
0.0206213
0.0342444
0.0472814
0.0577943
0.0656207
0.0733972
0.0977658
4.55389e-05
4.79392e-05
5.10319e-05
5.47062e-05
5.9349e-05
6.54304e-05
7.35456e-05
8.56159e-05
0.000112373
0.000267032
0.00139071
0.00609072
0.0161746
0.0301337
0.0451144
0.0586388
0.0693667
0.077604
0.0864537
0.117018
4.63294e-05
5.02497e-05
5.49425e-05
6.03326e-05
6.66442e-05
7.4526e-05
8.49332e-05
0.000101638
0.000162191
0.000603539
0.00317737
0.0107921
0.0236635
0.0394017
0.0552612
0.0691741
0.0801989
0.0889072
0.0988864
0.135689
4.72183e-05
5.29501e-05
5.96937e-05
6.71518e-05
7.5724e-05
8.5935e-05
9.95107e-05
0.000126685
0.000273526
0.0013256
0.00592748
0.0162915
0.0312994
0.0483097
0.0648296
0.0791187
0.0904922
0.0997108
0.110881
0.15397
4.81658e-05
5.59979e-05
6.51366e-05
7.51373e-05
8.65412e-05
9.97504e-05
0.000117847
0.000169529
0.000507561
0.00259432
0.00950238
0.022231
0.038884
0.0568711
0.073957
0.0886417
0.100408
0.110172
0.122576
0.171991
4.91346e-05
5.92979e-05
7.10477e-05
8.42497e-05
9.87699e-05
0.000115871
0.000141902
0.000245341
0.000950882
0.00448509
0.0136937
0.0283873
0.0463452
0.0651432
0.0827677
0.0978872
0.110094
0.120438
0.134106
0.189901
5.00841e-05
6.26504e-05
7.73123e-05
9.40125e-05
0.000112122
0.000134117
0.000174947
0.000379008
0.00169619
0.00697523
0.0183118
0.034634
0.0536731
0.073201
0.091382
0.106997
0.119705
0.13067
0.145624
0.207892
5.09571e-05
6.58655e-05
8.36778e-05
0.000103749
0.000126262
0.000154332
0.000221833
0.000605894
0.00281213
0.00997808
0.0232115
0.0409076
0.060893
0.0811328
0.0999296
0.116131
0.129422
0.141062
0.157326
0.226228
5.16913e-05
6.87956e-05
8.96247e-05
0.000112956
0.000140431
0.000176605
0.000289703
0.000966332
0.00432098
0.0133835
0.0282922
0.0471863
0.0680553
0.0890451
0.108564
0.125485
0.139483
0.151878
0.16948
0.245275
5.22364e-05
7.12733e-05
9.45779e-05
0.000121218
0.000153509
0.000201431
0.000387803
0.0014945
0.00619629
0.0170844
0.0334903
0.0534803
0.0752359
0.0970738
0.117484
0.13533
0.150225
0.163502
0.182493
0.265582
5.25604e-05
7.30956e-05
9.81296e-05
0.000127975
0.000164475
0.000229563
0.000525465
0.0022057
0.00837361
0.0209856
0.0387684
0.0598228
0.0825357
0.105394
0.126956
0.146044
0.162149
0.176533
0.197007
0.287991
5.26502e-05
7.40829e-05
0.000100078
0.000132552
0.000172747
0.000261602
0.000708604
0.00308803
0.0107646
0.0250021
0.0441049
0.0662635
0.0900814
0.11423
0.137348
0.15819
0.176049
0.191972
0.21413
0.313894
5.25097e-05
7.41476e-05
0.00010037
0.000134429
0.00017815
0.000297492
0.000936003
0.00410124
0.0132671
0.0290529
0.0494816
0.0728593
0.0980222
0.123868
0.149164
0.172613
0.193224
0.211599
0.235951
0.345851
5.21598e-05
7.33183e-05
9.90614e-05
0.000133445
0.000180716
0.000336078
0.00119699
0.00518178
0.0157697
0.0330492
0.0548664
0.0796543
0.106511
0.134643
0.163071
0.19057
0.215869
0.238798
0.266849
0.389336
5.16367e-05
7.17234e-05
9.63269e-05
0.000129842
0.000180541
0.000374906
0.0014717
0.00625096
0.0181521
0.0368809
0.0601894
0.0866467
0.115659
0.146884
0.179863
0.213833
0.247635
0.280292
0.31716
0.458417
5.09865e-05
6.95529e-05
9.24527e-05
0.000124152
0.000177765
0.000410525
0.0017346
0.00722638
0.0202895
0.0404109
0.065325
0.0937537
0.125476
0.160802
0.200269
0.244495
0.294027
0.349213
0.413794
0.601253
5.02592e-05
6.70184e-05
8.78029e-05
0.000117039
0.000172628
0.000439298
0.00196021
0.00803411
0.0220628
0.0434807
0.0700893
0.100789
0.135793
0.176296
0.224454
0.283838
0.360563
0.465947
0.625413
1.06703
70.8862
191.162
345.966
520.413
740.282
928.981
1046.33
1207.29
1452.48
1798.59
2287.93
2973.87
3838.29
4798.28
5895.34
6296.56
4764.5
3620.68
2791.48
2167.29
1684.72
1310.99
1024.92
808.492
645.72
523.687
430.092
357.207
299.845
254.335
218.002
188.797
165.172
145.944
130.207
117.26
106.548
97.6329
90.19
83.9674
78.7616
74.4128
70.7779
67.7342
65.1859
63.0447
61.2425
59.7214
58.4321
57.3359
56.3993
55.5877
54.8764
54.2364
53.6367
53.0598
52.4901
51.9225
51.3546
50.7714
124.049
99.2328
152.846
214.047
278.776
339.711
403.522
490.279
620.123
811.97
1085.45
1451.44
1882.55
2283.16
2444.64
2258.48
1793.93
1382.89
1079.5
851.219
676.327
541.33
436.654
354.832
290.292
239.139
198.203
165.25
138.634
117.083
99.5922
85.3647
73.7617
64.2696
56.4772
50.0553
44.7408
40.3229
36.6352
33.5449
30.9458
28.7533
26.8985
25.324
23.9825
22.8354
21.8499
20.9991
20.261
19.6175
19.0529
18.5542
18.1095
17.7082
17.3424
17.0051
16.6906
16.3946
16.1097
15.8337
145.612
92.6306
135.378
188.712
241.014
293.377
362.675
455.489
591.175
793.173
1085.57
1487.69
2013.12
2647.21
2935.72
2222.05
1684.74
1275.54
979.27
761.512
598.985
477.232
385.559
315.346
260.309
216.402
180.907
151.995
128.366
109.01
93.1254
80.068
69.3159
60.4441
53.1068
47.0209
41.9564
37.7272
34.1824
31.2
28.6817
26.5473
24.7317
23.1809
21.8504
20.7036
19.7101
18.8445
18.0862
17.4181
16.8258
16.2973
15.8221
15.3913
14.9978
14.6355
14.2996
13.9859
13.6895
13.411
153.867
91.7046
128.559
179.718
226.446
283.686
361.908
467.775
622.008
854.799
1199.97
1692.17
2388.4
3382
4101.05
2572.88
1792.2
1303.46
974.207
742.498
575.189
453.694
364.866
298.373
246.958
206.18
173.259
146.387
124.331
106.162
91.157
78.7385
68.4443
59.8978
52.7895
46.8654
41.9157
37.7682
34.2823
31.3427
28.8549
26.7414
24.9381
23.3923
22.0606
20.9068
19.9012
19.0195
18.2413
17.55
16.9318
16.3752
15.8703
15.4092
14.9852
14.5932
14.229
13.8892
13.5702
13.2749
156.767
91.8154
125.389
176.577
221.882
286.543
375.327
496.462
672.853
947.417
1373.91
2003.65
2819.43
3858.37
4817.84
3058.95
1990.89
1369.85
985.577
731.882
557.084
434.707
347.729
283.844
235.021
196.63
165.794
140.681
120.057
103.027
88.9079
77.1725
67.4022
59.258
52.4612
46.7808
42.0236
38.0302
34.6701
31.835
29.434
27.3917
25.6456
24.1445
22.8461
21.7156
20.7242
19.8485
19.0694
18.371
17.7403
17.1666
16.641
16.1564
15.7071
15.2886
14.8985
14.5344
14.1941
13.8825
153.241
91.5096
124.267
171.917
223.285
297.331
398.303
537.362
742.108
1069.77
1607.27
2430.96
3498.32
4664.46
5996.4
3643.71
2230
1444.91
992.826
714.608
533.95
412.718
328.684
267.839
221.667
185.747
156.999
133.648
114.519
98.7297
85.625
74.7114
65.6073
58.005
51.6525
46.3395
41.8882
38.1487
35.003
32.3523
30.1085
28.1979
26.5602
25.1467
23.9175
22.8395
21.886
21.0361
20.2718
19.5788
18.9457
18.363
17.8229
17.3199
16.8488
16.4061
15.9918
15.6054
15.2486
14.924
143.259
90.1022
123.181
169.236
229.928
315.19
430.715
590.297
828.491
1224.99
1929.01
3134.45
4832.27
6469.89
8211.37
4372.03
2468.28
1502.81
983.295
684.462
503.322
386.716
306.946
250.04
206.48
172.866
146.242
124.803
107.371
93.0324
81.1474
71.2521
62.9968
56.1029
50.3452
45.5352
41.5133
38.1454
35.3192
32.9386
30.9212
29.1981
27.711
26.4185
25.285
24.2784
23.3766
22.5631
21.8212
21.138
20.5059
19.9162
19.3621
18.8422
18.3488
17.8796
17.438
17.0196
16.6324
16.287
136.173
88.8003
120.216
170.623
241.659
340.384
473.847
657.43
931.821
1403.58
2313.23
4089.9
7173.52
10767.6
11272.8
5128.62
2649.36
1517.2
946.546
638.554
466.398
358.422
282.192
227.146
186.714
156.136
132.423
113.63
98.4167
85.9055
75.5172
66.8451
59.5887
53.5131
48.4304
44.1866
40.6551
37.7219
35.2786
33.2256
31.4781
29.9738
28.6612
27.5072
26.4828
25.5594
24.7192
23.9499
23.2372
22.5698
21.9423
21.3477
20.7799
20.2387
19.7151
19.2042
18.7062
18.2147
17.7539
17.3555
132.445
88.5206
120.709
176.473
258.653
373.656
529.825
743.217
1056.63
1596.29
2714.27
5143.22
10584.8
17205.3
13971.8
5593.27
2695.48
1465.84
876.361
576.731
423.954
315.827
245.781
197.178
162.384
136.438
116.444
100.733
88.0807
77.6729
68.9953
61.7101
55.5765
50.41
46.0645
42.4208
39.3746
36.8181
34.6692
32.8688
31.3427
30.0257
28.8701
27.8436
26.9214
26.0803
25.3049
24.5844
23.9076
23.265
22.6517
22.0623
21.4927
20.9412
20.4018
19.8713
19.3535
18.8581
18.4089
18.0109
133.013
90.1158
125.386
187.59
281.784
416.219
601.442
854.338
1215.62
1804.85
3071.87
6001.29
11769.4
19638.7
13318.9
5400.19
2548.67
1340.17
773.538
501.699
355.849
261.828
203.213
163.69
135.721
115.132
99.3357
86.9256
76.9545
68.7485
61.8741
56.0586
51.1185
46.9181
43.3516
40.3316
37.7761
35.5978
33.7387
32.1661
30.8294
29.6727
28.6512
27.7346
26.9007
26.131
25.4124
24.7356
24.0918
23.4738
22.8772
22.2985
21.735
21.1856
20.6479
20.1233
19.6203
19.1536
18.7328
18.3576
140.002
95.2324
134.896
204.811
312.381
469.733
691.988
999.1
1431.37
2075.03
3259.46
6092.48
10865.6
17686.3
9815.97
4609.88
2231.5
1153.26
647.593
416.42
283.306
207.308
161.003
130.7
109.537
94.101
82.3501
73.1237
65.7113
59.6087
54.4773
50.1042
46.3513
43.1224
40.3439
37.9561
35.8986
34.1106
32.5545
31.2142
30.0599
29.0505
28.1494
27.33
26.5734
25.8652
25.195
24.5557
23.9408
23.3455
22.7667
22.2028
21.653
21.1177
20.598
20.099
19.6308
19.2038
18.8176
18.4753
170.989
106.703
150.805
229.395
352.006
536.073
804.937
1186.69
1719.68
2455.41
3617.41
6017.24
10380.6
15165.2
7588.92
3727.08
1834.45
934.413
513.643
321.16
218.261
159.279
123.981
101.462
86.0673
74.9835
66.652
60.1635
54.9752
50.7187
47.1417
44.0808
41.4309
39.1222
37.1039
35.334
33.7723
32.3807
31.1392
30.042
29.0748
28.2118
27.4266
26.6988
26.0139
25.3617
24.7351
24.1296
23.5416
22.9689
22.4104
21.8664
21.3381
20.8278
20.3391
19.8784
19.4539
19.0703
18.7226
18.4179
268.29
130.268
175.714
263.358
402.754
617.31
943.441
1419.95
1982.29
2879.3
4217.54
6713.15
11022.2
12419.1
6073.06
2941.2
1430.42
714.087
388.464
242.263
165.107
121.086
94.6568
77.9593
66.7846
58.9121
53.129
48.7271
45.2771
42.497
40.1929
38.2354
36.5386
35.0459
33.7191
32.5258
31.4389
30.4368
29.5113
28.6636
27.8898
27.1767
26.5085
25.8719
25.2576
24.6601
24.0762
23.5045
22.9447
22.3973
21.8636
21.346
20.8473
20.3713
19.9229
19.5078
19.131
18.7924
18.4862
18.2215
394.111
170.043
212.744
309.656
468.082
715.536
1100.65
1516.09
2105.72
3144.62
4792.19
7662.83
13058.4
10789.1
4780.23
2224.15
1052.35
515.56
283.553
180.996
125.391
92.9574
73.1328
60.4926
52.1042
46.3253
42.2163
39.216
36.9732
35.2543
33.898
32.791
31.855
31.0358
30.2976
29.6131
28.9587
28.3218
27.6999
27.0982
26.5188
25.9579
25.4084
24.8643
24.3221
23.7808
23.2416
22.7067
22.1792
21.6624
21.1601
20.6763
20.2152
19.7816
19.38
19.0147
18.6875
18.3954
18.133
17.9092
522.117
214.495
263.336
372.567
554.544
813.871
1103.09
1462.12
2009.87
2950.24
4533.34
7382.08
12600.1
7805.34
3431.28
1558.54
723.061
354.388
204.713
136.106
96.9014
73.115
58.0192
48.1299
41.5002
36.9756
33.8507
31.6819
30.1777
29.1365
28.4135
27.9021
27.5231
27.2187
26.9483
26.683
26.4009
26.0882
25.7439
25.373
24.9809
24.5692
24.1377
23.6866
23.218
22.7355
22.2448
21.7518
21.2627
20.7837
20.3206
19.8787
19.4631
19.0784
18.7285
18.4156
18.1391
17.8948
17.6774
17.4946
645.823
250.691
301.6
415.818
577.859
781.036
1018.41
1327.53
1786.27
2518.89
3741.29
5916.45
8436.6
4500.94
2148.5
995.418
465.691
237.536
148.875
104.31
76.944
59.3015
47.5368
39.5258
34.0167
30.2232
27.632
25.9001
24.7885
24.1235
23.7733
23.6344
23.6252
23.682
23.7567
23.8143
23.8303
23.7894
23.6851
23.52
23.2993
23.0274
22.7089
22.3488
21.9544
21.5339
21.0964
20.6513
20.2079
19.7745
19.3586
18.9667
18.6037
18.2734
17.9786
17.7198
17.4948
17.2987
17.1264
16.9827
696.71
274.64
312.116
410.054
547.841
715.18
913.844
1173.87
1538.77
2069.83
2878.54
4070.26
4364.45
2428.65
1230.09
593.723
289.794
161.299
111.758
82.3298
62.9553
49.5929
40.1794
33.4841
28.7216
25.3659
23.0519
21.5199
20.5792
20.0835
19.9149
19.9754
20.1822
20.4668
20.7744
21.0631
21.3025
21.4724
21.5626
21.5703
21.498
21.3511
21.1366
20.8635
20.5425
20.1857
19.8057
19.4148
19.0245
18.6448
18.2842
17.9493
17.6449
17.3733
17.1359
16.9318
16.7579
16.6089
16.4796
16.3717
693.613
284.62
312.918
393.712
505.965
643.173
812.246
1030.26
1316.14
1687.18
2162.65
2721.31
2190.36
1290.95
687.991
348.152
182.736
115.24
86.8548
67.2319
53.0486
42.6158
34.8758
29.131
24.8956
21.8206
19.6495
18.1894
17.2921
16.8377
16.7242
16.8614
17.1685
17.5748
18.021
18.4589
18.8522
19.175
19.4115
19.5543
19.6028
19.5612
19.4378
19.2441
18.9936
18.7014
18.3826
18.0518
17.7218
17.4035
17.1053
16.8335
16.592
16.3816
16.2022
16.0517
15.9266
15.8214
15.7303
15.6521
654.818
279.729
300.936
366.028
457.667
573.163
718.204
900.828
1124.36
1380.58
1638.71
1787.47
1235.64
726.12
396.783
210.684
121.661
87.9811
70.2769
56.5722
45.8412
37.4462
30.9193
25.883
22.0405
19.1615
17.0666
15.6151
14.6943
14.2086
14.0725
14.2057
14.5319
14.9809
15.4909
16.0096
16.4955
16.9175
17.2545
17.4946
17.6338
17.6754
17.6279
17.5042
17.32
17.0923
16.838
16.5725
16.3093
16.0588
15.8289
15.6245
15.448
15.2992
15.176
15.0756
14.9941
14.9262
14.8653
14.8079
587.779
261.462
278.063
331.6
407.447
505.205
628.609
778.478
949.205
1121.55
1246.41
1205.64
748.65
436.49
241.432
135.201
87.2078
70.6215
58.9927
48.8999
40.4368
33.4809
27.854
23.3625
19.8276
17.0974
15.0471
13.5757
12.5991
12.044
11.8406
11.9195
12.2106
12.6461
13.1635
13.7082
14.2351
14.7089
15.1042
15.4054
15.6063
15.7086
15.7212
15.6578
15.5354
15.3718
15.1845
14.9888
14.7974
14.6195
14.4614
14.3263
14.2146
14.1245
14.0527
13.9956
13.9492
13.9081
13.8657
13.8174
507.011
235.417
248.485
292.872
355.836
437.492
539.523
656.053
775.438
882.004
963.266
789.628
479.488
275.661
154.658
92.6818
67.3894
59.0621
50.8494
43.1295
36.2356
30.3257
25.3848
21.3251
18.0412
15.4327
13.4133
11.9112
10.8659
10.223
9.92803
9.92255
10.1436
10.5269
11.0105
11.5388
12.0646
12.5498
12.9661
13.2959
13.5313
13.6735
13.7315
13.7195
13.6547
13.5549
13.4366
13.3139
13.1975
13.0944
13.0087
12.9412
12.8904
12.8528
12.8239
12.7997
12.7759
12.7475
12.7081
12.6538
423.728
206.459
216.432
252.618
303.872
369.513
448.615
528.116
604.608
678.937
744.151
530.634
313.792
179.187
103.636
67.8484
55.5934
51.0174
44.8963
38.6493
32.8515
27.7229
23.3193
19.6122
16.5406
14.0379
12.0445
10.5102
9.39316
8.65544
8.2568
8.1499
8.27927
8.58438
9.00476
9.48451
9.97536
10.4382
10.8439
11.174
11.4204
11.5847
11.6757
11.7077
11.6971
11.6604
11.6121
11.5635
11.5223
11.4928
11.476
11.4705
11.4727
11.4776
11.4796
11.4742
11.457
11.4234
11.3678
11.29
344.861
177.925
185.353
214.007
254.22
303.629
356.637
410.679
475.974
530.665
541.4
348.071
205.82
118.764
72.6826
52.9398
48.4436
45.0596
40.2282
35.0249
30.0289
25.5014
21.5306
18.1188
15.2319
12.8256
10.8582
9.2951
8.10904
7.27604
6.76916
6.55219
6.57736
6.78793
7.12463
7.53176
7.96123
8.37449
8.74341
9.05061
9.28914
9.46113
9.57567
9.64603
9.68694
9.71207
9.73248
9.75576
9.78604
9.82419
9.86841
9.91484
9.9581
9.99175
10.0095
10.0062
9.97701
9.91759
9.82403
9.70269
272.945
151.594
157.351
179.57
210.279
245.713
281.794
326.514
378.783
412.111
366.932
227.864
135.318
80.7254
53.7251
43.8974
43.2336
40.5893
36.4897
31.9928
27.5992
23.5479
19.9342
16.7753
14.0531
11.7373
9.79835
8.21284
6.96432
6.04039
5.4264
5.09742
5.01339
5.12082
5.361
5.67859
6.02684
6.36952
6.68153
6.9483
7.16487
7.33436
7.46548
7.56966
7.65843
7.74148
7.8255
7.91376
8.00644
8.10117
8.1935
8.27762
8.34661
8.39292
8.40951
8.3905
8.33013
8.22379
8.0696
7.88407
210.999
128.025
133.092
150.452
174.098
200.953
229.203
268.835
298.127
319.539
241.355
149.972
90.5248
57.1542
42.1528
38.5001
39.203
36.8975
33.3453
29.3759
25.4506
21.7865
18.4738
15.5357
12.9625
10.7333
8.8269
7.22738
5.92618
4.92034
4.2064
3.77069
3.58058
3.58459
3.72325
3.94158
4.19568
4.45384
4.69559
4.91039
5.09593
5.25601
5.398
5.53031
5.66021
5.79253
5.92914
6.06908
6.209
6.3438
6.467
6.57129
6.64873
6.69092
6.68999
6.63909
6.53109
6.36024
6.12612
5.85802
160.261
107.452
112.371
126.549
145.748
168.6
195.142
225.494
240.397
240.161
162.143
101.138
62.7539
42.7824
35.1716
35.329
36.0216
33.8778
30.6382
27.0603
23.5092
20.1669
17.1128
14.3698
11.9332
9.78777
7.9184
6.31482
4.97427
3.90139
3.10284
2.57605
2.29492
2.20692
2.24942
2.36829
2.52457
2.69301
2.85918
3.01697
3.16643
3.31127
3.4566
3.60682
3.76449
3.92964
4.09985
4.27076
4.43646
4.58995
4.72353
4.82903
4.89783
4.92111
4.89009
4.79691
4.63312
4.3912
4.07077
3.71314
116.568
89.4921
94.7828
107.24
124.404
145.765
171.763
193.748
201.45
176.045
113.323
70.6982
45.6989
34.0788
31.0376
33.3655
33.346
31.2336
28.2408
24.9695
21.7249
18.6556
15.8267
13.2583
10.9476
8.88379
7.05649
5.46026
4.0976
2.97992
2.12399
1.53876
1.20208
1.05339
1.02254
1.05702
1.12554
1.21103
1.30545
1.40666
1.51615
1.63679
1.77093
1.91931
2.08058
2.25134
2.42655
2.59985
2.76401
2.9112
3.03325
3.1217
3.16795
3.16325
3.0981
2.96455
2.75433
2.46015
2.08237
1.66687
81.0018
73.9324
79.8418
91.9109
109
130.827
155.684
172.063
177.719
129.392
81.9044
51.3964
35.1357
28.8069
28.7349
31.4804
30.9917
28.8767
26.0664
23.0485
20.0637
17.2305
14.6003
12.1891
9.99528
8.0114
6.23147
4.65538
3.29171
2.16045
1.29143
0.708922
0.390207
0.251132
0.201923
0.193375
0.204573
0.228104
0.262329
0.308395
0.368504
0.44475
0.538327
0.648914
0.774205
0.910055
1.05096
1.19037
1.32087
1.43482
1.52426
1.58121
1.59803
1.56756
1.48082
1.33243
1.11965
0.844594
0.522423
0.223373
56.2791
59.444
67.3558
80.3641
98.9948
123.102
147.526
161.823
151.355
97.8757
60.7626
38.7503
28.474
25.6311
27.5306
29.7295
28.8446
26.7113
24.0598
21.2609
18.5027
15.8771
13.4241
11.1556
9.07073
7.16553
5.43882
3.89681
2.55708
1.45294
0.636612
0.167288
0.0177329
0.00291456
0.00145879
0.00121451
0.00124428
0.00144657
0.00190246
0.00289727
0.0051636
0.0103712
0.0216256
0.0431001
0.0780924
0.126825
0.186154
0.250708
0.314001
0.369241
0.409757
0.429397
0.42315
0.388354
0.322666
0.230388
0.129676
0.049275
0.0100238
0.00103141
50.2767
48.2374
58.0107
73.0362
94.7139
122.916
148.084
159.183
120.134
74.8834
45.6597
30.2103
24.2116
23.7856
27.0133
27.9959
26.8443
24.7091
22.1935
19.5858
17.0272
14.5864
12.2924
10.1542
8.17186
6.34479
4.6775
3.18485
1.89708
0.870531
0.205003
0.00321165
0.000307968
0.00029706
0.000299912
0.000304535
0.000309917
0.000315646
0.000321484
0.000327581
0.000334511
0.000343571
0.000358306
0.000388534
0.000462091
0.000650405
0.00109903
0.00200049
0.00341504
0.00505509
0.00633129
0.00670051
0.00607007
0.00493106
0.00372278
0.00217191
0.000977012
0.000370452
0.000162536
0.000103651
68.2337
41.6208
52.9139
70.874
96.8542
130.439
156.046
150.156
95.4692
56.8423
34.4878
24.3807
21.5013
22.8366
26.1387
26.3469
24.9559
22.8368
20.4478
18.0098
15.6284
13.3524
11.2023
9.18393
7.29859
5.54989
3.94924
2.52226
1.31951
0.436375
0.0194979
0.000215069
0.000206647
0.000210259
0.000215011
0.000220327
0.000225809
0.00023123
0.000236372
0.000241145
0.000245561
0.000249552
0.000253041
0.00025585
0.000257718
0.000258705
0.000259031
0.000258678
0.000257482
0.000255101
0.000250842
0.000243908
0.000233375
0.000218472
0.000198789
0.000174458
0.000148424
0.000125334
0.000106503
8.79399e-05
84.0947
39.8265
52.7143
74.9192
106.149
144.363
169.647
126.429
73.8295
42.0128
26.2704
20.4622
19.861
22.4965
24.984
24.6745
23.1471
21.0726
18.8067
16.5226
14.2995
12.1716
10.1519
8.24446
6.45204
4.78302
3.25712
1.91631
0.842181
0.152886
0.000459952
0.00014702
0.000150103
0.000154363
0.000159259
0.000164406
0.000169529
0.000174479
0.000179095
0.000183288
0.000187066
0.000190402
0.000193226
0.000195341
0.000196423
0.000196353
0.000195198
0.00019286
0.000189261
0.000184407
0.000178193
0.000170578
0.000161636
0.000151473
0.000140273
0.00012829
0.000115888
0.000103746
9.27592e-05
8.01723e-05
75.887
40.2241
53.4479
81.4895
121.226
162.224
170.212
98.4762
53.484
30.0862
20.5078
17.946
19.0122
22.5103
23.7077
23.0291
21.4187
19.4043
17.2586
15.1157
13.0356
11.0416
9.14113
7.33704
5.63465
4.04768
2.60801
1.38375
0.468555
0.0221636
0.000113297
0.000110301
0.000113699
0.000117807
0.000122325
0.000126975
0.000131553
0.00013594
0.00014001
0.000143665
0.0001469
0.000149725
0.000152133
0.00015399
0.000155021
0.000155095
0.000154283
0.000152548
0.000149868
0.000146272
0.000141736
0.000136253
0.000129922
0.000122846
0.000115167
0.000107061
9.87657e-05
9.07604e-05
8.36661e-05
7.47008e-05
60.8702
37.7814
52.3725
85.8976
138.189
181.777
131.956
68.8935
35.7315
21.4547
16.7785
16.4774
18.7844
21.9268
22.3767
21.4161
19.7675
17.8239
15.7942
13.782
11.8322
9.9601
8.16941
6.46296
4.84908
3.34839
2.01696
0.928933
0.202037
0.000897758
8.45215e-05
8.68287e-05
8.99631e-05
9.3615e-05
9.75692e-05
0.000101619
0.000105603
0.000109424
0.000112973
0.00011615
0.000118934
0.000121344
0.000123412
0.00012507
0.000126082
0.000126316
0.000125815
0.0001246
0.000122668
0.000120096
0.000116869
0.000112978
0.000108495
0.000103519
9.81549e-05
9.2535e-05
8.68376e-05
8.14262e-05
7.67855e-05
7.0288e-05
45.8043
33.3254
48.897
84.1922
153.264
170.274
86.4372
42.2414
22.8571
16.054
14.6031
15.8023
18.9784
21.097
20.9932
19.8463
18.1912
16.3241
14.4056
12.5153
10.6854
8.92548
7.23703
5.62382
4.09814
2.69865
1.48906
0.557232
0.0479671
8.39226e-05
6.94208e-05
7.15611e-05
7.42642e-05
7.73797e-05
8.07466e-05
8.41986e-05
8.76017e-05
9.0879e-05
9.39385e-05
9.66929e-05
9.91009e-05
0.000101171
0.000102955
0.000104429
0.000105415
0.000105767
0.000105503
0.000104667
0.000103292
0.000101444
9.91415e-05
9.63682e-05
9.31791e-05
8.96462e-05
8.58565e-05
8.19116e-05
7.79453e-05
7.4236e-05
7.11853e-05
6.64447e-05
37.0018
29.9541
48.0057
90.1949
172.911
98.4523
47.2811
23.9249
15.4161
13.1106
13.5215
15.7224
19.1061
20.051
19.5748
18.3186
16.6822
14.8965
13.0857
11.3099
9.59191
7.93654
6.34443
4.82178
3.38994
2.10401
1.02984
0.275607
0.00364733
5.88441e-05
5.97085e-05
6.14983e-05
6.3747e-05
6.63438e-05
6.91611e-05
7.20619e-05
7.49335e-05
7.77098e-05
8.03219e-05
8.26958e-05
8.47792e-05
8.65603e-05
8.8094e-05
8.93933e-05
9.03249e-05
9.07516e-05
9.06642e-05
9.01027e-05
8.91187e-05
8.77873e-05
8.61319e-05
8.41435e-05
8.1851e-05
7.93162e-05
7.66085e-05
7.38053e-05
7.10077e-05
6.84296e-05
6.64189e-05
6.29703e-05
37.9904
31.7758
54.8899
129.235
117.49
51.7239
24.3408
14.6145
11.7887
11.712
13.188
16.0604
18.5904
18.9543
18.1837
16.843
15.2364
13.534
11.8278
10.1613
8.54906
6.99255
5.49268
4.05929
2.73353
1.56945
0.645981
0.0908959
0.000126756
5.24188e-05
5.33831e-05
5.48169e-05
5.664e-05
5.8765e-05
6.10895e-05
6.35014e-05
6.59037e-05
6.82372e-05
7.04488e-05
7.24814e-05
7.42772e-05
7.58034e-05
7.71068e-05
7.82284e-05
7.90888e-05
7.95552e-05
7.95938e-05
7.92325e-05
7.85238e-05
7.75486e-05
7.63419e-05
7.48983e-05
7.32357e-05
7.13979e-05
6.94388e-05
6.74213e-05
6.54196e-05
6.36009e-05
6.22734e-05
5.9794e-05
49.5816
51.3098
100.709
138
54.1789
23.5695
13.4522
10.5017
10.1754
11.2197
13.394
16.6256
17.8883
17.7567
16.7906
15.4082
13.8455
12.2293
10.626
9.06505
7.5545
6.09315
4.68307
3.34532
2.13209
1.10051
0.344932
0.0119119
5.00909e-05
4.85917e-05
4.9284e-05
5.03825e-05
5.18225e-05
5.3531e-05
5.5424e-05
5.74091e-05
5.94039e-05
6.13522e-05
6.32086e-05
6.49349e-05
6.64719e-05
6.77718e-05
6.88681e-05
6.98194e-05
7.05846e-05
7.10616e-05
7.11841e-05
7.09628e-05
7.04476e-05
6.97135e-05
6.88123e-05
6.77464e-05
6.65276e-05
6.51799e-05
6.37454e-05
6.22726e-05
6.08171e-05
5.95134e-05
5.86357e-05
5.68931e-05
115.689
189.987
105.257
42.0905
18.9679
11.3458
9.06419
8.79589
9.59856
11.2934
14.0064
16.503
16.9773
16.4557
15.3732
13.9973
12.4992
10.9757
9.47554
8.01835
6.60731
5.23948
3.91816
2.68486
1.59037
0.704033
0.135181
0.000408219
4.63128e-05
4.62667e-05
4.66863e-05
4.74792e-05
4.85817e-05
4.9931e-05
5.14555e-05
5.30765e-05
5.47218e-05
5.63362e-05
5.78783e-05
5.93254e-05
6.0624e-05
6.17186e-05
6.26311e-05
6.34166e-05
6.4071e-05
6.45179e-05
6.4685e-05
6.45567e-05
6.41722e-05
6.36052e-05
6.29119e-05
6.21093e-05
6.12017e-05
6.02042e-05
5.91404e-05
5.80493e-05
5.69716e-05
5.60204e-05
5.54396e-05
5.42625e-05
43.9493
59.6997
24.3981
12.6728
8.74312
7.52143
7.50867
8.24924
9.624
11.7751
14.7056
15.927
15.8847
15.1183
13.9636
12.6157
11.1943
9.7687
8.37281
7.01877
5.70707
4.43368
3.20868
2.08116
1.11313
0.387414
0.0252291
5.25509e-05
4.52254e-05
4.49814e-05
4.515e-05
4.56728e-05
4.64817e-05
4.75184e-05
4.87211e-05
5.00215e-05
5.13533e-05
5.26625e-05
5.39147e-05
5.50995e-05
5.6174e-05
5.70823e-05
5.78332e-05
5.84748e-05
5.90195e-05
5.94215e-05
5.96057e-05
5.95364e-05
5.92436e-05
5.87907e-05
5.82379e-05
5.76131e-05
5.69218e-05
5.61679e-05
5.53678e-05
5.45459e-05
5.3733e-05
5.30239e-05
5.26403e-05
5.1899e-05
4.95023e-05
6.43201e-05
8.27614e-05
0.000109173
0.000165536
0.000458563
0.0021298
0.00862326
0.0233804
0.0459443
0.0742806
0.107496
0.146266
0.192793
0.251297
0.329656
0.443877
0.632471
1.02733
2.65437
4.87344e-05
6.15969e-05
7.76167e-05
0.000101039
0.000156997
0.000467902
0.00223895
0.00898637
0.0242251
0.0477581
0.0778265
0.113765
0.156654
0.2096
0.27867
0.375421
0.523401
0.777374
1.30043
2.89823
4.7982e-05
5.89098e-05
7.25366e-05
9.29595e-05
0.000147707
0.000469558
0.00229891
0.00916431
0.0246783
0.0490433
0.0808841
0.119758
0.167014
0.2263
0.304644
0.414873
0.580916
0.850514
1.33374
2.36077
4.72723e-05
5.63564e-05
6.77351e-05
8.53429e-05
0.000139072
0.000471606
0.00235512
0.00931768
0.025089
0.0503421
0.0841259
0.126174
0.177915
0.243073
0.328584
0.446244
0.615641
0.869527
1.26572
1.91755
4.66235e-05
5.40143e-05
6.33606e-05
7.8683e-05
0.000134335
0.000500375
0.00256127
0.00996797
0.0265313
0.0532305
0.089438
0.135015
0.191333
0.261825
0.352573
0.473116
0.637413
0.864804
1.18083
1.61698
4.60449e-05
5.19469e-05
5.95243e-05
7.4365e-05
0.000148229
0.000685726
0.00358107
0.0128988
0.0320076
0.0615959
0.101204
0.150876
0.211936
0.287369
0.382103
0.503187
0.659641
0.861585
1.11817
1.43361
4.55498e-05
5.01992e-05
5.70724e-05
8.50456e-05
0.000331618
0.0020816
0.00886011
0.0242389
0.049441
0.0843056
0.128661
0.183006
0.24882
0.328744
0.426647
0.547472
0.696631
0.878742
1.0956
1.34374
4.51908e-05
4.93119e-05
6.98861e-05
0.000348172
0.0028251
0.0124874
0.0321849
0.0605293
0.0958319
0.137823
0.187334
0.245851
0.315383
0.398492
0.498304
0.618263
0.761447
0.929436
1.12102
1.33137
4.57821e-05
6.13702e-05
0.000480233
0.00567184
0.0261533
0.0627446
0.106727
0.151855
0.196916
0.243776
0.295406
0.354839
0.424873
0.508153
0.607335
0.72494
0.862682
1.0205
1.19596
1.38464
8.3595e-05
0.000636298
0.0131974
0.0635623
0.140598
0.217223
0.281258
0.332583
0.376123
0.417927
0.463505
0.51726
0.582413
0.661371
0.756298
0.869228
1.00123
1.15135
1.31658
1.49319
0.0116716
0.0397294
0.184259
0.351284
0.475367
0.551542
0.594014
0.618132
0.635845
0.655636
0.683513
0.723639
0.778407
0.848994
0.936626
1.04307
1.16933
1.31403
1.47434
1.64759
0.790322
0.668416
1.00957
1.12398
1.12473
1.08072
1.02603
0.977497
0.942713
0.924934
0.926019
0.947381
0.989242
1.05064
1.13122
1.23208
1.35419
1.49586
1.65677
1.83787
9.62055
3.52763
2.90837
2.36213
1.96153
1.67413
1.46915
1.3262
1.23085
1.17351
1.14834
1.15204
1.18271
1.23857
1.31838
1.42058
1.54254
1.68212
1.84311
2.04779
15.0275
7.82197
4.76964
3.34261
2.5585
2.08119
1.7741
1.57151
1.43962
1.3606
1.32365
1.32034
1.34843
1.40981
1.5041
1.62711
1.76246
1.91117
2.06419
2.28451
7.25411
6.02597
4.18302
3.13458
2.48592
2.06494
1.7827
1.59024
1.46036
1.37811
1.33439
1.32343
1.34264
1.39121
1.46914
1.5721
1.69547
1.83224
1.97556
2.15827
4.85528
4.03637
3.06663
2.468
2.06617
1.78525
1.58519
1.44216
1.34178
1.27535
1.23748
1.22499
1.23594
1.26867
1.32156
1.39185
1.47723
1.57457
1.68651
1.82224
3.92111
3.03716
2.33021
1.91025
1.63797
1.44947
1.31432
1.21643
1.14664
1.09954
1.07186
1.0616
1.06734
1.08766
1.1211
1.16609
1.22137
1.28632
1.36239
1.44959
3.39434
2.47593
1.84569
1.49028
1.27588
1.13715
1.04256
0.976318
0.930098
0.899332
0.881407
0.874747
0.878228
0.890835
0.911566
0.939503
0.973982
1.01477
1.062
1.11428
2.96742
2.05458
1.46571
1.14885
0.969766
0.862311
0.794265
0.749626
0.720177
0.701547
0.691325
0.688103
0.690947
0.699117
0.711954
0.728887
0.749496
0.773536
0.800718
0.830018
2.52324
1.65422
1.11703
0.846292
0.70304
0.622916
0.575862
0.547355
0.530074
0.520182
0.515585
0.515084
0.517924
0.523558
0.531542
0.541502
0.553149
0.566254
0.580531
0.595393
1.99706
1.22674
0.774822
0.569388
0.469195
0.417099
0.388836
0.373324
0.365137
0.361458
0.360754
0.362143
0.365079
0.369181
0.374153
0.379753
0.385786
0.392087
0.398461
0.404602
1.35769
0.768713
0.44981
0.32638
0.272358
0.246795
0.234516
0.229062
0.227351
0.22779
0.229496
0.231948
0.234813
0.237855
0.240895
0.243785
0.246409
0.24867
0.250465
0.251653
0.643648
0.334324
0.184443
0.139211
0.122654
0.116591
0.115169
0.116019
0.118013
0.120545
0.123261
0.125932
0.128399
0.130539
0.132255
0.133472
0.134138
0.134217
0.13368
0.132494
0.0755915
0.0553648
0.0335813
0.0299775
0.0304345
0.0323087
0.0347466
0.0373793
0.0400095
0.0425118
0.0447937
0.0467794
0.0484035
0.0496108
0.0503593
0.0506237
0.0503986
0.0496962
0.0485421
0.0469665
6.74019
8.55899
12.4047
13.9865
14.1467
13.6189
12.9022
12.469
12.2017
12.1874
12.5005
13.2299
14.5207
16.6785
20.5625
4.76443