/*--------------------------------*- C++ -*----------------------------------*\
| =========                 |                                                 |
| \\      /  F ield         | OpenFOAM: The Open Source CFD Toolbox           |
|  \\    /   O peration     | Version:  v1912                                 |
|   \\  /    A nd           | Website:  www.openfoam.com                      |
|    \\/     M anipulation  |                                                 |
\*---------------------------------------------------------------------------*/
FoamFile
{
    version     2.0;
    format      ascii;
    class       volScalarField;
    location    "14";
    object      k;
}
// * * * * * * * * * * * * * * * * * * * * * * * * * * * * * * * * * * * * * //

dimensions      [0 2 -2 0 0 0 0];


internalField   nonuniform List<scalar> 
20320
(
0.00413852
0.0042561
0.00433449
0.00441149
0.00448652
0.00455919
0.00462889
0.00469498
0.00475662
0.0048131
0.00486503
0.0049338
0.00525901
0.00746111
0.0167526
0.0387381
0.0709235
0.101342
0.112103
0.077423
0.0041483
0.00414349
0.00417782
0.00425305
0.00438106
0.00457314
0.0048356
0.00517155
0.0055814
0.00604609
0.00656713
0.00811742
0.018859
0.060855
0.139933
0.227929
0.294453
0.323835
0.319834
0.268291
0.0041719
0.00420223
0.00427041
0.00437879
0.00454471
0.00478787
0.00512699
0.00558845
0.00617751
0.00686642
0.00838492
0.0188323
0.0652933
0.16284
0.284495
0.393598
0.465795
0.492535
0.473857
0.373672
0.0042061
0.00429298
0.00441837
0.00458279
0.00480197
0.00509937
0.00550377
0.00603122
0.00668562
0.00773538
0.013946
0.0492421
0.142828
0.279796
0.421745
0.537742
0.609951
0.631343
0.595191
0.454319
0.0042488
0.00441063
0.00461403
0.00485059
0.00514171
0.00551083
0.00597881
0.00657271
0.00731253
0.0100294
0.0293452
0.101412
0.234754
0.39547
0.54721
0.665137
0.735095
0.749479
0.69701
0.5233
0.00429878
0.00455532
0.00485414
0.00518836
0.00556864
0.00602524
0.00657812
0.00721255
0.00837032
0.0160568
0.0584546
0.168315
0.330081
0.504998
0.66167
0.77955
0.846281
0.85329
0.786346
0.585063
0.00435434
0.00472096
0.00513735
0.00558321
0.00607757
0.00663636
0.00727101
0.00798304
0.010484
0.028566
0.100573
0.242544
0.423837
0.60759
0.766879
0.883921
0.947144
0.947028
0.867205
0.641802
0.0044128
0.0049036
0.00545158
0.00602747
0.00665554
0.00732816
0.00802232
0.00901142
0.0147166
0.049427
0.152251
0.319275
0.514126
0.703732
0.864572
0.980574
1.0404
1.03364
0.942176
0.694949
0.00447179
0.0050966
0.00578156
0.0065134
0.00727556
0.00806892
0.00883193
0.0105308
0.022391
0.0787742
0.209795
0.395836
0.600436
0.794285
0.956317
1.07145
1.12825
1.1154
1.0132
0.745652
0.00452883
0.00528795
0.00611947
0.00701235
0.00791362
0.00881826
0.00971669
0.012939
0.0346591
0.115285
0.270312
0.470855
0.682858
0.88021
1.04355
1.15829
1.21261
1.19425
1.08199
0.794985
0.00458064
0.00546715
0.00645166
0.00748907
0.0085446
0.00953289
0.0107163
0.016773
0.0520442
0.156985
0.331793
0.543682
0.761765
0.9625
1.12768
1.24279
1.29539
1.27214
1.15024
0.844084
0.00462375
0.00562688
0.00675286
0.00792011
0.00912684
0.0101781
0.0119213
0.022565
0.0742586
0.20188
0.392907
0.614088
0.837687
1.04221
1.21018
1.3268
1.37871
1.35127
1.21993
0.894296
0.00465546
0.00575943
0.00699702
0.00828854
0.00960829
0.0107377
0.0134697
0.0306495
0.10036
0.248261
0.452816
0.682117
0.911311
1.12056
1.29277
1.41255
1.46525
1.43452
1.29369
0.947413
0.00467418
0.00585553
0.00716752
0.00857294
0.00994758
0.0112141
0.0154998
0.0410111
0.129039
0.294742
0.510988
0.74798
0.983447
1.19895
1.37756
1.50296
1.55866
1.52593
1.37531
1.00603
0.00467932
0.00590709
0.00725769
0.00874888
0.010127
0.0116218
0.018086
0.0532447
0.158879
0.340208
0.56707
0.811987
1.05503
1.27907
1.46725
1.602
1.6643
1.63182
1.47093
1.07426
0.00467118
0.0059103
0.00726717
0.00879904
0.0101504
0.0119768
0.0211883
0.0666289
0.188508
0.38372
0.620781
0.874467
1.12707
1.36291
1.56532
1.71533
1.79044
1.76275
1.59138
1.15946
0.00465091
0.0058667
0.00719971
0.00872098
0.0100344
0.0122864
0.0246361
0.0802583
0.216659
0.424416
0.671776
0.935629
1.20053
1.45262
1.67608
1.85081
1.95013
1.93738
1.75785
1.27668
0.00462044
0.00578236
0.00706327
0.00852769
0.00980158
0.0125415
0.0281516
0.0931798
0.242174
0.461401
0.719498
0.995343
1.27595
1.55009
1.80412
2.01847
2.163
2.18914
2.01524
1.462
0.00458228
0.00566631
0.00687016
0.00824292
0.00947681
0.0127181
0.0314108
0.104527
0.264042
0.493738
0.763108
1.05296
1.35309
1.65605
1.95274
2.22814
2.45395
2.57279
2.46052
1.82078
0.00453919
0.00552878
0.00663609
0.00789507
0.00908557
0.0127867
0.034118
0.113632
0.281466
0.520523
0.801557
1.1073
1.43059
1.76889
2.12058
2.48143
2.83782
3.14741
3.27034
2.74391
11.6151
15.6399
23.2233
30.4833
38.5605
44.8444
48.5315
53.3789
60.3676
69.598
81.6988
97.3221
115.451
134.063
153.815
160.824
133.596
111.267
93.5685
79.0504
66.8386
56.5525
47.9971
40.9797
35.278
30.6807
26.9083
23.7762
21.1573
18.9589
17.107
15.5423
14.2163
13.0895
12.1297
11.3107
10.6097
10.0086
9.49236
9.04949
8.67083
8.34789
8.07291
7.83937
7.64102
7.47238
7.32898
7.20689
7.10262
7.01338
6.93656
6.86996
6.81122
6.75807
6.70841
6.66037
6.61276
6.56513
6.51729
6.46807
16.9211
41.992
61.762
81.141
100.398
116.675
131.433
148.797
171.184
200.061
237.037
283.171
336.699
389.085
417.398
400.133
342.691
285.387
238.74
200.638
169.177
143.262
122.071
104.78
90.5821
78.8289
69.0623
60.8902
54.0163
48.215
43.3071
39.1462
35.6121
32.6055
30.0447
27.861
25.9965
24.4025
23.0392
21.8748
20.8826
20.0391
19.3226
18.7147
18.1988
17.76
17.3856
17.0656
16.7905
16.5523
16.3443
16.1602
15.9943
15.8416
15.6972
15.5571
15.419
15.2813
15.1437
15.007
18.8912
51.1033
74.7026
99.0173
121.603
141.941
163.886
188.746
219.862
260.053
311.659
376.019
453.802
541.989
584.477
500.863
421.744
350.975
293.076
245.883
207.225
175.77
150.37
129.789
112.894
98.8276
87.0277
77.0674
68.6248
61.45
55.3429
50.139
45.701
41.914
38.6821
35.9228
33.5659
31.5521
29.8312
28.3618
27.1093
26.0433
25.1359
24.3634
23.7048
23.141
22.6563
22.2374
21.8728
21.5522
21.2672
21.0102
20.7746
20.5548
20.3457
20.1432
19.9449
19.7488
19.5547
19.3673
19.6662
55.9612
81.6659
109.009
132.921
157.715
185.541
217.129
256.054
306.432
371.614
454.016
556.86
683.637
765.679
587.985
474.534
389.301
322.786
269.746
226.961
192.652
165.301
143.296
125.245
110.188
97.4843
86.7048
77.5223
69.6816
62.9791
57.2464
52.3434
48.1518
44.5704
41.5124
38.9023
36.6751
34.7752
33.1558
31.7773
30.6045
29.6057
28.7533
28.0238
27.3959
26.8513
26.3757
25.9564
25.5819
25.2433
24.9324
24.6424
24.3683
24.1052
23.8491
23.599
23.3532
23.1117
22.8837
19.9807
58.9243
86.1606
115.753
140.792
169.669
202.648
240.388
286.351
346.614
426.634
529.394
646.78
773.612
868.258
667.029
517.881
413.743
337.932
280.234
235.124
199.729
171.91
149.645
131.368
116.107
103.198
92.1976
82.7952
74.7406
67.8332
61.9105
56.8367
52.4964
48.7897
45.6292
42.9372
40.6462
38.6981
37.0432
35.6384
34.4452
33.4288
32.5595
31.8124
31.1648
30.5976
30.0959
29.6469
29.239
28.8633
28.5121
28.1787
27.859
27.549
27.2455
26.9492
26.6596
26.378
26.1171
19.7504
60.6502
89.4163
119.031
147.133
180.057
217.774
261.421
314.731
385.147
481.395
606.44
747.983
882.561
991.546
741.093
554.944
429.045
342.718
280.818
234.717
199.62
172.421
150.728
132.864
117.977
105.339
94.5463
85.3075
77.38
70.5713
64.7272
59.7208
55.4431
51.7983
48.7014
46.0747
43.8472
41.9614
40.3679
39.0206
37.8787
36.9052
36.0696
35.3468
34.7137
34.1515
33.6463
33.1857
32.7585
32.3571
31.9747
31.6053
31.2465
30.8948
30.5478
30.209
29.8801
29.567
29.2813
18.9509
61.1909
91.4511
121.251
153.209
190.195
232.559
281.915
342.793
424.914
542.788
706.983
900.65
1065.57
1187.54
818.689
584.72
435.958
339.099
273.723
228.035
194.353
168.44
147.922
130.793
116.555
104.51
94.2558
85.5076
78.009
71.5711
66.0491
61.3262
57.3016
53.8869
51.0024
48.5748
46.5351
44.8195
43.3764
42.1602
41.1302
40.2477
39.485
38.818
38.2231
37.6842
37.19
36.7285
36.2898
35.8689
35.4601
35.0581
34.6643
34.2732
33.8833
33.5018
33.1262
32.7705
32.4555
18.3854
61.1969
91.8299
123.94
159.783
201.001
248.198
303.23
371.431
465.541
608.712
827.665
1127.23
1414.6
1425.64
891.021
603.153
433.199
327.719
260.544
217.179
185.811
160.971
141.07
125.008
111.835
100.865
91.6151
83.7323
76.9688
71.153
66.1576
61.8818
58.2391
55.1545
52.5619
50.402
48.6131
47.1285
45.8897
44.8457
43.9563
43.1854
42.5096
41.9083
41.3592
40.8489
40.3692
39.9094
39.4607
39.0202
38.5831
38.1455
37.7096
37.268
36.8174
36.3603
35.8928
35.4469
35.0661
18.1086
61.5178
93.1765
127.706
167.404
213.197
265.708
326.724
401.806
506.05
674.091
953.081
1418.96
1855.29
1607.24
931.049
603.175
418.905
308.769
242.507
203.401
171.497
148.221
130.285
116.162
104.702
95.1983
87.2353
80.4716
74.6649
69.6575
65.3419
61.6359
58.4703
55.7851
53.5275
51.645
50.0724
48.7565
47.6649
46.7511
45.9702
45.2869
44.6778
44.1241
43.6075
43.116
42.6423
42.178
41.7161
41.2537
40.7878
40.3162
39.8397
39.3537
38.8565
38.3548
37.8623
37.4128
37.0183
18.2195
62.7248
96.1563
133.225
176.702
227.466
286.052
353.9
435.971
546.363
731.696
1056.24
1536.28
2034.97
1565.55
910.869
578.856
392.089
282.779
220.731
181.755
152.894
132.588
117.369
105.549
96.0873
88.2751
81.7384
76.2055
71.4619
67.3634
63.8166
60.7558
58.1275
55.8863
53.9904
52.3937
51.0384
49.8854
48.9185
48.106
47.4073
46.7884
46.2258
45.7021
45.2026
44.7171
44.2389
43.7621
43.2815
42.7949
42.301
41.7993
41.2909
40.7752
40.2554
39.7438
39.2606
38.8232
38.4369
18.913
65.3236
101.166
141.023
188.33
244.482
310.171
386.4
477.285
591.656
764.555
1084.34
1496.93
1939.45
1336.54
833.05
531.011
353.964
251.376
196.006
158.391
133.633
116.546
104.087
94.5403
86.9932
80.8286
75.6924
71.3651
67.6724
64.4873
61.7265
59.3335
57.2659
55.4881
53.9678
52.6662
51.5385
50.5575
49.7162
48.996
48.3662
47.7974
47.2678
46.7621
46.2683
45.7786
45.2882
44.7931
44.2905
43.7798
43.2615
42.737
42.2091
41.6811
41.1605
40.6616
40.2004
39.7814
39.4138
21.6891
70.178
108.819
151.617
202.861
264.829
338.91
425.894
527.642
646.678
808.957
1082.73
1470.56
1777.39
1150.04
731.318
467.133
308.068
217.335
168.164
136.998
116.181
101.957
91.7963
84.1629
78.2208
73.4527
69.5377
66.2806
63.5359
61.1927
59.1733
57.4243
55.9073
54.5917
53.4499
52.4508
51.5621
50.7663
50.0614
49.4384
48.8768
48.354
47.8521
47.3587
46.8652
46.3667
45.8608
45.346
44.8225
44.2915
43.7557
43.2186
42.685
42.1612
41.6563
41.1827
40.7489
40.3531
40.01
29.3693
79.2569
120.069
165.653
220.867
288.97
372.87
472.594
570.092
700.967
870.64
1137.61
1506.73
1564.92
991.478
624.233
395.645
259.271
184.393
144.471
119.063
101.86
89.9205
81.4053
75.116
70.3258
66.5862
63.6081
61.205
59.2421
57.6154
56.2473
55.0813
54.0766
53.2022
52.4307
51.7359
51.0947
50.4961
49.9407
49.4256
48.9389
48.4655
47.9928
47.5125
47.0199
46.5135
45.994
45.4633
44.9243
44.3808
43.8377
43.3003
42.775
42.2693
41.7918
41.3507
40.9481
40.58
40.2647
38.0616
95.1239
136.113
183.952
243.12
317.181
410.22
493.253
588.999
730.516
921.242
1201.2
1618.29
1394.7
836.11
515.258
323.12
212.658
155.71
125.549
105.279
90.9611
80.6932
73.2286
67.7256
63.6126
60.5049
58.1397
56.3336
54.9497
53.881
53.0435
52.3723
51.8185
51.3454
50.9231
50.525
50.1327
49.7381
49.3424
48.946
48.5436
48.127
47.6894
47.2275
46.7409
46.2323
45.7061
45.1677
44.6231
44.0785
43.5408
43.0166
42.513
42.0372
41.5957
41.192
40.8239
40.4873
40.2019
46.0822
114.743
157.548
207.577
270.972
344.966
414.848
485.942
574.706
703.116
885.546
1158.88
1547.06
1120.42
667.986
407.376
255.538
172.602
133.33
111.242
95.0882
83.0107
73.9158
67.0715
61.9441
58.126
55.3078
53.2566
51.7949
50.7812
50.1005
49.6579
49.3765
49.1957
49.0688
48.9598
48.8396
48.6877
48.4958
48.2639
47.9935
47.6835
47.3317
46.937
46.5013
46.0292
45.5279
45.0057
44.4716
43.9345
43.4031
42.8852
42.3883
41.919
41.4831
41.0841
40.7218
40.3913
40.0885
39.8336
53.2566
130.308
175.021
225.025
281.297
340.792
399.491
462.759
540.847
646.771
796.747
1017.46
1206.74
800.95
499.109
309.158
198.581
141.767
116.838
100.666
87.6705
77.2516
68.9749
62.4868
57.4886
53.7172
50.9431
48.9727
47.642
46.8105
46.3562
46.1733
46.1716
46.2773
46.4314
46.5884
46.7139
46.7836
46.7843
46.7126
46.5694
46.3562
46.0754
45.7312
45.3308
44.884
44.4021
43.8976
43.3826
42.8686
42.3658
41.8832
41.4276
41.0041
40.6165
40.2652
39.9472
39.6559
39.3877
39.1616
56.1958
139.908
182.09
226.7
275.866
326.65
378.052
434.734
502.137
586.321
696.246
829.717
822.176
556.956
359.746
230.323
155.647
120.237
105.301
92.9209
82.1752
72.9742
65.2835
59.007
54.013
50.1529
47.2729
45.2238
43.8645
43.0628
42.6955
42.6488
42.8211
43.1257
43.491
43.8605
44.1912
44.4525
44.6259
44.7029
44.6818
44.5653
44.3591
44.0721
43.7164
43.3063
42.8576
42.3861
41.9067
41.4327
40.9752
40.5429
40.1416
39.774
39.4412
39.1411
38.8684
38.6158
38.3799
38.1785
56.2229
143.779
184.439
223.757
265.622
309.284
355.67
407.103
465.308
530.726
602.39
667.226
558.812
390.195
260.235
173.935
126.203
106.264
96.8301
87.1701
77.9654
69.6458
62.3905
56.2528
51.2114
47.2024
44.1368
41.9106
40.4125
39.5261
39.1332
39.1174
39.3689
39.7897
40.2968
40.8222
41.3131
41.731
42.0501
42.2568
42.3465
42.3215
42.1899
41.9646
41.6619
41.3002
40.8991
40.477
40.0507
39.6341
39.2381
38.8702
38.5343
38.2305
37.9567
37.7087
37.4796
37.2618
37.052
36.8679
54.304
142.065
181.083
215.815
252.029
290.836
333.339
380.173
430.405
480.505
522.125
529.949
406.527
284.246
193.914
136.234
107.067
97.3374
90.5742
82.6345
74.5514
66.8972
59.9832
53.951
48.8494
44.6742
41.3881
38.9302
37.2216
36.1677
35.6619
35.5903
35.8391
36.3021
36.8855
37.5109
38.1151
38.6506
39.0845
39.3973
39.5813
39.6384
39.5785
39.4174
39.1752
38.8737
38.5349
38.1789
37.8231
37.4807
37.1612
36.8699
36.6079
36.3726
36.1587
35.96
35.7686
35.5771
35.3828
35.2045
50.7183
135.289
172.608
204.139
236.269
271.252
310.077
351.863
393.991
430.9
450.027
424.498
306.616
214.675
149.794
111.472
94.8038
90.8858
85.734
78.9162
71.6241
64.486
57.8544
51.9156
46.7599
42.4238
38.909
36.1925
34.2283
32.948
32.2622
32.0647
32.242
32.6822
33.2828
33.955
34.6258
35.239
35.754
36.1462
36.4051
36.5323
36.5392
36.444
36.2695
36.0398
35.7781
35.5046
35.2355
34.9824
34.752
34.5462
34.3631
34.1968
34.0391
33.8823
33.7179
33.5388
33.3437
33.1555
46.1275
125.237
160.461
189.48
218.423
249.89
284.601
320.086
352.501
377.032
388.199
331.598
236.975
166.233
119.615
95.0585
86.9131
85.9133
81.6427
75.6576
68.9755
62.2556
55.8691
50.0216
44.8267
40.3455
36.6087
33.6242
31.3774
29.8285
28.9099
28.5292
28.5771
28.9387
29.504
30.1745
30.8678
31.5187
32.0805
32.5243
32.8375
33.0218
33.0899
33.0622
32.9628
32.8165
32.6462
32.4703
32.3024
32.1506
32.0178
31.9022
31.7979
31.696
31.5858
31.4582
31.3043
31.1177
30.8998
30.6811
41.0874
113.563
146.254
172.84
198.815
226.48
255.991
283.001
306.171
324.163
331.997
260.922
184.594
130.942
98.5526
84.0787
81.7662
81.8663
78.1774
72.7012
66.4804
60.1083
53.9413
48.1879
42.9708
38.3655
34.4215
31.1704
28.626
26.7776
25.5845
24.9727
24.8421
25.0775
25.562
26.1874
26.8618
27.5125
28.0876
28.5552
28.9024
29.1313
29.2561
29.298
29.2815
29.2301
29.1642
29.0986
29.0425
28.9994
28.9676
28.941
28.9099
28.8622
28.7852
28.6685
28.5028
28.2827
28.0137
27.7385
35.954
101.507
131.462
155.533
178.449
201.752
224.181
244.897
266.171
279.388
272.775
201.95
143.951
104.883
83.8458
76.7402
78.4788
78.3485
74.987
69.9141
64.0608
57.984
52.0172
46.361
41.1385
36.4309
32.2988
28.7903
25.9421
23.7724
22.2702
21.3866
21.036
21.1051
21.4701
22.0126
22.6309
23.2459
23.8025
24.2682
24.6308
24.8938
25.0724
25.1875
25.2618
25.3155
25.3642
25.4173
25.4784
25.5452
25.6111
25.6657
25.6959
25.6866
25.6233
25.4944
25.2897
25.0047
24.6501
24.2868
30.8828
89.8122
117.147
138.793
158.802
177.896
195.271
213.707
231.487
238.356
214.109
155.795
112.775
85.9536
73.74
71.9395
75.647
75.3169
72.041
67.2292
61.6699
55.848
50.0652
44.5079
39.2945
34.5063
30.2076
26.4561
23.306
20.8009
18.9623
17.773
17.168
17.0389
17.2537
17.6815
18.211
18.7582
19.2676
19.7087
20.0714
20.3609
20.5924
20.7848
20.9567
21.1224
21.291
21.4647
21.6405
21.8106
21.9634
22.0846
22.1581
22.1664
22.0934
21.9259
21.6521
21.2671
20.7873
20.2983
26.1173
78.6943
103.792
123.393
141.044
157.365
172.171
189.022
198.745
201.476
164.256
120.405
89.6834
72.6519
66.9831
68.9903
73.0594
72.4053
69.2128
64.6018
59.282
53.6811
48.067
42.609
37.4167
32.5674
28.1249
24.1504
20.7079
17.8628
15.6693
14.1488
13.2654
12.9175
12.9614
13.2504
13.6639
14.1162
14.5545
14.9525
15.3038
15.6149
15.8993
16.1716
16.4436
16.7218
17.0068
17.2935
17.5722
17.8298
18.0507
18.2174
18.3115
18.3136
18.206
17.9733
17.601
17.0818
16.4351
15.7766
21.8325
68.0529
91.3866
109.564
125.645
140.583
154.701
167.634
171.343
165.675
126.772
94.2195
73.217
63.662
62.67
67.3097
70.7103
69.7254
66.4825
62.0083
56.884
51.4753
46.0156
40.655
35.4927
30.5999
26.0368
21.8635
18.1484
14.9716
12.419
10.5572
9.38943
8.82155
8.69018
8.82817
9.10721
9.44447
9.79389
10.1357
10.4673
10.7955
11.1299
11.4781
11.843
12.2221
12.6072
12.9863
13.3442
13.6635
13.9257
14.1115
14.2006
14.1727
14.0077
13.6884
13.1965
12.5189
11.6721
10.7987
17.7316
57.966
79.9117
97.2621
112.661
126.961
140.476
149.251
149.165
132.862
99.3389
75.2914
61.911
57.8495
60.1245
66.3391
68.463
67.1039
63.8126
59.4345
54.4698
49.2282
43.9089
38.6426
33.5169
28.5961
23.9359
19.5933
15.6368
12.1556
9.26402
7.08186
5.66324
4.91571
4.63809
4.635
4.77614
4.98917
5.2395
5.51548
5.81786
6.15157
6.52016
6.92278
7.35316
7.80011
8.24874
8.68166
9.07994
9.42388
9.6934
9.86814
9.92745
9.85031
9.61465
9.20194
8.5911
7.76342
6.72461
5.61769
13.9687
48.833
69.4432
86.5448
102.016
116.295
128.553
133.918
132.074
105.604
79.0301
61.9076
54.4587
54.3177
58.9232
65.0801
66.2569
64.5414
61.1743
56.8679
52.0369
46.9416
41.7497
36.573
31.4885
26.5537
21.8202
17.3426
13.1892
9.45706
6.29015
3.87762
2.34447
1.57776
1.27088
1.19075
1.22031
1.31289
1.45361
1.64151
1.87993
2.17152
2.51533
2.90489
3.32799
3.76865
4.2087
4.62844
5.00711
5.32426
5.55935
5.69195
5.70248
5.5717
5.27612
4.79988
4.12726
3.24856
2.17388
1.06248
10.9889
40.5284
60.412
77.7369
93.8359
108.615
119.53
122.761
113.513
84.8524
64.0237
52.7056
49.7978
52.4046
58.6087
63.7091
64.0471
61.9901
58.5504
54.3011
49.5854
44.6189
39.5429
34.4513
29.4108
24.4749
19.6924
15.1185
10.8268
6.93067
3.62389
1.25555
0.191397
0.047185
0.0313808
0.0284938
0.0285136
0.0301837
0.0340591
0.0423688
0.0605487
0.0998146
0.178051
0.313677
0.512973
0.763752
1.04246
1.32321
1.58135
1.79433
1.94126
2.00306
1.96312
1.80959
1.5294
1.13072
0.670585
0.273151
0.0639898
0.0135103
10.2198
35.252
53.9689
71.5602
88.5687
104.173
113.838
114.416
93.0136
68.6029
52.9844
46.6468
47.1088
51.6449
58.9047
62.1528
61.8176
59.4575
55.94
51.7342
47.1177
42.2661
37.2946
32.2832
27.29
22.3651
17.558
12.9307
8.57241
4.64051
1.48837
0.0514851
0.0160416
0.0159168
0.0160504
0.0162249
0.0164079
0.0165806
0.016726
0.0168345
0.0169009
0.0169243
0.016928
0.0169983
0.0173905
0.0187365
0.0222117
0.0291679
0.0396752
0.0511565
0.0591556
0.0599563
0.0532453
0.0428588
0.0326632
0.0220074
0.0145838
0.0108276
0.00907146
0.00759583
12.5778
34.2515
51.0926
68.7607
86.5529
102.745
110.599
103.397
75.9348
55.6628
45.1115
42.9289
45.7982
51.7208
58.6113
60.5216
59.5528
56.9294
53.3413
49.1697
44.6384
39.8881
35.0122
30.0765
25.1334
20.2315
15.4254
10.7906
6.45566
2.69575
0.209407
0.0125672
0.0125041
0.0126789
0.0128956
0.0131301
0.0133655
0.0135922
0.0138008
0.0139862
0.0141463
0.0142753
0.0143661
0.0144067
0.0143823
0.0142909
0.0141387
0.0139276
0.0136615
0.0133467
0.0129845
0.0125767
0.0121245
0.0116234
0.0110588
0.01041
0.00966616
0.00884523
0.00799091
0.00691507
14.54
35.95
51.8019
69.5309
87.5991
103.109
108.468
86.7856
61.0257
45.466
39.8861
40.9201
45.462
52.3721
57.8052
58.6895
57.2275
54.3943
50.7496
46.608
42.151
37.4906
32.7013
27.8384
22.9488
18.0825
13.3037
8.71824
4.54072
1.17147
0.0139939
0.00992103
0.0100818
0.0102926
0.0105297
0.010775
0.0110157
0.0112454
0.0114573
0.0116476
0.0118169
0.0119639
0.0120857
0.0121738
0.0122143
0.0122021
0.0121404
0.0120258
0.0118563
0.0116333
0.0113538
0.011016
0.0106219
0.0101718
0.00966668
0.00910861
0.00850618
0.00788684
0.00728842
0.00648688
13.6435
36.9391
52.1147
70.6927
89.7411
103.129
100.432
68.9446
47.7253
37.9962
36.8453
40.1333
45.8483
53.3265
56.6734
56.7236
54.8509
51.8474
48.1611
44.0485
39.658
35.0787
30.3697
25.5771
20.7454
15.9285
11.2107
6.76456
2.86149
0.227687
0.00812558
0.00816884
0.0083494
0.00856422
0.00879717
0.00903396
0.00926427
0.00948262
0.00968327
0.00986214
0.0100193
0.0101558
0.0102714
0.0103605
0.0104104
0.0104154
0.0103785
0.0102982
0.0101731
0.0100041
0.00978897
0.00952622
0.00921879
0.00886963
0.00848328
0.00806625
0.00762878
0.007194
0.00678626
0.00617777
11.8332
34.9032
49.9639
68.9956
89.5577
100.535
78.2622
51.1354
36.9821
33.3916
35.4876
40.2202
46.8058
53.328
55.2907
54.6309
52.4254
49.2864
45.5714
41.4893
37.1606
32.6561
28.0225
23.2998
18.5322
13.7813
9.18857
4.95242
1.46702
0.0169698
0.00680656
0.00694157
0.00711734
0.00731973
0.00753618
0.00775519
0.0079681
0.00817003
0.00835578
0.00852085
0.0086645
0.00878812
0.00889371
0.00897809
0.00903003
0.00904305
0.00901932
0.00895977
0.00886412
0.0087355
0.00857263
0.00837419
0.00814268
0.0078821
0.00759675
0.00729249
0.00697813
0.0066725
0.00639397
0.00592544
9.8341
30.8974
45.2223
62.6571
84.4593
85.1519
53.7899
35.9708
30.2035
31.3152
35.3186
40.9566
48.1174
52.8071
53.6535
52.4293
49.9547
46.7083
42.9764
38.9279
34.659
30.2254
25.6649
21.0135
16.3175
11.6771
7.2573
3.31316
0.445783
0.00611032
0.00595475
0.00608236
0.00624195
0.00642392
0.00661822
0.00681505
0.00700682
0.00718941
0.00735818
0.00750887
0.00763967
0.00775142
0.00784724
0.00792608
0.00797886
0.00799818
0.00798503
0.00794166
0.00786961
0.00777205
0.00764952
0.00750062
0.00732762
0.00713373
0.00692306
0.00670068
0.00647373
0.00625738
0.00606661
0.00570323
8.56797
27.0082
40.2663
56.8128
77.0253
52.0396
33.5515
26.7942
27.4128
30.9824
35.9427
42.181
49.1435
51.7889
51.7826
50.121
47.4342
44.1073
40.3711
36.361
32.1529
27.7896
23.3019
18.7258
14.123
9.63506
5.44092
1.89518
0.0471372
0.00529939
0.0053706
0.00548187
0.00562054
0.00577904
0.00594903
0.00612204
0.00629135
0.00645323
0.00660401
0.00673984
0.00685816
0.00695868
0.00704475
0.00711728
0.0071692
0.00719317
0.00718876
0.00715813
0.00710401
0.00703032
0.00693813
0.00682661
0.00669695
0.00655222
0.00639601
0.00623248
0.00606737
0.00591275
0.0057818
0.00549982
8.75885
24.9363
36.2006
54.9819
49.4023
29.8939
23.0974
23.736
27.1307
31.6589
37.1083
43.7325
49.0353
50.4994
49.768
47.7246
44.8624
41.4775
37.7502
33.7861
29.6425
25.3513
20.9393
16.4446
11.9751
7.67431
3.77192
0.772109
0.00595458
0.00490981
0.00497242
0.0050646
0.00518098
0.00531537
0.00546082
0.00561009
0.00575717
0.00589853
0.00603118
0.00615202
0.00625797
0.00634746
0.00642345
0.00648849
0.0065382
0.00656518
0.00656758
0.00654699
0.00650634
0.00645014
0.00638026
0.0062962
0.00619874
0.00609019
0.00597351
0.00585229
0.00573092
0.00561913
0.00552899
0.00531114
10.5064
26.8873
38.5967
44.8556
25.5102
19.4998
20.4929
23.8141
27.9936
32.8941
38.7008
45.4033
48.4477
48.8694
47.5727
45.2284
42.2308
38.8113
35.1075
31.199
27.1271
22.9136
18.5826
14.1944
9.88653
5.81774
2.295
0.133287
0.00467381
0.00465985
0.00470557
0.004778
0.00487239
0.00498347
0.00510538
0.00523196
0.00535787
0.00547964
0.00559459
0.00570055
0.00579418
0.00587291
0.00593897
0.00599596
0.00604162
0.00607002
0.00607735
0.00606424
0.0060336
0.00598981
0.00593584
0.00587173
0.00579805
0.00571607
0.00562824
0.00553744
0.00544706
0.00536512
0.00530287
0.00513613
18.5697
45.5637
30.1219
18.303
15.8192
17.7878
21.0965
24.9594
29.3508
34.4789
40.6405
45.8296
47.3436
46.8849
45.1587
42.6066
39.5259
36.1007
32.4384
28.5983
24.6086
20.4824
16.2405
11.992
7.87532
4.09697
1.08182
0.00946358
0.0045057
0.00450427
0.0045324
0.00458561
0.00465928
0.00474883
0.00484917
0.00495493
0.0050613
0.00516474
0.00526272
0.00535394
0.00543521
0.00550335
0.00555989
0.00560832
0.00564849
0.00567582
0.00568601
0.00567813
0.00565453
0.00561967
0.00557693
0.00552728
0.00547091
0.00540866
0.00534194
0.00527312
0.00520478
0.00514377
0.00510061
0.00497492
9.78255
15.2491
11.9771
13.257
15.9233
19.0377
22.5367
26.4853
30.9805
36.3511
42.4893
45.3353
45.7493
44.6436
42.573
39.8674
36.7437
33.3404
29.7389
25.982
22.0893
18.066
13.9439
9.85112
5.96157
2.55347
0.262807
0.00458921
0.00443348
0.0044167
0.00442806
0.00446354
0.00451831
0.00458813
0.00466859
0.00475494
0.0048427
0.00492831
0.0050096
0.00508596
0.00515475
0.00521259
0.00526018
0.00530066
0.00533487
0.00536
0.00537145
0.00536701
0.00534856
0.00532001
0.00528508
0.0052455
0.00520156
0.00515346
0.00510221
0.00504933
0.00499681
0.0049505
0.00492048
0.00482791
0.00449389
0.00537986
0.00637812
0.00751216
0.00865299
0.0127275
0.0360826
0.120144
0.294047
0.54119
0.833998
1.15705
1.50618
1.8841
2.29809
2.75883
3.27888
3.86698
4.51172
5.32969
0.00444746
0.00522678
0.00610944
0.00711351
0.00819682
0.0125433
0.037301
0.124224
0.302188
0.556267
0.860962
1.20249
1.57899
1.99737
2.47179
3.02353
3.68048
4.47224
5.41276
6.65179
0.00440148
0.00507278
0.00583768
0.00671049
0.00773242
0.0122726
0.0379854
0.126636
0.307443
0.568087
0.885401
1.24674
1.65137
2.1081
2.63355
3.25056
3.98381
4.84727
5.81927
6.8712
0.00435766
0.00492356
0.00557383
0.00631779
0.00728751
0.0120485
0.0388618
0.129733
0.314478
0.583408
0.915346
1.29809
1.73076
2.22168
2.78595
3.44189
4.20416
5.07049
6.00423
6.94571
0.00431722
0.00478402
0.00532579
0.00594908
0.00691538
0.0123118
0.042361
0.140726
0.336121
0.618977
0.969253
1.37512
1.83508
2.35571
2.94854
3.62568
4.3928
5.23905
6.12787
7.00417
0.00428084
0.00465837
0.00509681
0.00562689
0.00685365
0.0152282
0.0582921
0.181424
0.402792
0.708646
1.08124
1.51083
1.99616
2.54202
3.15628
3.84563
4.60997
5.43566
6.29144
7.13357
0.00424933
0.00454817
0.00489676
0.00551713
0.00940457
0.0353427
0.125169
0.305395
0.570734
0.906626
1.30222
1.75274
2.25859
2.8237
3.45318
4.15004
4.91106
5.72268
6.55942
7.38814
0.00422397
0.00445668
0.00487641
0.00864736
0.0390031
0.143527
0.336305
0.59806
0.913479
1.27727
1.68932
2.15181
2.66823
3.24266
3.87865
4.57712
5.33345
6.13484
6.96021
7.7844
0.00420878
0.00448682
0.00889851
0.0570465
0.221564
0.489575
0.805365
1.14038
1.49191
1.86872
2.28189
2.74085
3.2526
3.82191
4.45169
5.14207
5.88807
6.6775
7.49183
8.31123
0.00441473
0.00876556
0.092282
0.380729
0.791987
1.21235
1.60246
1.96474
2.31697
2.68018
3.07327
3.51062
4.00133
4.55019
5.1597
5.83038
6.55806
7.33103
8.13197
8.94443
0.0486944
0.180363
0.74204
1.38436
1.92804
2.36166
2.7171
3.03046
3.3329
3.64967
4.00088
4.40139
4.85946
5.37765
5.95713
6.59956
7.3029
8.05637
8.84497
9.65566
1.57047
1.70261
2.68119
3.25207
3.59928
3.8372
4.03017
4.21802
4.42562
4.66984
4.9642
5.31977
5.74174
6.22868
6.77877
7.39308
8.07125
8.80349
9.58396
10.4099
11.2766
6.01335
5.8957
5.65946
5.47658
5.36482
5.32313
5.35152
5.44847
5.61394
5.85016
6.16085
6.54887
7.01279
7.54949
8.15262
8.81138
9.51665
10.2773
11.1534
17.2098
11.3045
8.89632
7.68393
6.99461
6.58754
6.36241
6.26886
6.28199
6.3915
6.592
6.87587
7.2463
7.71323
8.27642
8.92142
9.59546
10.3003
11.009
11.9019
12.5553
11.1223
9.35658
8.25308
7.54497
7.09427
6.8218
6.68076
6.64532
6.70348
6.84898
7.07838
7.39226
7.79236
8.27969
8.83913
9.45351
10.0994
10.7544
11.5133
10.6235
9.65312
8.52233
7.77295
7.26293
6.92125
6.70582
6.58973
6.55692
6.59878
6.71095
6.89202
7.14129
7.45632
7.83258
8.26012
8.72985
9.23017
9.76731
10.3665
9.49254
8.50099
7.56186
6.9741
6.59459
6.34927
6.19962
6.12409
6.11043
6.15191
6.24513
6.38853
6.58049
6.81791
7.09614
7.4093
7.75226
8.12174
8.52094
8.94711
8.47114
7.49736
6.59955
6.0687
5.75367
5.56892
5.4688
5.42887
5.43587
5.4826
5.56519
5.6814
5.82922
6.00597
6.20827
6.43257
6.67599
6.93697
7.21466
7.50208
7.3454
6.44854
5.57976
5.08844
4.81836
4.67737
4.61475
4.60309
4.62749
4.67981
4.7555
4.85183
4.96671
5.098
5.24339
5.40062
5.56786
5.74367
5.92605
6.10965
6.0473
5.27755
4.47094
4.04277
3.82761
3.73113
3.70259
3.7149
3.75341
3.81005
3.88027
3.96133
4.05129
4.14851
4.25139
4.35845
4.4684
4.58004
4.6916
4.79979
4.55616
3.96987
3.28334
2.95853
2.8186
2.77362
2.77915
2.81263
2.86214
2.92116
2.98596
3.0543
3.12466
3.19583
3.26672
3.33638
3.40394
3.46856
3.52907
3.58363
2.904
2.5667
2.07702
1.89347
1.84157
1.84918
1.8852
1.93499
1.99109
2.04942
2.10762
2.16421
2.21819
2.26874
2.3152
2.35699
2.39361
2.42459
2.44936
2.46701
1.26126
1.20976
0.983606
0.943895
0.965984
1.01121
1.06511
1.12131
1.17661
1.22921
1.278
1.32221
1.36127
1.39468
1.42208
1.44319
1.45783
1.4659
1.46728
1.46178
0.137253
0.244314
0.226938
0.25425
0.295285
0.340944
0.387145
0.431752
0.473509
0.511581
0.545346
0.5743
0.598024
0.616198
0.628617
0.635223
0.636103
0.631474
0.621624
0.606849
2.60445
3.05449
3.91165
4.23777
4.27029
4.16359
4.01622
3.92579
3.86941
3.86626
3.93208
4.08345
4.34479
4.76509
5.47871
5.46229
6.78357
8.98947
9.84475
9.85863
9.65244
9.37921
9.13062
8.97297
8.95141
9.09916
9.44341
10.0094
10.8161
11.8466
7.41167
6.93731
6.92303
7.28014
7.81014
8.23719
8.52794
8.75777
9.01159
9.35648
9.83941
10.4904
11.3244
12.3367
13.4868
7.7992
8.05294
7.94417
7.83574
7.84639
8.00399
8.27344
8.63556
9.09784
9.67951
10.3984
11.2649
12.2792
13.4295
14.6923
7.83199
8.42772
8.70099
8.79355
8.84247
8.94062
9.14714
9.49003
9.98231
10.6292
11.4303
12.3796
13.467
14.6814
16.0194
7.94165
8.64315
9.14259
9.47796
9.72919
9.97298
10.2766
10.6879
11.235
11.9303
12.7749
13.7625
14.8854
16.1428
17.5528
8.20024
8.96234
9.5966
10.1147
10.5587
10.9775
11.4278
11.9561
12.5943
13.3601
14.2598
15.2936
16.4641
17.787
19.2989
8.60844
9.42002
10.151
10.8066
11.4042
11.9788
12.5746
13.2313
13.9782
14.8353
15.8143
16.9229
18.1758
19.6065
21.2756
9.1447
9.99591
10.803
11.5646
12.2855
12.9938
13.7252
14.5122
15.3797
16.3493
17.4388
18.657
20.0446
21.67
23.5755
9.78403
10.668
11.5376
12.3836
13.2104
14.0411
14.905
15.8278
16.8272
17.9345
19.2034
20.6018
22.1617
23.5373
24.7711
10.5089
11.4258
12.3457
13.2698
14.1976
15.1521
16.1609
17.2387
18.4155
19.7471
21.1473
22.2246
23.1453
23.7462
24.0843
11.2971
12.2522
13.2312
14.2374
15.2834
16.4144
17.7177
18.9029
19.9452
20.9079
21.6633
22.0783
22.2485