/*--------------------------------*- C++ -*----------------------------------*\
| =========                 |                                                 |
| \\      /  F ield         | OpenFOAM: The Open Source CFD Toolbox           |
|  \\    /   O peration     | Version:  v1912                                 |
|   \\  /    A nd           | Website:  www.openfoam.com                      |
|    \\/     M anipulation  |                                                 |
\*---------------------------------------------------------------------------*/
FoamFile
{
    version     2.0;
    format      ascii;
    class       volScalarField;
    location    "14";
    object      nut;
}
// * * * * * * * * * * * * * * * * * * * * * * * * * * * * * * * * * * * * * //

dimensions      [0 2 -1 0 0 0 0];


internalField   nonuniform List<scalar> 
20320
(
0.0347208
0.00760027
0.00766995
0.00773777
0.0078033
0.00786624
0.00792614
0.00798252
0.00803474
0.0080823
0.00812575
0.00818268
0.00844531
0.0100466
0.0150412
0.0228804
0.0309772
0.0370475
0.0389802
0.032405
0.0352185
0.0352471
0.0353819
0.0355583
0.0357508
0.0359316
0.0360647
0.0361332
0.03613
0.0358426
0.0339909
0.0286046
0.0371461
0.0875156
0.164992
0.227584
0.251981
0.240944
0.208441
0.120346
0.035328
0.0355621
0.0359755
0.0365771
0.0374377
0.0386243
0.0401761
0.0421067
0.0440339
0.0434673
0.0350234
0.0402086
0.100344
0.21002
0.32237
0.401251
0.432118
0.413587
0.340073
0.162326
0.0354847
0.0359846
0.0366614
0.0375144
0.0386074
0.0400277
0.0418561
0.0439429
0.0448071
0.0386348
0.0352991
0.0822181
0.197887
0.341673
0.46747
0.550427
0.579358
0.546679
0.434386
0.19001
0.0356774
0.0365219
0.0375458
0.0387074
0.0400907
0.0417731
0.0437436
0.0454126
0.0428267
0.0339025
0.0557288
0.151969
0.306645
0.467106
0.597358
0.679014
0.701096
0.651444
0.505751
0.210617
0.0358986
0.0371662
0.0385975
0.040156
0.0418772
0.0438413
0.0458531
0.0460641
0.0388777
0.0384464
0.0967857
0.236256
0.414385
0.582514
0.713024
0.790655
0.803718
0.737054
0.562773
0.22704
0.036139
0.0378823
0.0397917
0.0417785
0.0439004
0.0461246
0.0478148
0.0452746
0.0361659
0.0554025
0.153579
0.324983
0.51654
0.687749
0.816437
0.888771
0.892202
0.809518
0.610423
0.240774
0.0363859
0.0386457
0.041064
0.0435168
0.0460666
0.0484526
0.0491502
0.0431107
0.0384036
0.0847515
0.219549
0.412678
0.611801
0.783728
0.909631
0.976259
0.970236
0.872799
0.651782
0.252721
0.0366284
0.0394243
0.0423432
0.04532
0.0482337
0.0505708
0.0494727
0.0406813
0.047453
0.12452
0.289274
0.496764
0.700118
0.871619
0.994456
1.05551
1.04061
0.92969
0.688952
0.263505
0.0368566
0.0401692
0.0435935
0.0470742
0.0502692
0.0521824
0.0485706
0.0397553
0.0637385
0.171487
0.359122
0.576121
0.781892
0.952572
1.07253
1.12851
1.10553
0.982326
0.723525
0.273604
0.0370587
0.040842
0.0447689
0.0486536
0.0520418
0.0529949
0.0465917
0.0417897
0.0866867
0.222287
0.426847
0.650322
0.857663
1.02766
1.1453
1.19699
1.1669
1.03252
0.756863
0.283444
0.0372231
0.0414207
0.045792
0.0499801
0.053385
0.0527927
0.0441506
0.0474228
0.114856
0.274068
0.491084
0.719262
0.927992
1.09786
1.2141
1.26258
1.22649
1.08202
0.790306
0.293461
0.0373417
0.0418866
0.0465886
0.0510071
0.0541255
0.0515157
0.042106
0.056571
0.146295
0.324681
0.551021
0.783007
0.99346
1.16416
1.28028
1.32696
1.28625
1.13274
0.825387
0.304174
0.0374106
0.0422166
0.0471173
0.0516867
0.0541474
0.0493028
0.0411479
0.0686276
0.178968
0.372568
0.606159
0.841697
1.05464
1.22753
1.34526
1.39204
1.34844
1.18709
0.864103
0.316287
0.037429
0.0423907
0.0473696
0.0519708
0.0534313
0.0464673
0.0415455
0.0826256
0.211048
0.416634
0.656191
0.895501
1.11208
1.28899
1.41067
1.46011
1.41603
1.24838
0.909384
0.330883
0.0373987
0.0423999
0.0473555
0.0518347
0.0520506
0.043396
0.0431677
0.0974209
0.241062
0.456124
0.700933
0.944593
1.16633
1.34963
1.47838
1.53413
1.49315
1.32163
0.965983
0.349839
0.0373235
0.0422491
0.0470943
0.0512945
0.0501454
0.0404251
0.0456347
0.111878
0.267901
0.490529
0.740262
0.989102
1.21785
1.41047
1.55043
1.61774
1.58554
1.41463
1.04218
0.376775
0.0372092
0.0419558
0.0466129
0.0504069
0.0478917
0.0377591
0.0484652
0.125008
0.290785
0.519515
0.774072
1.02905
1.26686
1.47225
1.62866
1.7148
1.70036
1.53879
1.15244
0.419641
0.0370638
0.0415458
0.0459469
0.0492552
0.0454695
0.035461
0.0511918
0.136075
0.309254
0.54292
0.802296
1.06434
1.31322
1.53496
1.71363
1.82751
1.84326
1.70592
1.31677
0.496252
0.0368964
0.0410495
0.0451396
0.0479317
0.0430364
0.0334967
0.0534449
0.144645
0.323172
0.560822
0.825011
1.09487
1.35642
1.59736
1.80312
1.95243
2.01016
1.91343
1.53908
0.635044
0.171287
0.115162
0.1403
0.160701
0.180772
0.194828
0.202591
0.212407
0.225809
0.242384
0.262562
0.286644
0.312536
0.337114
0.361186
0.369691
0.337141
0.307741
0.282271
0.259498
0.238655
0.219556
0.202293
0.186941
0.173463
0.161771
0.151514
0.142432
0.13436
0.127192
0.120818
0.115153
0.110123
0.105657
0.101698
0.0981909
0.0950832
0.0923407
0.089915
0.0877768
0.0859112
0.0842845
0.0828715
0.0816576
0.0806104
0.0797098
0.0789364
0.0782723
0.0777012
0.0772095
0.0767815
0.0764138
0.0760864
0.0757873
0.0755128
0.0752442
0.0749774
0.0747091
0.0744385
0.0741605
0.207732
1.59927
2.24611
2.7683
3.25413
3.60654
3.85285
4.06431
4.25296
4.43638
4.65871
4.97209
5.41976
5.96753
6.414
6.3802
5.89174
5.30059
4.75191
4.25624
3.80862
3.41227
3.07138
2.7847
2.54385
2.33863
2.16579
2.01928
1.89418
1.78695
1.69486
1.61564
1.54742
1.48874
1.43848
1.39568
1.35946
1.32911
1.30401
1.28381
1.26826
1.25692
1.24924
1.24474
1.2429
1.24314
1.24501
1.24821
1.2523
1.25694
1.26186
1.26675
1.27135
1.27546
1.27873
1.28091
1.28198
1.28192
1.2812
1.28011
0.22058
2.53738
3.70993
4.6759
5.52188
6.18059
6.66516
7.03918
7.35914
7.67358
8.05278
8.55362
9.20673
9.98701
10.4728
10.1608
9.50182
8.69161
7.89408
7.14532
6.45228
5.82644
5.27804
4.8076
4.40652
4.06198
3.76793
3.51684
3.30184
3.11761
2.96005
2.82576
2.71182
2.61582
2.53578
2.46997
2.41681
2.3749
2.34305
2.32035
2.30609
2.2994
2.2992
2.30456
2.31448
2.32788
2.34385
2.36171
2.38069
2.40007
2.41929
2.43775
2.45495
2.47056
2.48407
2.49511
2.50371
2.50978
2.51395
2.51722
0.226224
3.07344
4.66897
5.95086
7.0221
7.89139
8.56099
9.07072
9.48659
9.88658
10.3575
10.9633
11.685
12.4371
12.8659
12.0936
11.3082
10.4644
9.62544
8.81976
8.06002
7.36256
6.74003
6.1937
5.71665
5.29987
4.93646
4.62196
4.35027
4.11631
3.91603
3.74587
3.60271
3.48383
3.38679
3.30938
3.2495
3.20522
3.17476
3.15664
3.14961
3.15233
3.16322
3.18086
3.20391
3.23091
3.26056
3.29195
3.32411
3.35607
3.38712
3.41654
3.44369
3.46827
3.48978
3.50782
3.52256
3.53393
3.54258
3.55028
0.229197
3.40343
5.32842
6.82927
8.04034
9.04191
9.84732
10.4756
10.9678
11.4128
11.9232
12.5887
13.3535
13.96
14.0827
13.0906
12.1243
11.2469
10.4282
9.65705
8.93129
8.25901
7.64897
7.10048
6.60866
6.17034
5.78116
5.4381
5.13885
4.87985
4.65787
4.47001
4.31346
4.18558
4.08377
4.00554
3.94836
3.90978
3.88746
3.87932
3.88356
3.89836
3.92167
3.95167
3.98679
4.02532
4.06574
4.10705
4.14825
4.18828
4.22642
4.26202
4.29441
4.32342
4.34868
4.36982
4.38725
4.40101
4.41181
4.42207
0.229097
3.61777
5.79054
7.41732
8.72579
9.81342
10.7162
11.446
12.0131
12.4797
12.9765
13.6157
14.3935
15.029
14.7563
13.5658
12.429
11.4659
10.6474
9.93174
9.28603
8.68951
8.1404
7.63413
7.16734
6.74399
6.36104
6.01962
5.71925
5.45824
5.23478
5.04695
4.89263
4.76949
4.67501
4.60653
4.56116
4.53573
4.52727
4.53324
4.55137
4.57948
4.61515
4.65634
4.70139
4.74852
4.79617
4.84342
4.88934
4.93293
4.9736
5.01085
5.04412
5.0734
5.09851
5.11914
5.13592
5.14909
5.15973
5.17054
0.225622
3.74008
6.1105
7.81846
9.18798
10.3292
11.301
12.1174
12.7649
13.2651
13.7458
14.3516
15.1079
15.7946
15.4568
13.7974
12.4665
11.3822
10.5248
9.85183
9.29821
8.79089
8.31901
7.87589
7.4565
7.07292
6.72185
6.4067
6.12864
5.88704
5.68124
5.51034
5.373
5.26732
5.19099
5.14134
5.11538
5.1093
5.11877
5.14096
5.17358
5.21448
5.26105
5.31126
5.36347
5.41596
5.46736
5.51691
5.5638
5.60723
5.64679
5.68219
5.71302
5.73954
5.7616
5.77904
5.79271
5.80281
5.81104
5.82074
0.223408
3.79566
6.31317
8.10266
9.5083
10.6824
11.7004
12.5874
13.325
13.897
14.4161
15.0743
15.9417
16.7261
16.2266
13.9321
12.3583
11.1321
10.2119
9.56771
9.10167
8.66945
8.26401
7.8851
7.53257
7.2093
6.91446
6.64786
6.4115
6.20656
6.03369
5.89295
5.78369
5.70443
5.65311
5.62721
5.62371
5.63839
5.66628
5.70427
5.75008
5.80153
5.85628
5.91249
5.96869
6.02333
6.07532
6.12406
6.16892
6.20932
6.24508
6.27605
6.30209
6.32357
6.34042
6.35259
6.36083
6.36552
6.36948
6.37645
0.222832
3.84769
6.47316
8.31733
9.75114
10.9479
11.9928
12.9267
13.7516
14.4384
15.067
15.8952
17.1199
18.0055
16.6399
13.9483
12.1477
10.7742
9.791
9.17735
8.78276
8.38116
8.04479
7.74767
7.47876
7.23136
7.00463
6.79918
6.61678
6.45961
6.32936
6.22688
6.15204
6.10374
6.08013
6.07879
6.09654
6.12882
6.17112
6.22094
6.2761
6.33434
6.39353
6.45209
6.50874
6.56223
6.61173
6.65678
6.697
6.73204
6.76189
6.78661
6.8063
6.82137
6.83195
6.83822
6.84103
6.84163
6.84313
6.84762
0.224606
3.92935
6.63666
8.51537
9.97257
11.188
12.2444
13.1939
14.0721
14.8855
15.6856
16.7311
18.0479
18.9778
16.5618
13.8275
11.8323
10.3241
9.30369
8.74032
8.35505
8.03538
7.78572
7.57411
7.38756
7.21734
7.06015
6.91746
6.79174
6.68542
6.60057
6.53835
6.49891
6.48136
6.48407
6.50474
6.54008
6.58586
6.63836
6.69562
6.75579
6.81675
6.87664
6.93409
6.98799
7.03743
7.0818
7.12082
7.15434
7.18229
7.20483
7.22219
7.23472
7.24288
7.24701
7.24757
7.2456
7.24279
7.24141
7.24308
0.229948
4.03272
6.82834
8.73916
10.2187
11.4521
12.5125
13.4495
14.3233
15.183
16.1404
17.3691
18.5606
19.1409
16.3784
13.5486
11.3724
9.77762
8.78189
8.30331
7.9698
7.75271
7.5929
7.46032
7.34373
7.23801
7.14017
7.05162
6.97549
6.91443
6.87028
6.84403
6.83567
6.84433
6.86855
6.90607
6.9539
7.00836
7.06646
7.12665
7.18748
7.24725
7.30437
7.35758
7.40598
7.44893
7.48605
7.51728
7.54267
7.56243
7.57687
7.58642
7.59159
7.59292
7.59093
7.58628
7.58009
7.57386
7.56901
7.56743
0.247604
4.15401
7.067
9.01894
10.5217
11.7747
12.8425
13.7565
14.5705
15.3283
16.2816
17.5343
18.7495
18.7481
15.6852
12.9148
10.7058
9.14109
8.27636
7.92475
7.73916
7.62701
7.54608
7.47461
7.40705
7.3438
7.28526
7.23352
7.19199
7.1633
7.14886
7.14899
7.16325
7.19046
7.22899
7.27684
7.33138
7.38953
7.44882
7.50794
7.5658
7.6211
7.67246
7.71885
7.75953
7.7941
7.82243
7.84467
7.86112
7.87216
7.8783
7.88012
7.87822
7.8732
7.86568
7.85638
7.84628
7.83641
7.82763
7.82238
0.289351
4.33987
7.38415
9.37766
10.9009
12.1743
13.263
14.1562
14.7559
15.3586
16.1756
17.3501
18.5372
17.7473
14.568
11.9237
9.849
8.47224
7.87738
7.75388
7.72739
7.71182
7.6879
7.65032
7.60381
7.55557
7.51068
7.47303
7.44624
7.43268
7.43309
7.44697
7.47309
7.50974
7.55486
7.6065
7.6623
7.71958
7.77625
7.83109
7.88317
7.93145
7.97484
8.01248
8.04387
8.06882
8.08746
8.10015
8.1074
8.10978
8.10794
8.10254
8.09422
8.08359
8.07125
8.05782
8.04396
8.03019
8.0171
8.0077
0.330825
4.7892
7.83767
9.83497
11.3648
12.6539
13.7603
14.443
14.8276
15.2733
15.9388
16.9467
18.0494
16.2263
13.162
10.7431
8.92916
7.89455
7.69553
7.83784
7.95528
8.01069
8.01316
7.97813
7.92274
7.86159
7.80448
7.75756
7.72485
7.70833
7.70798
7.72239
7.74941
7.7866
7.83135
7.88111
7.93371
7.98664
8.03789
8.08618
8.1306
8.17027
8.2043
8.23209
8.25336
8.26818
8.27692
8.28014
8.27854
8.27284
8.26379
8.25205
8.23825
8.22291
8.20648
8.18936
8.17179
8.15384
8.136
8.12193
0.366051
5.52429
8.48317
10.4087
11.9166
13.1595
14.0414
14.5354
14.7899
15.0813
15.5685
16.3734
17.0955
14.4749
11.7036
9.58335
8.12788
7.56583
7.81542
8.18276
8.3978
8.48212
8.47512
8.41209
8.32132
8.22372
8.13293
8.0571
8.00073
7.96546
7.95062
7.95394
7.97235
8.00255
8.04123
8.08513
8.13146
8.1778
8.222
8.26257
8.29848
8.32889
8.35314
8.37085
8.382
8.38695
8.38627
8.38075
8.37124
8.35857
8.34348
8.32662
8.30847
8.28939
8.26957
8.24908
8.22773
8.20522
8.1821
8.1628
0.395254
6.09601
9.14101
10.9598
12.324
13.3829
14.1037
14.518
14.7382
14.9464
15.2708
15.7476
15.5348
12.8277
10.4351
8.6417
7.62118
7.61484
8.25255
8.74337
8.99031
9.05716
9.00732
8.89077
8.74408
8.59267
8.45279
8.33391
8.24086
8.17502
8.13524
8.11857
8.12114
8.13878
8.16733
8.20279
8.24148
8.28032
8.31701
8.34973
8.37725
8.39873
8.41367
8.42193
8.42378
8.41981
8.4109
8.39801
8.38209
8.36403
8.34449
8.32398
8.30276
8.28091
8.25832
8.23463
8.20928
8.18171
8.15265
8.12748
0.407942
6.41454
9.56089
11.2798
12.5022
13.4274
14.0758
14.49
14.7473
14.9478
15.1564
15.2223
13.9393
11.4953
9.46885
8.04142
7.52379
8.06659
8.92952
9.4387
9.65366
9.6641
9.54654
9.35862
9.14178
8.9245
8.72489
8.55333
8.4147
8.31015
8.23812
8.19522
8.17695
8.17834
8.19431
8.21992
8.25058
8.28236
8.3122
8.33792
8.35805
8.37174
8.37863
8.37884
8.37294
8.36182
8.34656
8.32828
8.30798
8.28649
8.26435
8.24182
8.21886
8.19518
8.17027
8.14341
8.11366
8.08037
8.04458
8.01286
0.410158
6.53681
9.784
11.445
12.5502
13.3853
14.0168
14.4778
14.8054
15.0253
15.1012
14.7235
12.831
10.6144
8.85913
7.82073
7.84441
8.81889
9.7156
10.1719
10.3127
10.2438
10.0451
9.7763
9.48098
9.18977
8.92265
8.69105
8.50014
8.35081
8.24117
8.16749
8.12486
8.1076
8.1097
8.12511
8.14812
8.17378
8.19818
8.21851
8.23302
8.24078
8.24161
8.23592
8.22457
8.2087
8.18959
8.16842
8.14617
8.12353
8.10079
8.07793
8.05453
8.02982
8.0029
7.97268
7.93798
7.89813
7.85467
7.81567
0.405308
6.49354
9.80675
11.4522
12.4909
13.2819
13.9241
14.4398
14.8283
15.0514
14.9724
14.1407
12.0373
10.0143
8.52922
7.92831
8.4801
9.69198
10.506
10.8633
10.9119
10.756
10.473
10.1211
9.74402
9.37404
9.03332
8.73515
8.48563
8.28578
8.13354
8.02497
7.95491
7.91711
7.90458
7.90999
7.92629
7.94726
7.96799
7.98496
7.99605
8.00027
7.99761
7.98872
7.97476
7.95709
7.93708
7.91592
7.89445
7.8731
7.85187
7.83033
7.80763
7.78256
7.75373
7.71978
7.67937
7.63194
7.57969
7.53259
0.393874
6.30028
9.64321
11.3105
12.3306
13.1075
13.7658
14.3134
14.7182
14.8997
14.6237
13.4517
11.3019
9.50233
8.36444
8.27164
9.27553
10.5268
11.2137
11.4622
11.4178
11.1783
10.815
10.3829
9.92477
9.47397
9.05501
8.68397
8.369
8.11208
7.91142
7.76316
7.66213
7.60168
7.57376
7.56952
7.58021
7.59813
7.61715
7.63298
7.64309
7.64645
7.64319
7.6342
7.62088
7.60471
7.5871
7.56908
7.55126
7.53373
7.51607
7.4974
7.47641
7.45141
7.42061
7.38237
7.33526
7.27895
7.2165
7.16026
0.377697
5.99613
9.32568
11.0329
12.0667
12.846
13.5115
14.0552
14.4217
14.5053
14.08
12.5327
10.5407
9.02195
8.32615
8.77465
10.0884
11.2474
11.7976
11.9447
11.8167
11.5024
11.0665
10.5601
10.0242
9.49272
8.9924
8.54263
8.15477
7.83298
7.57657
7.38242
7.24578
7.15983
7.11538
7.10168
7.10787
7.12433
7.14357
7.16045
7.17207
7.17734
7.17653
7.17077
7.16156
7.15045
7.13868
7.12704
7.11578
7.10453
7.09239
7.07799
7.05951
7.03483
7.00175
6.95842
6.90334
6.83646
6.76197
6.69516
0.358569
5.62186
8.89479
10.643
11.7071
12.4932
13.1468
13.6486
13.9539
13.9297
13.3306
11.547
9.77313
8.61179
8.43468
9.37724
10.8235
11.8232
12.2517
12.3079
12.1081
11.7293
11.2297
10.6559
10.0471
9.43671
8.85341
8.31987
7.85146
7.45587
7.13482
6.88686
6.70853
6.5933
6.5307
6.50749
6.51006
6.52648
6.54766
6.56759
6.58305
6.59295
6.5977
6.59855
6.59706
6.59461
6.59218
6.59016
6.58826
6.58561
6.58077
6.57181
6.55644
6.53207
6.49614
6.44659
6.38186
6.30217
6.21308
6.13362
0.337361
5.21196
8.39162
10.1732
11.2736
12.0652
12.6828
13.1434
13.3961
13.2384
12.369
10.5454
9.06122
8.33622
8.70512
10.0117
11.4422
12.2607
12.5801
12.5601
12.2995
11.8657
11.3105
10.6763
9.99965
9.31335
8.64686
8.02565
7.46935
6.99025
6.59409
6.28262
6.05502
5.9058
5.82303
5.79014
5.78984
5.80734
5.83184
5.85651
5.8779
5.895
5.90834
5.91922
5.92904
5.93889
5.94925
5.95994
5.97006
5.97812
5.98209
5.97948
5.9675
5.9431
5.90339
5.84604
5.76937
5.67386
5.56659
5.47132
0.314486
4.78885
7.84938
9.65482
10.7934
11.5917
12.1783
12.5887
12.7322
12.4074
11.2441
9.58682
8.45891
8.23684
9.10901
10.6106
11.9125
12.5781
12.8006
12.7147
12.402
11.9208
11.3166
10.6278
9.8886
9.13005
8.38149
7.67012
7.01936
6.44677
5.96366
5.57713
5.29116
5.10256
4.9976
4.95496
4.95244
4.97184
5.00061
5.03132
5.06044
5.08715
5.11209
5.13641
5.16116
5.18689
5.21339
5.23972
5.26426
5.28482
5.29871
5.30293
5.29416
5.26891
5.22394
5.15669
5.06513
4.9498
4.81932
4.70341
0.290949
4.35345
7.28483
9.10807
10.2839
11.0908
11.6397
11.9613
11.9243
11.4331
10.0608
8.70012
7.99648
8.31167
9.57959
11.1264
12.2539
12.7875
12.9295
12.7862
12.4277
11.9041
11.2559
10.5176
9.72039
8.89354
8.06524
7.26289
6.5124
5.83642
5.25328
4.77818
4.42314
4.18951
4.06092
4.00896
4.00488
4.02667
4.06021
4.09784
4.13633
4.17507
4.21467
4.25596
4.29934
4.34451
4.39033
4.43493
4.47584
4.51012
4.53447
4.54531
4.5389
4.51134
4.45907
4.37916
4.26907
4.12892
3.9683
3.82402
0.267685
3.879
6.6889
8.53726
9.74837
10.55
11.0376
11.2159
10.9913
10.2861
8.92057
7.89966
7.68822
8.52586
10.0501
11.5416
12.4923
12.9155
12.9836
12.7882
12.3875
11.825
11.1361
10.3519
9.50092
8.60993
7.70514
6.81276
5.9592
5.17085
4.47358
3.89393
3.45743
3.17356
3.02156
2.96176
2.95683
2.98099
3.01934
3.06463
3.11419
3.16765
3.22537
3.28742
3.35321
3.42122
3.4891
3.55394
3.61235
3.66064
3.69495
3.7113
3.70556
3.67352
3.61127
3.51551
3.38285
3.2121
3.01207
2.82646
0.242749
3.37913
6.06365
7.93913
9.18237
9.95254
10.3399
10.3477
9.9405
9.02452
7.83722
7.21648
7.5487
8.83807
10.4823
11.8709
12.6506
12.9752
12.9771
12.7324
12.2912
11.6912
10.9637
10.1365
9.2353
8.28433
7.30724
6.32769
5.37042
4.46266
3.63655
2.93336
2.40126
2.06455
1.89339
1.82919
1.82405
1.84988
1.89261
1.94635
2.00922
2.08076
2.16052
2.24729
2.33887
2.43221
2.52365
2.60915
2.68453
2.74555
2.78796
2.80751
2.79988
2.76064
2.68543
2.57065
2.41171
2.20489
1.95442
1.70394
0.216801
2.90292
5.4359
7.33428
8.59307
9.30389
9.55356
9.38059
8.83371
7.7571
6.8631
6.71117
7.59675
9.21782
10.8744
12.1088
12.7485
12.9829
12.9211
12.628
12.1466
11.5096
10.7445
9.8763
8.92794
7.92109
6.87653
5.81458
4.75616
3.72572
2.75736
1.90886
1.26776
0.892112
0.71989
0.659912
0.655142
0.680089
0.724927
0.786365
0.863146
0.954232
1.05776
1.17035
1.28751
1.40458
1.51688
1.61969
1.70827
1.77814
1.82486
1.84406
1.83141
1.78236
1.69188
1.55618
1.36925
1.12455
0.814125
0.454832
0.193111
2.48687
4.87656
6.76759
8.00513
8.62497
8.71616
8.38159
7.66192
6.62058
6.07139
6.45179
7.83816
9.64308
11.2293
12.2874
12.799
12.9477
12.8236
12.4818
11.9595
11.2852
10.4832
9.57547
8.58251
7.52375
6.41704
5.279
4.12573
2.9754
1.8566
0.848094
0.185924
0.0687507
0.0607541
0.0601649
0.0588069
0.0566826
0.0548773
0.0557629
0.0638997
0.0864576
0.131936
0.205461
0.303265
0.413944
0.5254
0.628537
0.716751
0.784757
0.827718
0.840951
0.819678
0.758887
0.652426
0.499449
0.312098
0.136276
0.0367647
0.0159274
0.186967
2.3186
4.51878
6.31026
7.45401
7.94591
7.87602
7.40149
6.48142
5.65641
5.53356
6.48233
8.24944
10.0922
11.5602
12.4185
12.8119
12.8765
12.69
12.2987
11.7346
11.0225
10.1835
9.23734
8.20218
7.09521
5.93168
4.725
3.48629
2.22633
0.972526
0.0742808
0.0752026
0.0767551
0.0773072
0.0777977
0.0781814
0.0783869
0.0783191
0.0778614
0.0768513
0.075032
0.0719782
0.0669307
0.0589033
0.0485776
0.0404013
0.038275
0.0414844
0.0465925
0.0497442
0.0482841
0.042035
0.033526
0.0257925
0.0200696
0.0195921
0.0284821
0.0455666
0.050098
0.208666
2.53683
4.44006
6.00393
6.96126
7.2838
7.0549
6.40794
5.43577
4.90571
5.31069
6.8029
8.77958
10.5425
11.8283
12.5122
12.7901
12.7726
12.5234
12.0817
11.4748
10.7243
9.84855
8.86482
7.78947
6.63764
5.42252
4.15475
2.84257
1.4988
0.202413
0.0660908
0.0680956
0.0688099
0.0696092
0.0704218
0.0711982
0.0719082
0.0725199
0.0730066
0.0733444
0.0734938
0.0734053
0.0730107
0.0722359
0.0710488
0.0694562
0.0674894
0.0652364
0.0628464
0.0604916
0.0583641
0.0566907
0.055656
0.0553693
0.0559055
0.0566563
0.0561813
0.0539602
0.0489384
0.226257
2.92057
4.58147
5.80771
6.50614
6.628
6.2416
5.36155
4.53982
4.42827
5.4503
7.36484
9.36565
10.9731
12.0369
12.5636
12.7337
12.6367
12.3253
11.8328
11.1824
10.3929
9.48034
8.45996
7.34624
6.15259
4.89052
3.56973
2.20336
0.807863
0.0383184
0.0602531
0.0609435
0.0617659
0.0626575
0.0635562
0.0644209
0.0652308
0.0659665
0.0666168
0.0671818
0.0676575
0.0680336
0.0682814
0.0683574
0.0682456
0.0679571
0.0674887
0.0668461
0.0660497
0.0651075
0.0640279
0.062821
0.0614757
0.0599545
0.0582043
0.0561919
0.0539606
0.0515409
0.0472379
0.220763
3.05301
4.57333
5.51937
5.97899
5.90053
5.3333
4.34422
3.8328
4.31871
5.95784
8.07763
9.95078
11.3697
12.193
12.5746
12.642
12.4681
12.0957
11.5525
10.8586
10.0299
9.08082
8.02459
6.87418
5.64138
4.33712
2.9762
1.57277
0.210513
0.0524485
0.0544482
0.0551818
0.0560334
0.0569397
0.0578468
0.0587172
0.059532
0.0602738
0.0609306
0.0615036
0.0619974
0.062414
0.0627349
0.0629197
0.0629495
0.062834
0.062569
0.0621502
0.061579
0.0608466
0.059943
0.058872
0.0576357
0.0562396
0.054696
0.053033
0.0513201
0.0495397
0.0459812
0.207036
2.90199
4.28995
4.98774
5.22366
5.00428
4.17752
3.41591
3.44487
4.6773
6.75529
8.83573
10.4965
11.6729
12.2956
12.5423
12.5134
12.2657
11.834
11.2409
10.5037
9.63621
8.65097
7.55989
6.37437
5.10491
3.7674
2.37626
0.958704
0.0288692
0.0493322
0.0499452
0.0506773
0.0515095
0.0523881
0.0532662
0.0541098
0.0549006
0.0556216
0.0562585
0.0568097
0.0572816
0.0576831
0.0580041
0.0582059
0.0582659
0.0581913
0.0579856
0.0576475
0.057186
0.0565942
0.0558641
0.0550007
0.0540142
0.0529159
0.0517236
0.0504676
0.0492103
0.0479186
0.0449576
0.190023
2.57817
3.76415
4.19672
4.18886
3.8325
3.01261
2.7568
3.592
5.49753
7.68782
9.55365
10.9796
11.8961
12.3413
12.4655
12.3462
12.0282
11.539
10.8974
10.1177
9.21203
8.19146
7.06656
5.84741
4.54745
3.18333
1.77293
0.372861
0.0400398
0.0459706
0.0465275
0.0472176
0.0479971
0.0488203
0.049645
0.0504396
0.0511877
0.0518728
0.0524803
0.0530047
0.0534505
0.0538306
0.0541423
0.0543527
0.0544346
0.0543916
0.054232
0.0539613
0.0535904
0.0531196
0.0525416
0.0518621
0.051091
0.0502419
0.0493326
0.0483906
0.0474693
0.0465312
0.044058
0.178557
2.19169
3.03972
3.22072
3.08806
2.47563
2.14279
2.70069
4.38707
6.58946
8.59881
10.1849
11.3763
12.0387
12.3286
12.3421
12.1387
11.7538
11.2095
10.521
9.70014
8.75739
7.70253
6.54513
5.29543
3.97104
2.58712
1.17288
0.0548271
0.0429528
0.0434763
0.0439782
0.0446004
0.0453058
0.0460546
0.0468089
0.0475394
0.0482304
0.0488679
0.0494377
0.0499308
0.0503475
0.0507022
0.0509995
0.0512126
0.0513132
0.0512997
0.0511804
0.050966
0.0506712
0.0502995
0.0498462
0.0493143
0.0487144
0.04806
0.0473671
0.0466593
0.0459809
0.0452978
0.0432318
0.181745
1.76121
2.14873
2.10524
1.86955
1.55495
1.97257
3.46957
5.61948
7.70198
9.39733
10.7176
11.6405
12.109
12.2592
12.1705
11.8884
11.4404
10.8437
10.1104
9.25024
8.27197
7.18425
5.99571
4.7215
3.37733
1.9822
0.590276
0.0251754
0.041389
0.0416844
0.0421133
0.0426525
0.0432704
0.0439331
0.0446067
0.0452638
0.045889
0.0464702
0.046995
0.0474519
0.0478358
0.04816
0.0484357
0.0486456
0.0487604
0.0487725
0.048688
0.0485193
0.0482843
0.0479906
0.0476352
0.0472201
0.046754
0.0462487
0.0457191
0.0451839
0.0446803
0.0441806
0.0424581
0.20037
1.26805
1.3313
1.31219
1.08103
1.45196
2.80969
4.86018
6.9312
8.67954
10.064
11.1593
11.8092
12.1048
12.1309
11.9484
11.593
11.0855
10.4393
9.66392
8.76682
7.75511
6.63627
5.42051
4.12595
2.76795
1.37427
0.134227
0.0392488
0.0402183
0.0404353
0.0407807
0.0412295
0.0417542
0.0423254
0.0429131
0.0434922
0.044047
0.0445659
0.04504
0.0454558
0.0458037
0.0460941
0.046343
0.0465414
0.0466646
0.0466969
0.0466406
0.0465081
0.0463181
0.046083
0.0458025
0.0454783
0.0451154
0.0447239
0.0443163
0.0439078
0.0435298
0.0431621
0.0417306
0.268264
0.983461
0.775814
0.716311
1.18738
2.50987
4.41909
6.37427
8.07746
9.47383
10.6129
11.4544
11.8822
12.0224
11.9388
11.6721
11.2493
10.6866
9.99441
9.17989
8.24879
7.20636
6.05839
4.82065
3.50978
2.14573
0.779171
0.0197451
0.0394517
0.0394659
0.0396013
0.0398597
0.0402168
0.0406486
0.0411288
0.0416308
0.0421314
0.0426139
0.0430673
0.0434859
0.0438562
0.0441652
0.0444206
0.044638
0.0448172
0.0449387
0.0449837
0.0449481
0.0448424
0.0446861
0.0444939
0.04427
0.0440148
0.0437316
0.0434266
0.0431103
0.0427945
0.042507
0.0422344
0.0410502
0.195972
0.350555
0.529166
1.24812
2.61001
4.33682
6.0878
7.65312
8.97562
10.0998
11.0489
11.614
11.8586
11.8647
11.6818
11.3388
10.8545
10.2411
9.50649
8.65621
7.69471
6.62523
5.45359
4.19669
2.87355
1.51471
0.246386
0.0360694
0.0391156
0.0390306
0.0390851
0.0392595
0.0395287
0.0398705
0.0402621
0.0406795
0.0411007
0.0415085
0.0418931
0.0422514
0.0425719
0.0428399
0.0430593
0.0432447
0.0434004
0.043514
0.043565
0.0435437
0.0434584
0.0433269
0.0431659
0.0429828
0.042779
0.0425552
0.0423158
0.0420677
0.0418203
0.0415977
0.0413942
0.0404205
0.0367166
0.0404984
0.0442385
0.0465217
0.0407082
0.0317931
0.0550171
0.150653
0.332831
0.573734
0.842747
1.12087
1.39589
1.65715
1.89143
2.07793
2.17986
2.12788
1.78326
0.963129
0.0365284
0.0399164
0.0432803
0.0450735
0.0385161
0.0302628
0.0559291
0.154551
0.339259
0.583126
0.857202
1.14392
1.43238
1.71304
1.97323
2.19156
2.32925
2.3156
2.02765
1.374
0.036338
0.039314
0.042283
0.0435971
0.0364311
0.0288685
0.0564876
0.157491
0.344711
0.592234
0.872287
1.16813
1.46954
1.76742
2.04896
2.29216
2.45881
2.48631
2.28512
1.79992
0.0361528
0.0387131
0.0412797
0.0420925
0.0343686
0.027703
0.0577132
0.162569
0.354763
0.608494
0.896362
1.20194
1.51532
1.82755
2.1259
2.38926
2.58389
2.66109
2.56343
2.26427
0.0359788
0.0381346
0.0402894
0.040482
0.0320394
0.0272641
0.0630551
0.178808
0.383243
0.647784
0.945355
1.26049
1.58402
1.90755
2.21926
2.50065
2.72461
2.85648
2.86203
2.73056
0.0358194
0.0375968
0.0392776
0.0383187
0.0285203
0.0304361
0.0853984
0.229658
0.456195
0.733753
1.03965
1.36162
1.6921
2.02377
2.34646
2.64514
2.89955
3.08638
3.18593
3.19465
0.0356777
0.0370869
0.0378123
0.032212
0.024004
0.0540065
0.159145
0.346299
0.592956
0.877491
1.18622
1.51081
1.84515
2.18284
2.51542
2.8313
3.11595
3.35413
3.53443
3.65594
0.0355333
0.0362504
0.0306233
0.0193293
0.0484627
0.14847
0.316269
0.531822
0.783663
1.06534
1.37104
1.69504
2.03166
2.3748
2.71712
3.04968
3.36217
3.64443
3.88933
4.0963
0.0348224
0.0295231
0.0148397
0.0516389
0.168934
0.343799
0.54696
0.770747
1.01729
1.28926
1.5864
1.90538
2.24101
2.58708
2.93673
3.28259
3.61691
3.9324
4.22378
4.48988
0.0209832
0.0108678
0.0580746
0.205247
0.401512
0.608964
0.821702
1.04461
1.28455
1.54693
1.83396
2.14438
2.47411
2.81746
3.16809
3.51967
3.86597
4.20111
4.5205
4.82208
0.018284
0.0736926
0.268948
0.491002
0.703791
0.910122
1.11855
1.33714
1.5723
1.82847
2.10769
2.40935
2.7303
3.06566
3.40997
3.75802
4.10483
4.44544
4.7757
5.09282
0.280865
0.390323
0.640858
0.846848
1.03663
1.22619
1.42472
1.63812
1.86987
2.12195
2.39509
2.68846
2.99934
3.3234
3.65591
3.99258
4.32958
4.66296
4.98965
5.3067
1.1896
0.922555
1.07563
1.22036
1.37615
1.54726
1.73584
1.94351
2.17063
2.41708
2.68231
2.96522
3.2636
3.57358
3.89077
4.21086
4.52996
4.84568
5.15768
5.46723
1.77381
1.47037
1.4934
1.58973
1.72101
1.87662
2.05356
2.25062
2.46712
2.7022
2.95464
3.22264
3.50467
3.79799
4.09874
4.40244
4.7017
4.99618
5.2843
5.58066
1.95576
1.84758
1.88359
1.95567
2.06096
2.19357
2.34943
2.52598
2.72154
2.93467
3.16382
3.40729
3.663
3.92814
4.19958
4.47282
4.74394
5.01014
5.26892
5.52759
2.092
2.07772
2.13156
2.20328
2.29773
2.41497
2.55308
2.70996
2.88378
3.07285
3.27547
3.48982
3.71362
3.94405
4.17797
4.41187
4.64309
4.86968
5.09102
5.30766
2.06823
2.14148
2.20853
2.29154
2.38953
2.50311
2.63191
2.77485
2.93062
3.09779
3.27484
3.46006
3.65138
3.84636
4.04242
4.23707
4.42844
4.61522
4.7964
4.97006
1.9027
2.04325
2.12379
2.22416
2.33519
2.45451
2.5818
2.71688
2.85925
3.00812
3.16247
3.32102
3.48222
3.64428
3.80536
3.96382
4.11834
4.26789
4.41112
4.54583
1.63642
1.82155
1.91173
2.02838
2.15464
2.28339
2.41309
2.54388
2.67605
2.80958
2.94409
3.07893
3.21318
3.34574
3.47548
3.60139
3.72263
3.83832
3.94724
4.04751
1.30439
1.51536
1.61055
1.73812
1.87551
2.01138
2.14257
2.26918
2.39199
2.5116
2.62825
2.74186
2.85209
2.95843
3.06032
3.15723
3.24867
3.33403
3.41239
3.48244
0.935513
1.15623
1.2522
1.38352
1.5239
1.65996
1.78773
1.90714
2.01915
2.12468
2.22433
2.31839
2.40692
2.48983
2.56695
2.63811
2.70309
2.76158
2.81304
2.85668
0.559032
0.771312
0.86317
0.988639
1.12068
1.247
1.3639
1.47113
1.56938
1.65947
1.74201
1.81741
1.88589
1.9476
2.0026
2.05093
2.09263
2.12763
2.15575
2.17662
0.222436
0.393976
0.472087
0.575991
0.684699
0.789327
0.88653
0.975356
1.05579
1.12809
1.19256
1.24942
1.29887
1.34107
1.3762
1.40443
1.42595
1.44093
1.44944
1.45148
0.0224291
0.09703
0.138026
0.194075
0.257845
0.32381
0.38822
0.448829
0.504354
0.554067
0.597545
0.634549
0.664972
0.688821
0.706213
0.717365
0.722568
0.722153
0.716439
0.705693
0.0905735
0.0981064
0.111014
0.11556
0.116012
0.114561
0.112516
0.11124
0.110436
0.110386
0.111317
0.113433
0.117002
0.122526
0.131378
0.563613
0.436796
0.576907
0.714519
0.833942
0.937593
1.03025
1.11926
1.21387
1.32349
1.45683
1.62125
1.82236
2.064
2.34901
1.23234
0.876607
0.804049
0.875398
1.01066
1.18148
1.37204
1.58193
1.8185
2.09141
2.40845
2.77311
3.18392
3.63587
4.12439
1.87174
1.587
1.46699
1.4799
1.57871
1.74776
1.97705
2.26145
2.59977
2.99062
3.42941
3.90779
4.41541
4.94252
5.48305
2.51117
2.3286
2.25343
2.28321
2.39989
2.59118
2.85534
3.187
3.57779
4.01647
4.4899
4.98491
5.49056
5.99953
6.50895
3.13841
3.0841
3.08993
3.17429
3.33523
3.56153
3.85055
4.1963
4.58812
5.01274
5.45688
5.90962
6.36381
6.81649
7.26842
3.7357
3.81116
3.91435
4.06726
4.27354
4.52362
4.8166
5.1469
5.50558
5.88258
6.26894
6.65846
7.04864
7.44048
7.83736
4.2784
4.45922
4.64866
4.86303
5.1006
5.36076
5.64328
5.94473
6.25974
6.58309
6.91083
7.24141
7.57649
7.92023
8.27848
4.74139
4.99505
5.24562
5.49968
5.75589
6.01721
6.28467
6.55737
6.8337
7.1133
7.39623
7.68422
7.98375
8.30341
8.64722
5.11474
5.41127
5.69612
5.96991
6.23461
6.49293
6.74708
6.99818
7.2474
7.49988
7.76031
8.02968
8.31417
8.58182
8.82948
5.40392
5.71838
6.01563
6.29698
6.56326
6.81777
7.06437
7.30513
7.5436
7.79368
8.04484
8.2613
8.45654
8.61613
8.74057
5.61881
5.93412
6.23335
6.51347
6.77968
7.03599
7.29685
7.53478
7.74516
7.94323
8.11139
8.23467
8.32638
8.39263
8.43196
5.77447
6.08333
6.38951
6.67176
6.93425
7.16469
7.38864
7.56483
7.71253
7.82269
7.90926
7.96211
7.98681
7.9889
7.96782
5.87224
6.16051
6.42643
6.67045
6.88471
7.07
7.22225
7.3382