/*--------------------------------*- C++ -*----------------------------------*\
| =========                 |                                                 |
| \\      /  F ield         | OpenFOAM: The Open Source CFD Toolbox           |
|  \\    /   O peration     | Version:  v1912                                 |
|   \\  /    A nd           | Website:  www.openfoam.com                      |
|    \\/     M anipulation  |                                                 |
\*---------------------------------------------------------------------------*/
FoamFile
{
    version     2.0;
    format      ascii;
    class       volScalarField;
    location    "14";
    object      p;
}
// * * * * * * * * * * * * * * * * * * * * * * * * * * * * * * * * * * * * * //

dimensions      [1 -1 -2 0 0 0 0];


internalField   nonuniform List<scalar> 
20320
(
415120
425374
425400
425450
425520
425606
425705
425817
425939
426068
426203
426340
426477
426613
426751
426900
427058
427200
427275
427268
395204
405114
405148
405201
405271
405358
405460
405573
405697
405829
405967
406109
406251
406386
406513
406642
406774
406892
406975
407033
375888
385485
385520
385575
385647
385735
385838
385954
386080
386214
386356
386499
386634
386755
386867
386977
387085
387184
387272
387367
357174
366471
366506
366561
366633
366722
366826
366942
367070
367206
367348
367484
367605
367710
367808
367902
367995
368084
368174
368284
339047
348052
348087
348141
348214
348302
348406
348522
348649
348785
348922
349046
349152
349244
349329
349412
349495
349578
349670
349789
321493
330213
330248
330301
330373
330460
330562
330676
330802
330934
331062
331172
331264
331345
331420
331495
331570
331651
331746
331873
304498
312940
312973
313025
313095
313179
313278
313390
313511
313637
313753
313849
313929
313999
314065
314132
314202
314281
314380
314514
288050
296220
296252
296302
296368
296448
296543
296649
296764
296880
296982
297064
297132
297191
297248
297306
297372
297450
297552
297695
272138
280040
280070
280116
280178
280253
280341
280440
280545
280648
280735
280802
280856
280902
280948
280997
281056
281132
281238
281390
256748
264390
264417
264459
264514
264582
264661
264749
264842
264929
264999
265048
265085
265115
265145
265182
265232
265304
265412
265574
241872
249256
249280
249316
249364
249422
249490
249565
249642
249710
249757
249785
249799
249808
249817
249836
249872
249936
250045
250218
227499
234631
234651
234680
234719
234765
234819
234877
234934
234978
235000
235000
234984
234962
234941
234933
234947
234998
235106
235290
213618
220504
220518
220540
220568
220600
220636
220674
220707
220723
220713
220676
220621
220556
220492
220442
220422
220450
220551
220748
200221
206863
206872
206885
206900
206916
206932
206946
206951
206934
206884
206801
206692
206568
206442
206331
206256
206244
206328
206537
187298
193702
193705
193708
193709
193707
193700
193687
193660
193604
193506
193366
193187
192983
192768
192564
192403
192321
192368
192586
174838
181009
181006
180998
180985
180964
180933
180890
180828
180728
180576
180365
180099
179788
179448
179106
178803
178598
178568
178775
162831
168775
168765
168747
168719
168678
168621
168549
168450
168304
168090
167800
167429
166982
166472
165927
165398
164967
164770
164910
151267
156988
156972
156944
156901
156840
156759
156657
156522
156329
156054
155678
155189
154580
153853
153022
152134
151294
150713
150594
140134
145638
145616
145579
145522
145443
145340
145210
145042
144806
144473
144014
143405
142620
141636
140434
139018
137452
135981
134930
129418
134713
134686
134640
134572
134477
134353
134200
134003
133732
133351
132823
132107
131156
129911
128291
126191
123480
120050
115893
71864.9
63377.2
57004.6
55034.4
61089.1
73068.2
78953
78924.5
76807.9
73689
69772.3
63908
57728.3
61863.7
143258
314437
365250
330623
268577
202753
144365
99059.3
67777.9
48145.1
36644.2
30376.2
27246.8
25771
25177.9
25031.4
25096.5
25256.5
25448.6
25642.6
25827
25998
26158.6
26312.5
26457.4
26592.4
26718.3
26833.7
26933.6
27015.5
27080.4
27128.1
27155.7
27166.4
27164.9
27150.1
27121.8
27082.2
27028.2
26963.1
26891.3
26805.9
26709
26599
26477.2
26384
68214.2
62710.1
55547.7
50473.6
50034.3
60550.8
69007.3
72811.4
75340.8
77518.2
80105.7
80693.1
77618.1
58901
53873.8
186460
271869
271614
231074
178351
128190
88064.5
59924.3
42066.2
31560.4
25660.2
22622.7
21133.4
20478.3
20255.2
20243.5
20334.5
20472.2
20626.3
20782.1
20934.8
21085.3
21235.7
21383.9
21524.5
21654.2
21772.8
21875.6
21958.1
22023
22071.4
22099.7
22109.4
22106
22089.2
22056.8
22012
21952.3
21877.9
21797.9
21707.1
21605.4
21497.8
21373.2
21263.5
63143.9
59019.2
53158.6
45038.3
47163.6
58156.6
64858.3
70011.4
72673.4
76124.8
81772.6
85992.2
63339.9
38232.8
50491.9
149455
210582
222566
196704
154374
110923
75242.6
50183.4
34415
25116.7
20002.6
17373.8
16064.9
15468.6
15246.8
15212.5
15272.9
15380.1
15508.4
15643.6
15781.2
15922.1
16067.9
16216.3
16358.8
16490.3
16612.9
16719.5
16802.6
16868.7
16919.9
16948.8
16957.5
16953.5
16935.3
16899.5
16851.7
16788
16706
16621.4
16525.4
16419.1
16312.8
16180.4
16056.4
57303.1
55109.8
47312.7
44865.3
48617.5
54427.7
55777.4
63784.4
71280.2
74146.9
78875.2
67024.6
36598.8
37015.3
41033.6
149806
182904
188850
168946
132625
93223.7
60492.2
38056.5
24656.9
17055.5
13072.1
11219.2
10341.5
9974.13
9867.69
9886.58
9970.35
10083.8
10211.8
10343.3
10476.4
10614.7
10760.8
10913.6
11059.4
11193
11324.9
11440.9
11524.8
11595.2
11654.2
11683.9
11691.5
11689.7
11672.5
11634.3
11587.7
11521.6
11432.5
11350.3
11249.1
11140.8
11038.4
10879.7
10746.9
50652.5
51461
45338.2
44744.1
49441.3
52140.8
52189.4
55348.1
58291
67337.2
68432.8
36287.1
36664.9
36785.1
38150.5
137955
165218
162851
144570
111520
74306.1
43390.8
23140.8
12440.7
7009.58
4480.35
3939.16
3918.11
3956.01
4086.53
4246.13
4420.29
4584.37
4744.55
4893.26
5030.13
5168.91
5321.47
5489.29
5640.72
5773.13
5922.46
6056.86
6136.48
6214.22
6290.17
6317.69
6320.67
6326.45
6311.84
6267.93
6230.21
6160.65
6058.09
5993.18
5878.43
5774.67
5691.73
5456.37
5338.41
43326.9
47476.5
45564.4
44277.3
47300
47966.4
48199.9
50184.1
51501.4
51060.5
46472.6
29006.9
36184.7
36512.3
37491.5
121010
146663
140156
122110
90677.2
54167.9
23366
4509.78
-1535.42
-2402.96
-1469.61
-745.134
-316.095
-32.4574
148.383
262.909
344.01
399.615
452.043
497.294
539.999
582.791
635.291
703.905
788.88
853.266
940.11
1033.59
1066.6
1109.13
1169.17
1177.57
1168
1176.99
1168.86
1127.31
1111.97
1065.79
976.812
963.313
879.444
818.051
819.542
581.191
540.765
36312.6
42257.2
44383.2
39684.1
40710.7
42925.4
43782.7
44767.1
45363
44477.1
40275.7
29331.4
26695.2
35999.8
36992.8
107529
125647
118682
100897
70558.7
33086.7
2436.67
-365.954
50.1
25.7818
31.8634
21.9964
7.7046
-4.40911
-13.9376
-21.3099
-27.0194
-31.4425
-34.9101
-37.6781
-39.9867
-42.3861
-45.6359
-46.8172
-47.162
-47.6853
-48.2358
-48.7709
-49.237
-49.5272
-49.9367
-50.3898
-50.7595
-51.12
-51.6092
-52.0226
-52.3671
-52.8674
-53.0838
-53.3563
-53.6688
-53.5073
-52.8553
-52.2683
-54.9432
30277.3
36490.1
34782.8
29920
34862.3
37728.4
39122.3
39859.7
39928.6
38068.7
33460.4
32972
33734.4
29095.8
33414.9
97516.3
104444
98079.1
81070.3
51850.4
6519.24
117.88
111.879
75.0751
52.6308
26.9466
10.3305
-2.45814
-13.2348
-21.858
-28.6056
-33.8679
-37.9789
-41.2263
-43.8457
-46.0429
-48.0837
-50.1775
-51.2796
-51.8857
-52.5251
-53.1612
-53.756
-54.3277
-54.8695
-55.4323
-55.9631
-56.4597
-56.9536
-57.4396
-57.8879
-58.3177
-58.7156
-59.0237
-59.3231
-59.5108
-59.4902
-59.2436
-59.0653
-60.3937
24843.6
31980.6
30585.8
28244.9
30355.9
32868.6
34562.1
35444.6
35448.9
30283.8
19704.1
20250.9
20240.2
25356.7
27946.9
86616.9
84891.1
78694.2
63346.7
23461.8
193.04
126.5
90.2921
59.9001
38.1454
18.7753
3.25937
-9.073
-19.2445
-27.474
-34.0235
-39.1985
-43.2812
-46.5324
-49.1758
-51.3998
-53.3998
-55.2962
-56.6317
-57.4807
-58.1792
-58.8351
-59.4791
-60.0819
-60.642
-61.1952
-61.7304
-62.2367
-62.7266
-63.205
-63.6507
-64.0662
-64.4497
-64.7633
-65.0355
-65.2176
-65.2503
-65.1765
-65.276
-66.1541
19874.3
27717.6
27780.1
26014.8
26639.5
28467.2
30167.1
31491.5
30957.9
16308.8
17818.7
18956
19968.9
21935.8
28052.7
66489.8
67000.7
61016.3
45606.3
1436.09
107.013
110.413
73.7736
47.2615
26.726
9.38054
-5.00974
-16.6099
-26.131
-33.872
-40.1027
-45.078
-49.0396
-52.2171
-54.8151
-57.003
-58.9304
-60.6811
-62.0611
-63.0593
-63.8573
-64.5674
-65.2348
-65.8631
-66.4537
-67.0242
-67.5766
-68.1034
-68.607
-69.0898
-69.5385
-69.9531
-70.3275
-70.6439
-70.9063
-71.0877
-71.1676
-71.2002
-71.3924
-72.0242
15457.2
23557.8
23974.3
22965.9
23105.1
24372
26077.9
27294.6
16841.7
17385
14770
19071.1
19461.9
20341.3
27809.4
51410.9
51110
45543.5
20211.6
178.935
102.074
82.7299
54.8254
32.1962
13.7753
-1.52039
-14.3782
-25.0193
-33.7903
-40.9602
-46.7826
-51.4704
-55.2341
-58.2735
-60.7693
-62.8735
-64.7078
-66.3433
-67.7084
-68.7782
-69.645
-70.4007
-71.0949
-71.7449
-72.3593
-72.9479
-73.5169
-74.0606
-74.5779
-75.0694
-75.5237
-75.9404
-76.312
-76.6282
-76.8858
-77.0717
-77.1862
-77.2829
-77.5017
-77.9812
11132.3
19219.2
19713.4
19307.4
19445
20474.7
22188.2
15345.9
12878.8
13210
15162
17552.7
18628.1
20526.5
25648.2
39380
37819.5
31888.9
3240.28
63.4445
73.8517
54.3021
34.2711
15.7755
-0.0192234
-13.2907
-24.606
-34.1654
-42.1123
-48.658
-54.0116
-58.3473
-61.8515
-64.6978
-67.0439
-69.025
-70.7438
-72.2663
-73.577
-74.6588
-75.5592
-76.3453
-77.0605
-77.7278
-78.3607
-78.9672
-79.5529
-80.1123
-80.6446
-81.1465
-81.6096
-82.0316
-82.404
-82.7199
-82.9751
-83.1652
-83.3013
-83.4315
-83.6488
-84.0282
12155.8
13026.8
14382.1
14978.5
15510.5
16638.4
14189
12711.7
12793.5
12747
12989.6
14897.9
16784.6
17686.7
24225.8
28910.2
27026.2
19425.3
315.117
33.4369
40.6091
27.8696
13.4366
-1.19318
-14.2717
-25.5717
-35.417
-43.871
-50.9635
-56.8572
-61.7047
-65.6454
-68.8461
-71.4596
-73.6199
-75.4474
-77.0309
-78.4322
-79.6625
-80.7148
-81.6168
-82.4134
-83.1393
-83.8178
-84.4641
-85.0864
-85.687
-86.2623
-86.8102
-87.3243
-87.798
-88.2273
-88.6026
-88.9187
-89.1729
-89.3648
-89.5123
-89.6559
-89.8593
-90.1704
12250.8
11640.9
10548.5
11318.9
12508.4
12667.3
12548.5
12645.2
12735.7
12800.1
12879.6
13657.6
15426.1
15326.3
22128.7
21201.2
18459.6
7733.58
56.3591
12.7194
11.5488
3.63563
-6.72867
-18.0118
-28.5488
-38.0491
-46.5455
-53.9238
-60.1792
-65.4199
-69.7447
-73.2711
-76.1465
-78.5036
-80.4564
-82.1105
-83.5451
-84.8171
-85.9498
-86.9455
-87.8228
-88.6108
-89.3353
-90.0178
-90.6727
-91.3082
-91.9221
-92.5135
-93.078
-93.6058
-94.0914
-94.5286
-94.9081
-95.2247
-95.4776
-95.6693
-95.8195
-95.9634
-96.1485
-96.4114
12254.7
12209.8
12200.7
12212.6
12397.5
12359
12492.1
12583
12672.6
12764.7
12898.7
13343
14052.6
15111.8
15460.9
15132.9
11719.1
1495.59
-33.9098
-12.9053
-13.7042
-18.2741
-25.7052
-34.1831
-42.5496
-50.4968
-57.758
-64.1334
-69.5988
-74.204
-78.0118
-81.1246
-83.6712
-85.7644
-87.5017
-88.9747
-90.2551
-91.3939
-92.4185
-93.3407
-94.1738
-94.9367
-95.649
-96.3287
-96.9882
-97.6334
-98.2605
-98.8682
-99.4499
-99.9929
-100.492
-100.938
-101.322
-101.64
-101.889
-102.077
-102.223
-102.359
-102.524
-102.752
12261.8
12237.9
12239.2
12243.2
12278.2
12349
12436.2
12521.2
12604.8
12691.7
12813.7
13080.2
13583.1
13107.6
11867.3
10336.4
6223.3
131.717
-37.9685
-35.5741
-35.2561
-38.0124
-43.2102
-49.4719
-56.1311
-62.7406
-68.8882
-74.3552
-79.0863
-83.0866
-86.3993
-89.115
-91.3423
-93.177
-94.7033
-95.9979
-97.1252
-98.1319
-99.0461
-99.8855
-100.662
-101.388
-102.08
-102.751
-103.411
-104.064
-104.704
-105.328
-105.927
-106.487
-106.999
-107.456
-107.845
-108.163
-108.408
-108.588
-108.724
-108.846
-108.989
-109.188
12264.3
12232.5
12224.4
12236.9
12269.5
12322
12390.8
12465.8
12539.3
12612.5
12701.8
12833.8
13582.5
8973.41
8592.8
6575.57
2270.66
-29.6774
-64.4238
-55.6965
-54.2045
-55.711
-59.226
-63.893
-69.2202
-74.6756
-79.8344
-84.4827
-88.5373
-91.9749
-94.8261
-97.1693
-99.0956
-100.685
-102.013
-103.139
-104.122
-105.003
-105.81
-106.564
-107.276
-107.96
-108.627
-109.284
-109.943
-110.602
-111.255
-111.895
-112.511
-113.088
-113.615
-114.082
-114.477
-114.794
-115.033
-115.203
-115.323
-115.424
-115.54
-115.713
12258.7
12226.8
12215.2
12222.7
12250.4
12295.1
12352.9
12417.6
12480.8
12540.3
12607.9
12699.9
12249.9
7421.71
6046.3
3520.02
-98.8717
-84.2308
-76.0207
-72.5002
-70.9145
-71.6198
-73.9945
-77.5259
-81.7763
-86.2361
-90.5281
-94.4485
-97.8875
-100.808
-103.234
-105.234
-106.882
-108.246
-109.391
-110.365
-111.216
-111.982
-112.69
-113.361
-114.009
-114.647
-115.284
-115.927
-116.584
-117.249
-117.914
-118.57
-119.204
-119.798
-120.34
-120.818
-121.217
-121.533
-121.765
-121.921
-122.019
-122.093
-122.178
-122.323
12245.1
12221
12209.2
12214.2
12234.4
12270.4
12319.5
12375.4
12429.5
12477.1
12521
12552.2
11890.1
5252.82
4030.67
1052.27
-398.184
-111.104
-91.7474
-87.6821
-85.8986
-86.1119
-87.7307
-90.4164
-93.7858
-97.3965
-100.939
-104.215
-107.098
-109.549
-111.589
-113.273
-114.667
-115.829
-116.809
-117.647
-118.384
-119.049
-119.668
-120.264
-120.851
-121.445
-122.052
-122.68
-123.335
-124.004
-124.681
-125.355
-126.006
-126.619
-127.175
-127.663
-128.066
-128.379
-128.601
-128.739
-128.812
-128.853
-128.9
-129.012
12225.3
12210.6
12199.9
12202.1
12216.6
12245.5
12287.7
12337
12385
12426.5
12432.7
12578.6
9580.15
4145.5
2363.59
-1102.95
-268.891
-99.2231
-104.649
-101.164
-99.5614
-99.488
-100.585
-102.615
-105.26
-108.162
-111.061
-113.767
-116.153
-118.18
-119.868
-121.266
-122.431
-123.411
-124.247
-124.97
-125.61
-126.19
-126.733
-127.262
-127.796
-128.347
-128.927
-129.542
-130.192
-130.868
-131.559
-132.249
-132.918
-133.547
-134.117
-134.614
-135.019
-135.328
-135.537
-135.655
-135.699
-135.701
-135.704
-135.777
12202
12195.7
12186.6
12186.7
12196.4
12218.7
12256.2
12302.6
12344.5
12368.4
12346.7
12319.5
5741.57
3218.08
896.177
-2294.96
-129.55
-123.243
-116.788
-113.642
-112.185
-111.951
-112.67
-114.188
-116.245
-118.557
-120.903
-123.106
-125.047
-126.694
-128.066
-129.205
-130.164
-130.984
-131.696
-132.324
-132.886
-133.397
-133.879
-134.352
-134.838
-135.354
-135.91
-136.512
-137.16
-137.843
-138.548
-139.254
-139.939
-140.584
-141.165
-141.668
-142.074
-142.376
-142.57
-142.665
-142.678
-142.637
-142.589
-142.613
12178.6
12178.5
12171.3
12169.6
12174
12189.5
12222.8
12257.8
12258.5
12284.6
12345
12062.7
4089.37
2375.78
-574.225
-2238.36
-142.352
-129.31
-127.652
-125.26
-123.985
-123.651
-124.092
-125.207
-126.791
-128.613
-130.481
-132.24
-133.787
-135.096
-136.182
-137.088
-137.864
-138.544
-139.155
-139.709
-140.21
-140.67
-141.104
-141.533
-141.98
-142.465
-143
-143.593
-144.239
-144.931
-145.647
-146.368
-147.068
-147.725
-148.315
-148.82
-149.224
-149.515
-149.693
-149.763
-149.742
-149.657
-149.553
-149.518
12157.3
12160.9
12155.4
12151.9
12152.2
12158.8
12185
12198.9
12216.6
12252.4
12268.9
10358.9
3300.53
1443.7
-1983.69
-1011.4
-153.971
-141.051
-138.255
-136.204
-135.101
-134.711
-134.949
-135.754
-136.955
-138.365
-139.822
-141.193
-142.395
-143.402
-144.232
-144.929
-145.541
-146.102
-146.632
-147.132
-147.591
-148.015
-148.415
-148.811
-149.228
-149.688
-150.206
-150.791
-151.436
-152.133
-152.859
-153.591
-154.302
-154.968
-155.562
-156.064
-156.46
-156.737
-156.896
-156.941
-156.886
-156.756
-156.596
-156.495
12139.8
12144.8
12140.3
12136.5
12134.1
12135
12157.2
12167.7
12197.7
12212.5
12339.3
6380.69
2843.05
427.274
-3382.15
-397.971
-140.052
-150.628
-148.247
-146.637
-145.666
-145.241
-145.334
-145.897
-146.786
-147.851
-148.957
-149.997
-150.897
-151.639
-152.241
-152.748
-153.214
-153.675
-154.144
-154.608
-155.042
-155.445
-155.823
-156.197
-156.591
-157.031
-157.536
-158.113
-158.756
-159.454
-160.184
-160.921
-161.636
-162.303
-162.893
-163.388
-163.771
-164.031
-164.168
-164.185
-164.099
-163.93
-163.718
-163.546
12126.9
12131.3
12127.5
12123.8
12121.2
12119.2
12137.3
12149.5
12167.3
12195.9
11956.2
4340.29
2321.17
-687.777
-3662.21
-176.771
-163.214
-160.135
-158.015
-156.648
-155.786
-155.339
-155.326
-155.7
-156.338
-157.119
-157.933
-158.691
-159.334
-159.845
-160.242
-160.579
-160.916
-161.295
-161.719
-162.162
-162.585
-162.978
-163.345
-163.704
-164.083
-164.508
-165.002
-165.57
-166.206
-166.9
-167.627
-168.359
-169.068
-169.724
-170.302
-170.78
-171.144
-171.381
-171.493
-171.485
-171.37
-171.171
-170.919
-170.68
12118.7
12121.3
12117
12113
12110.9
12111.6
12128.6
12142.7
12146
12161
10476.3
3647.36
1583.6
-1982.68
-2422.35
-193.62
-168.873
-169.207
-167.527
-166.348
-165.554
-165.091
-165
-165.226
-165.664
-166.216
-166.792
-167.317
-167.743
-168.055
-168.276
-168.464
-168.691
-169.005
-169.4
-169.83
-170.247
-170.636
-170.999
-171.351
-171.72
-172.136
-172.619
-173.175
-173.798
-174.479
-175.19
-175.903
-176.591
-177.224
-177.776
-178.228
-178.563
-178.773
-178.857
-178.824
-178.686
-178.468
-178.196
-177.91
12114.9
12115.4
12109
12103.8
12100.8
12102.2
12113.1
12124.3
12125.8
12216.5
6530.72
3291.52
668.34
-3253.94
-852.258
-178.952
-180.535
-178.383
-176.844
-175.791
-175.042
-174.574
-174.426
-174.537
-174.819
-175.192
-175.578
-175.913
-176.16
-176.309
-176.384
-176.45
-176.593
-176.864
-177.24
-177.656
-178.064
-178.446
-178.806
-179.158
-179.524
-179.934
-180.406
-180.942
-181.543
-182.195
-182.873
-183.55
-184.2
-184.794
-185.307
-185.72
-186.019
-186.195
-186.25
-186.191
-186.034
-185.805
-185.537
-185.252
12112.6
12111.9
12103.2
12096.2
12092.4
12092.6
12098.6
12104.5
12138.3
11867.4
4826.11
2758.51
-436.183
-4208.32
-271.416
-184.273
-189.186
-187.32
-186.006
-185.043
-184.323
-183.857
-183.671
-183.696
-183.859
-184.091
-184.326
-184.511
-184.617
-184.638
-184.601
-184.578
-184.676
-184.934
-185.295
-185.685
-186.067
-186.433
-186.788
-187.142
-187.513
-187.921
-188.379
-188.888
-189.45
-190.053
-190.676
-191.297
-191.89
-192.428
-192.889
-193.253
-193.509
-193.649
-193.673
-193.591
-193.414
-193.172
-192.902
-192.682
12109.7
12111.3
12098
12089.8
12085.3
12084.9
12090.9
12097.9
12143.6
9533.42
4356.04
1956.92
-1766.1
-3324.2
-208.859
-198.575
-198.015
-196.278
-195.056
-194.152
-193.454
-193.001
-192.793
-192.754
-192.827
-192.95
-193.068
-193.138
-193.135
-193.059
-192.936
-192.855
-192.955
-193.223
-193.543
-193.882
-194.225
-194.566
-194.909
-195.259
-195.63
-196.033
-196.478
-196.963
-197.485
-198.034
-198.591
-199.14
-199.661
-200.13
-200.527
-200.837
-201.048
-201.149
-201.148
-201.061
-200.905
-200.726
-200.566
-200.472
12090.9
12100.2
12086.3
12082
12078.5
12078.9
12081.1
12096.6
11954.6
6323.14
3947.7
924.729
-3151.76
-1180.48
-214.41
-208.306
-206.657
-205.11
-204.012
-203.158
-202.491
-202.06
-201.839
-201.755
-201.761
-201.803
-201.832
-201.813
-201.73
-201.579
-201.391
-201.315
-201.446
-201.656
-201.918
-202.211
-202.521
-202.838
-203.165
-203.502
-203.857
-204.241
-204.66
-205.109
-205.586
-206.081
-206.58
-207.067
-207.526
-207.936
-208.281
-208.55
-208.736
-208.836
-208.856
-208.815
-208.726
-208.62
-208.524
-208.459
12043.2
12082
12073.5
12071.7
12070.4
12073.4
12070.8
12097.3
10735.5
5534.62
3192.91
-337.926
-4261.85
-346.178
-208.729
-216.913
-215.176
-213.889
-212.898
-212.097
-211.479
-211.08
-210.855
-210.742
-210.699
-210.68
-210.641
-210.557
-210.415
-210.213
-210.006
-209.973
-210.065
-210.226
-210.441
-210.693
-210.969
-211.26
-211.566
-211.884
-212.221
-212.583
-212.972
-213.384
-213.818
-214.265
-214.711
-215.145
-215.554
-215.92
-216.231
-216.479
-216.657
-216.765
-216.811
-216.803
-216.755
-216.69
-216.625
-216.574
12015.6
12014.2
12048
12053.8
12058.4
12064.2
12079.8
12023.1
7451.59
5050.57
2100.41
-1847.11
-3384.3
-236.947
-225.726
-225.412
-223.794
-222.64
-221.747
-221.011
-220.458
-220.098
-219.877
-219.747
-219.67
-219.606
-219.52
-219.391
-219.208
-218.984
-218.787
-218.763
-218.818
-218.938
-219.113
-219.328
-219.57
-219.834
-220.116
-220.413
-220.729
-221.068
-221.428
-221.806
-222.202
-222.605
-223.005
-223.394
-223.76
-224.089
-224.371
-224.601
-224.773
-224.886
-224.948
-224.965
-224.945
-224.909
-224.868
-224.83
12006.4
12005.4
12015.9
12033.5
12045.8
12051.3
12096.3
10831.7
6518.12
4193.51
715.222
-3401.53
-1069.63
-239.157
-235.305
-233.86
-232.438
-231.412
-230.606
-229.947
-229.463
-229.144
-228.934
-228.796
-228.697
-228.603
-228.485
-228.325
-228.121
-227.881
-227.726
-227.679
-227.704
-227.79
-227.93
-228.111
-228.323
-228.56
-228.817
-229.09
-229.384
-229.698
-230.03
-230.378
-230.738
-231.102
-231.463
-231.814
-232.142
-232.439
-232.696
-232.909
-233.074
-233.19
-233.263
-233.297
-233.299
-233.283
-233.259
-233.233
11995.3
11998.8
12005.6
12018.6
12031.2
12042.7
11904
8106.42
5921.27
2890.16
-921.26
-4313.01
-277.799
-241.52
-244.306
-242.432
-241.178
-240.253
-239.526
-238.942
-238.525
-238.245
-238.052
-237.913
-237.802
-237.691
-237.553
-237.376
-237.169
-236.919
-236.786
-236.723
-236.724
-236.783
-236.893
-237.045
-237.229
-237.439
-237.67
-237.92
-238.191
-238.48
-238.785
-239.103
-239.432
-239.761
-240.087
-240.404
-240.7
-240.97
-241.205
-241.403
-241.561
-241.677
-241.756
-241.802
-241.82
-241.82
-241.81
-241.792
11983.5
11989.4
11992.3
11999.7
12020.5
12044.3
10315.4
7267.35
4753.36
1214.27
-2742.58
-2577.38
-274.082
-252.268
-252.8
-251.161
-250.02
-249.19
-248.534
-248.023
-247.669
-247.427
-247.254
-247.121
-247.007
-246.885
-246.735
-246.554
-246.339
-246.111
-245.973
-245.899
-245.882
-245.918
-246.004
-246.129
-246.287
-246.471
-246.679
-246.907
-247.154
-247.418
-247.696
-247.987
-248.285
-248.584
-248.879
-249.166
-249.433
-249.679
-249.895
-250.081
-250.231
-250.344
-250.427
-250.481
-250.51
-250.523
-250.522
-250.512
11970.9
11979.3
11981.3
11979.4
12011.3
11534.8
8487.18
6264.34
3014.08
-673.005
-4386.19
-538.898
-256.787
-263.599
-261.493
-260.004
-258.978
-258.233
-257.643
-257.209
-256.915
-256.71
-256.558
-256.437
-256.325
-256.198
-256.043
-255.867
-255.625
-255.43
-255.293
-255.21
-255.179
-255.197
-255.263
-255.365
-255.5
-255.659
-255.845
-256.05
-256.274
-256.514
-256.767
-257.031
-257.301
-257.573
-257.841
-258.1
-258.343
-258.567
-258.767
-258.94
-259.081
-259.192
-259.277
-259.335
-259.372
-259.393
-259.401
-259.396
11954
11967.2
11972.5
11975.6
11810
9541.3
7455.94
4467.05
969.271
-2620.15
-3574.57
-284.413
-272.611
-272.193
-270.238
-268.948
-268.052
-267.387
-266.875
-266.518
-266.28
-266.111
-265.98
-265.872
-265.765
-265.638
-265.486
-265.313
-265.068
-264.883
-264.747
-264.658
-264.617
-264.622
-264.67
-264.753
-264.866
-265.004
-265.169
-265.352
-265.553
-265.77
-265.999
-266.238
-266.483
-266.73
-266.972
-267.206
-267.428
-267.633
-267.818
-267.978
-268.112
-268.22
-268.304
-268.364
-268.407
-268.433
-268.446
-268.445
11926.5
11947.5
11962.7
11918.6
10308.5
8314.17
5554.43
2214.27
-1113.69
-4356.92
-798.886
-281.27
-281.422
-280.414
-279.022
-277.997
-277.249
-276.676
-276.252
-275.97
-275.785
-275.647
-275.537
-275.44
-275.338
-275.214
-275.071
-274.868
-274.652
-274.476
-274.344
-274.252
-274.204
-274.197
-274.229
-274.295
-274.389
-274.51
-274.655
-274.817
-274.997
-275.192
-275.399
-275.614
-275.836
-276.06
-276.278
-276.49
-276.693
-276.882
-277.051
-277.2
-277.326
-277.43
-277.512
-277.573
-277.619
-277.649
-277.665
-277.666
11884.9
11920.5
11933.2
10511.5
8837.63
6232.93
3108.02
-56.6723
-3167.73
-3845.36
-304.736
-290.891
-290.916
-289.206
-288.051
-287.208
-286.589
-286.112
-285.779
-285.568
-285.428
-285.322
-285.23
-285.143
-285.047
-284.932
-284.8
-284.578
-284.38
-284.215
-284.086
-283.994
-283.94
-283.924
-283.943
-283.995
-284.073
-284.177
-284.303
-284.446
-284.606
-284.781
-284.967
-285.162
-285.363
-285.564
-285.762
-285.954
-286.138
-286.311
-286.467
-286.605
-286.723
-286.821
-286.901
-286.962
-287.009
-287.041
-287.059
-287.062
9568.69
11501
10645.1
9150.79
6645.2
3785.12
874.306
-1965.85
-4813.17
-704.206
-301.122
-301.781
-300.063
-298.479
-297.44
-296.722
-296.191
-295.801
-295.546
-295.386
-295.276
-295.187
-295.103
-295.013
-294.911
-294.802
-294.653
-294.443
-294.259
-294.104
-293.979
-293.889
-293.831
-293.808
-293.817
-293.855
-293.92
-294.008
-294.117
-294.243
-294.386
-294.541
-294.708
-294.884
-295.065
-295.246
-295.425
-295.599
-295.766
-295.924
-296.067
-296.194
-296.303
-296.395
-296.473
-296.533
-296.579
-296.612
-296.631
-296.636
119111
124201
124169
124116
124038
123930
123791
123618
123400
123105
122692
122116
121325
120249
118793
116806
114027
109949
103279
91340
108924
114000
113965
113906
113820
113702
113550
113365
113134
112827
112401
111807
110982
109845
108279
106096
102963
98226.9
90508.8
77322
98762.2
103824
103786
103724
103632
103506
103347
103154
102919
102613
102195
101610
100795
99665.1
98104.7
95935.7
92872.4
88448.6
81957.2
72682.2
88628
93675.6
93636
93570.6
93475.1
93346
93183.6
92989.1
92758.9
92467.9
92073.2
91521.8
90751.4
89684.8
88219.1
86209
83446.1
79642.6
74459
67691.2
78522.2
83555.2
83514.9
83448.5
83351.4
83221.9
83061
82872.5
82656.1
82387.7
82025.5
81519.9
80814.6
79842.4
78518.4
76732.1
74340.8
71175.7
67082.2
62033.4
68445
73463.8
73423.8
73357.7
73261
73134.7
72980.9
72805.4
72606.9
72360.9
72029.9
71570.9
70935.2
70066.3
68895.8
67341.1
65305.1
62687.7
59416
55506.3
58395.9
63401.4
63362.8
63297.8
63204
63086.2
62945.3
62785.3
62600.3
62369.8
62063.5
61645.5
61074.4
60302.7
59275.1
57929
56196.8
54015
51345.7
48209.5
48373.4
53367.1
53330.8
53267.6
53183.3
53078.2
52950.3
52800.2
52622.9
52402.9
52116.2
51732.7
51217.1
50528.9
49623.2
48451.9
46966.1
45122.6
42897.6
40307
38374.6
43359.1
43325.2
43272.6
43201.1
43104.7
42982.9
42837.5
42664.9
42453.1
42182.7
41828.2
41358.8
40739.8
39933.9
38904.5
37615.9
36036.7
34148.8
31961.4
28393.4
33373.1
33353
33317
33251.3
33156.1
33035.5
32891.6
32721.3
32514.9
32256.5
31925.1
31494
30931.4
30205.7
29290
28161.2
26794.9
25173.2
23297.6
18421.3
23411.3
23421.8
23393.8
23326.1
23227.8
23104.7
22959.8
22790.2
22586.4
22335
22020.8
21621.6
21104.6
20440.4
19613
18617.5
17431.6
16033.2
14412.5
8501.84
13477.4
13517.2
13498.9
13426.8
13318.6
13184.8
13035
12864.8
12660.1
12407.9
12105.7
11736.5
11251.9
10620.4
9836.53
8948.72
7935.14
6691.23
5195.22
-708.405
3430.77
3675.84
3686.47
3573.17
3434.93
3283.35
3142.27
2989.35
2795.72
2537.38
2233.42
1952.96
1584.24
1080.16
476.357
51.1529
-331.696
-607.378
-663.762
-423.138
-425.566
-425.579
-425.641
-425.46
-425.747
-426.4
-427.479
-428.852
-430.517
-432.509
-434.432
-436.687
-439.487
-442.168
-446.309
-447.793
-449.727
-448.824
-424.079
-441.339
-436.091
-434.327
-433.89
-433.731
-433.72
-433.818
-434.002
-434.248
-434.54
-434.86
-435.159
-435.477
-435.831
-436.188
-436.606
-436.801
-436.925
-436.622
-435.706
-449.891
-444.977
-444.243
-443.899
-443.736
-443.672
-443.677
-443.741
-443.855
-444.011
-444.204
-444.423
-444.671
-444.948
-445.248
-445.567
-445.834
-446.031
-446.054
-445.875
-459.546
-454.604
-454.256
-454.007
-453.855
-453.779
-453.765
-453.801
-453.879
-453.993
-454.137
-454.305
-454.494
-454.7
-454.917
-455.133
-455.321
-455.46
-455.53
-455.555
-469.395
-464.249
-464.085
-463.945
-463.842
-463.785
-463.77
-463.792
-463.847
-463.93
-464.038
-464.166
-464.311
-464.467
-464.63
-464.791
-464.935
-465.052
-465.136
-465.201
-479.281
-474.023
-473.894
-473.819
-473.761
-473.728
-473.723
-473.742
-473.784
-473.847
-473.929
-474.027
-474.137
-474.257
-474.382
-474.506
-474.621
-474.721
-474.805
-474.879
-489.164
-483.842
-483.716
-483.677
-483.649
-483.637
-483.642
-483.662
-483.697
-483.748
-483.811
-483.887
-483.973
-484.067
-484.165
-484.264
-484.359
-484.446
-484.525
-484.599
-499.043
-493.696
-493.556
-493.536
-493.529
-493.532
-493.544
-493.565
-493.596
-493.637
-493.688
-493.749
-493.817
-493.892
-493.972
-494.054
-494.134
-494.212
-494.286
-494.358
-508.877
-503.556
-503.416
-503.408
-503.414
-503.424
-503.439
-503.46
-503.486
-503.521
-503.562
-503.611
-503.667
-503.73
-503.797
-503.867
-503.938
-504.008
-504.078
-504.149
-518.585
-513.399
-513.301
-513.297
-513.308
-513.32
-513.334
-513.351
-513.373
-513.401
-513.435
-513.477
-513.524
-513.577
-513.636
-513.698
-513.762
-513.829
-513.896
-513.965
-528.146
-523.23
-523.201
-523.204
-523.212
-523.221
-523.231
-523.244
-523.261
-523.284
-523.313
-523.348
-523.389
-523.436
-523.488
-523.544
-523.605
-523.667
-523.733
-523.799
43955.6
38300.6
43230.1
51953.8
60691
67633.9
72323.2
74986
76031.1
75785.1
74393.4
71793.1
67582.7
60534
46685.5
52570.2
36438.1
35789.8
42100.8
49680
55932.5
60244.6
62733
63700.1
63375.2
61846.3
59017.4
54540.9
47697.4
37449.4
59720.8
45868.6
40051.4
40932.4
44624.7
48465
51325.1
52966.8
53429.8
52783.9
51032.5
48077.1
43710.2
37660
29822.4
59533.6
50669.4
44617.2
42198.1
42235.7
43261.7
44250.8
44712
44440
43339.5
41335.2
38338
34251.8
29030.8
22823.1
56174.9
49845.1
44687.1
41304.4
39478.5
38593.1
38037
37373.9
36330.1
34735.3
32474.6
29467.3
25671.9
21121
15986.6
51023.8
46094.7
41668.8
38129.4
35502.7
33559.9
31981.9
30470.9
28793
26776.8
24303
21297.3
17736.3
13666.5
9224.91
44623.2
40590.3
36736.4
33314.1
30407.8
27949.4
25782.8
23726.1
21608.9
19288.8
16659.3
13656.4
10257.4
6463.33
2292.06
37342.4
33947.4
30567.5
27375.1
24457.5
21809.2
19360.6
17008.3
14635
12131
9400.25
6351.19
2908.54
-561.386
-2052.48
29453.6
26544.6
23573.7
20664
17880.8
15239.1
12716.1
10261.1
7773.19
5121.01
2200.31
-507.771
-1382.58
-636.893
-390.891
21141.7
18619.4
16009.2
13416.1
10854.7
8332.63
5812.61
3302.72
794.794
-1122.98
-869.881
-547.121
-397.36
-381.378
-388.915
12538.8
10317.4
7982.87
5705.93
3314.03
954.929
-1084.37
-1550.5
-600.057
-467.531
-393.61
-393.699
-398.167
-399.884
-399.765
3479.18
1540.21
-364.371
-1400.05
-1478.48
-694.334
-475.002
-410.181
-403.671
-404.911
-409.142
-409.729
-409.091
-408.81
-408.803
-583.621
-647.196
-571.963
-458.176
-421.954
-410.344
-414.588
-417.8
-419.514
-418.632
-418.295
-418.282
-418.177
-418.135
-418.144
-415.762
-418.358
-419.684
-427.163
-426.636
-428.481
-427.992
-427.873
-427.802
-427.624
-427.565
-427.562
-427.544
-427.548
-427.579
-437.24
-437.76
-437.312
-437.467
-437.116
-437.06
-437.015
-437.055
-437.06
-437.026
-437.005
-437.009
-437.025
-437.057
-437.104
-446.05
-446.319
-446.396
-446.498
-446.49
-446.488
-446.493
-446.514
-446.529
-446.534
-446.545
-446.567
-446.6
-446.645
-446.702
-455.65
-455.789
-455.89
-455.968
-456.006
-456.03
-456.054
-456.083