/*--------------------------------*- C++ -*----------------------------------*\
| =========                 |                                                 |
| \\      /  F ield         | OpenFOAM: The Open Source CFD Toolbox           |
|  \\    /   O peration     | Version:  v1912                                 |
|   \\  /    A nd           | Website:  www.openfoam.com                      |
|    \\/     M anipulation  |                                                 |
\*---------------------------------------------------------------------------*/
FoamFile
{
    version     2.0;
    format      ascii;
    class       volScalarField;
    location    "14";
    object      p_rgh;
}
// * * * * * * * * * * * * * * * * * * * * * * * * * * * * * * * * * * * * * //

dimensions      [1 -1 -2 0 0 0 0];


internalField   nonuniform List<scalar> 
20320
(
430388
430464
430489
430540
430609
430695
430794
430906
431028
431157
431292
431429
431566
431703
431841
431989
432147
432290
432364
432357
430281
430377
430411
430464
430535
430622
430723
430837
430961
431093
431231
431372
431514
431650
431777
431906
432037
432156
432238
432296
430066
430200
430236
430290
430362
430451
430553
430669
430795
430930
431071
431215
431350
431471
431583
431692
431800
431900
431987
432083
429767
429941
429976
430031
430103
430192
430296
430412
430540
430676
430818
430954
431075
431180
431278
431372
431465
431554
431644
431754
429396
429605
429640
429695
429767
429856
429959
430075
430202
430338
430475
430600
430705
430797
430883
430966
431048
431131
431224
431342
428962
429201
429236
429290
429361
429448
429550
429665
429790
429923
430050
430161
430252
430333
430409
430483
430558
430639
430734
430861
428474
428739
428773
428825
428894
428979
429078
429189
429311
429436
429552
429648
429728
429798
429864
429931
430001
430080
430179
430314
427942
428227
428259
428309
428375
428456
428550
428656
428772
428887
428989
429072
429139
429198
429255
429314
429379
429457
429559
429702
427375
427675
427705
427751
427813
427888
427976
428075
428181
428283
428370
428437
428491
428537
428583
428632
428691
428767
428873
429025
426781
427092
427119
427161
427217
427285
427364
427452
427545
427632
427701
427751
427787
427818
427848
427885
427935
428007
428115
428277
426170
426488
426511
426547
426595
426654
426721
426796
426873
426941
426989
427017
427031
427039
427048
427067
427103
427167
427277
427450
425551
425870
425889
425919
425957
426004
426057
426115
426172
426217
426239
426238
426223
426200
426180
426171
426185
426237
426344
426529
424933
425248
425262
425284
425312
425344
425380
425418
425451
425467
425457
425420
425365
425300
425236
425186
425166
425194
425295
425492
424322
424630
424639
424652
424667
424683
424699
424712
424718
424701
424650
424567
424459
424334
424208
424098
424023
424011
424095
424304
423727
424024
424027
424030
424031
424029
424023
424009
423982
423926
423829
423688
423510
423305
423090
422886
422725
422643
422690
422908
423155
423437
423433
423426
423413
423391
423360
423318
423256
423156
423003
422793
422527
422216
421876
421534
421231
421025
420996
421203
422609
422874
422864
422846
422818
422777
422721
422648
422550
422403
422190
421899
421529
421082
420572
420027
419497
419067
418870
419009
422095
422342
422325
422297
422255
422194
422113
422011
421876
421683
421408
421031
420543
419934
419206
418375
417488
416647
416067
415947
421616
421842
421820
421783
421726
421647
421544
421414
421246
421010
420677
420218
419609
418824
417840
416638
415222
413656
412185
411134
421174
421379
421352
421306
421238
421143
421019
420866
420669
420398
420017
419488
418773
417822
416577
414957
412856
410146
406715
402559
75684.7
64650.1
58278.1
56307.7
62363.3
74342.3
80227.1
80198.6
78080.4
74963.1
71046.4
65179.9
59002.3
63136.5
144532
315711
366525
331897
269851
204027
145639
100333
69052
49419.2
37918.3
31650.3
28520.9
27045.1
26452
26305.5
26370.6
26530.6
26722.7
26916.7
27101.1
27272.1
27432.7
27586.6
27731.5
27866.5
27992.4
28107.8
28207.7
28289.6
28354.5
28402.2
28429.8
28440.5
28439
28424.2
28395.9
28356.3
28302.3
28237.2
28165.4
28080
27983.1
27873.1
27751.3
27658.2
77194.6
69100.5
61939.1
56865.1
53894.5
64973.1
75393.5
79203
81727.4
83909.9
86497.1
87083.1
84009.8
65292.5
59629.5
192848
278261
278006
237466
184743
134581
94456.1
66315.9
48457.8
37952
32051.8
29014.4
27525
26869.9
26646.7
26635.1
26726.1
26863.8
27017.9
27173.7
27326.4
27476.8
27627.3
27775.5
27916.1
28045.9
28164.4
28267.2
28349.7
28414.6
28463.1
28491.3
28501
28497.7
28480.8
28448.5
28403.7
28343.9
28269.5
28189.5
28098.8
27997
27889.4
27764.8
27655.1
77376.4
70620.1
64759.5
46054.5
50721.7
69757.5
70828.1
78675.8
84274.3
87725.7
93373.5
97593.1
72231
38613.5
50681
160264
222183
234167
208305
165975
122523
86843.5
61784.3
46016
36717.6
31603.5
28974.7
27665.8
27069.5
26847.7
26813.4
26873.8
26981
27109.3
27244.5
27382.1
27523
27668.8
27817.3
27959.7
28091.2
28213.8
28320.4
28403.5
28469.6
28520.8
28549.7
28558.5
28554.4
28536.2
28500.5
28452.6
28388.9
28306.9
28222.3
28126.3
28020
27913.7
27781.3
27657.4
76882.9
72013.4
60276.5
44882.2
54110.3
71331.3
72681
80533.6
77293.3
87897.3
95778.8
82401.5
36615.7
37032.2
41050.5
164100
199807
205753
185849
149529
110127
77395.8
54960.1
41560.5
33959.1
29975.7
28122.8
27245.1
26877.7
26771.3
26790.2
26874
26987.4
27115.4
27246.9
27380
27518.3
27664.4
27817.2
27963
28096.6
28228.5
28344.5
28428.4
28498.8
28557.8
28587.5
28595.1
28593.3
28576.2
28537.9
28491.2
28425.2
28336.1
28253.9
28152.7
28044.4
27941.9
27783.3
27650.5
75640.6
73762.3
54095.6
44766.4
69289.2
74442.1
74430.4
77610.1
80592.3
82597.9
72283.8
36309.4
36687.3
36807.4
38172.8
157084
187520
185152
166872
133821
96607.4
65692.1
45442.1
34742
29310.9
26781.7
26240.5
26219.4
26257.3
26387.8
26547.4
26721.6
26885.7
27045.9
27194.5
27331.4
27470.2
27622.7
27790.6
27942
28074.4
28223.7
28358.2
28437.8
28515.5
28591.5
28619
28622
28627.8
28613.2
28569.2
28531.5
28461.9
28359.4
28294.4
28179.7
28075.9
27993
27757.6
27639.7
73847.5
75272.4
48638.6
44305.1
75024.5
75759.1
75948.9
77971.8
78966.3
78659.7
74198.7
51993.7
36222.4
36540.1
37519.3
146124
174459
167952
149906
118473
81963.7
51161.8
32305.6
26181.9
24306.6
23046
21226.6
19672.6
18407.4
17022.2
15597.1
14904
14470
14546.1
14734.5
15033
15406.4
16112.4
17326.8
18440.6
18912.1
20047.8
21518.8
21486.2
21808.8
22838.3
22741.6
22252
22419.2
22410.9
21657.9
21768.3
21322.6
19638.5
19919.9
18412.4
17276.7
17956.6
12530.2
11684.6
72514.5
75646.2
49592.2
61387.4
74050.8
76290.9
77170.7
77229.6
77490.8
76608.9
73648.6
62720.3
39663.8
36033.2
37026.1
139551
159036
152071
134285
103948
66475.6
30430.1
1622.09
83.4889
59.1707
65.2523
55.3853
41.0936
28.9798
19.4513
12.0791
6.36952
1.94645
-1.52112
-4.28914
-6.59775
-8.99721
-12.2469
-13.4283
-13.773
-14.2963
-14.8469
-15.382
-15.8481
-16.1382
-16.5477
-17.0009
-17.3706
-17.7311
-18.2202
-18.6336
-18.9782
-19.4785
-19.6948
-19.9674
-20.2798
-20.1183
-19.4664
-18.8793
-21.5542
72244.4
75572.5
67979.7
68524.8
73943.6
76809.9
77978
78941.8
79011
77151
72542.7
72054.3
69069.4
29134.9
33454
136401
143526
137161
120153
90932.7
24705.2
156.962
150.961
114.157
91.7131
66.0289
49.4128
36.6241
25.8474
17.2242
10.4766
5.21441
1.10341
-2.14399
-4.76341
-6.96053
-9.00143
-11.0952
-12.1973
-12.8034
-13.4428
-14.0789
-14.6738
-15.2454
-15.7873
-16.3501
-16.8808
-17.3774
-17.8713
-18.3574
-18.8056
-19.2354
-19.6333
-19.9415
-20.2408
-20.4286
-20.4079
-20.1614
-19.983
-21.3114
72649.1
76850.4
75461.4
73051.1
75230.4
77745.5
79241.2
80322.4
80326.7
73308
32018
24090.6
20285.1
25401.6
27991.7
131495
129769
123572
108225
61622.8
237.917
171.378
135.17
104.778
83.0232
63.6531
48.1372
35.8048
25.6333
17.4038
10.8543
5.67924
1.59661
-1.65458
-4.29801
-6.52199
-8.52192
-10.4183
-11.7538
-12.6029
-13.3014
-13.9572
-14.6013
-15.2041
-15.7641
-16.3174
-16.8526
-17.3589
-17.8487
-18.3272
-18.7728
-19.1884
-19.5718
-19.8855
-20.1576
-20.3398
-20.3724
-20.2987
-20.3982
-21.2763
73637.4
78492.2
78510
76768.8
77416.4
79220.9
80913.7
82268.6
81735.1
20388.6
17869.5
19006.7
20019.6
21986.6
35510.4
117267
117778
111794
96383.5
4890.41
157.79
161.191
124.551
98.0386
77.5032
60.1577
45.7674
34.1672
24.6461
16.9051
10.6745
5.69921
1.73762
-1.43995
-4.03799
-6.22579
-8.15322
-9.90399
-11.2839
-12.2821
-13.0802
-13.7902
-14.4576
-15.0858
-15.6765
-16.2471
-16.7994
-17.3262
-17.8298
-18.3126
-18.7613
-19.1759
-19.5503
-19.8668
-20.1291
-20.3105
-20.3905
-20.423
-20.6153
-21.2471
75209.5
80271.3
80750.7
79742.1
79859.8
81114.1
82860.2
84076.9
31299.3
28271.7
31383.3
19127.9
19518.7
20398.1
56100.6
108193
107892
102326
72942.9
235.718
158.856
139.512
111.608
88.9785
70.5577
55.2619
42.4042
31.763
22.9921
15.8221
9.99977
5.31201
1.54827
-1.49115
-3.987
-6.09116
-7.92556
-9.56105
-10.9261
-11.9959
-12.8627
-13.6183
-14.3126
-14.9625
-15.577
-16.1655
-16.7346
-17.2783
-17.7956
-18.287
-18.7413
-19.1582
-19.5297
-19.8459
-20.1035
-20.2894
-20.4038
-20.5005
-20.7193
-21.1988
75147.9
82107.5
82594.5
82106.7
82340.1
83366.2
85083.5
34484.3
12941.7
13272.9
43860.2
32109.1
18691
20589.4
76087.5
102275
100715
94784.1
19166.7
126.34
136.747
117.197
97.1663
78.6707
62.876
49.6046
38.2892
28.7298
20.7829
14.2372
8.88357
4.54787
1.0437
-1.80256
-4.14867
-6.12976
-7.84863
-9.37107
-10.6819
-11.7636
-12.6639
-13.4501
-14.1652
-14.8327
-15.4655
-16.072
-16.6577
-17.2171
-17.7493
-18.2512
-18.7144
-19.1364
-19.5089
-19.8247
-20.0799
-20.27
-20.4061
-20.5363
-20.7535
-21.133
12700.9
81552.2
83406.7
84096.2
84628.2
85756.1
38337.3
12780.9
12862.9
12816.1
13543.6
17443.6
16853.7
17755.8
91579.1
98027.9
96143.9
88543
986.04
102.555
109.727
96.9873
82.5543
67.9245
54.8459
43.546
33.7008
25.2467
18.1543
12.2605
7.41307
3.47234
0.271659
-2.34187
-4.50221
-6.32963
-7.9132
-9.31451
-10.5448
-11.5971
-12.4991
-13.2957
-14.0217
-14.7001
-15.3465
-15.9687
-16.5693
-17.1446
-17.6925
-18.2066
-18.6803
-19.1095
-19.4849
-19.8009
-20.0551
-20.2471
-20.3946
-20.5382
-20.7415
-21.0527
12948.1
18835.8
66233.3
85443.7
81395.2
20832.4
12624
12721.2
12811.2
12875.6
12955.1
13733.1
15501.6
15401.7
97580.5
96653
93911.4
82184.8
131.811
88.1711
87.0006
79.0874
68.7231
57.44
46.9029
37.4026
28.9062
21.528
15.2725
10.0319
5.70708
2.18059
-0.694744
-3.05183
-5.00462
-6.65882
-8.0933
-9.3654
-10.498
-11.4937
-12.3711
-13.1591
-13.8835
-14.566
-15.221
-15.8564
-16.4703
-17.0618
-17.6262
-18.1541
-18.6396
-19.0769
-19.4563
-19.7729
-20.0259
-20.2175
-20.3677
-20.5116
-20.6968
-20.9596
12339.9
12347.5
12282.6
12294.5
12479.4
12441.2
12576.9
12664.9
12754.5
12846.6
12980.6
13424.9
14134.5
32608.4
97360.3
97032.3
93618.5
36802.9
47.9896
68.9941
68.1951
63.6254
56.1942
47.7163
39.3498
31.4025
24.1414
17.7661
12.3006
7.69543
3.88757
0.774785
-1.77186
-3.86495
-5.6023
-7.07534
-8.3557
-9.4945
-10.5191
-11.4412
-12.2744
-13.0373
-13.7496
-14.4293
-15.0889
-15.734
-16.3611
-16.9688
-17.5505
-18.0935
-18.5924
-19.0384
-19.4228
-19.7403
-19.9901
-20.1781
-20.3239
-20.4599
-20.6251
-20.8523
12353.6
12326.4
12327.6
12334.7
12388.1
12455
12524.9
12609.7
12693.3
12780.2
12902.2
13168.6
13671.6
71406.9
100330
98799
94685.9
8523.92
50.4941
52.8886
53.2066
50.4502
45.2524
38.9908
32.3315
25.722
19.5745
14.1074
9.37636
5.37609
2.06329
-0.652383
-2.87968
-4.71433
-6.24064
-7.53518
-8.66258
-9.66928
-10.5834
-11.4228
-12.1991
-12.9255
-13.6176
-14.2884
-14.9488
-15.6012
-16.2417
-16.8657
-17.4641
-18.0239
-18.5368
-18.9929
-19.3829
-19.7003
-19.9452
-20.1258
-20.2614
-20.3831
-20.5263
-20.7252
12362.8
12330.9
12375.1
12387.6
12364.7
12417.1
12485.9
12560.9
12634.5
12707.9
12797
12928.9
13677.7
98207
103736
101719
97414.3
65.4662
30.7198
39.4471
40.9391
39.4326
35.9176
31.2506
25.9234
20.4681
15.3092
10.6609
6.60633
3.16874
0.317596
-2.02567
-3.95197
-5.54175
-6.86914
-7.99578
-8.97819
-9.85932
-10.6666
-11.4206
-12.1327
-12.8164
-13.4828
-14.1403
-14.7997
-15.4583
-16.1116
-16.7518
-17.3673
-17.9443
-18.4717
-18.9387
-19.3337
-19.6509
-19.8898
-20.0593
-20.1793
-20.2804
-20.3968
-20.5698
12364.5
12331.4
12317.2
12324.7
12352.3
12397.1
12454.9
12519.5
12582.9
12642.5
12709.9
12804.4
12351.8
109366
107991
105464
94850.1
17.7135
25.9236
29.4441
31.0299
30.3245
27.9499
24.4184
20.168
15.7082
11.4162
7.49587
4.0568
1.13638
-1.29003
-3.28948
-4.93743
-6.30197
-7.44671
-8.4204
-9.27119
-10.0377
-10.7458
-11.4169
-12.0648
-12.7029
-13.3401
-13.9827
-14.64
-15.3043
-15.9694
-16.626
-17.2593
-17.8542
-18.3961
-18.8736
-19.2731
-19.589
-19.8206
-19.9764
-20.0751
-20.1487
-20.2335
-20.3786
12357.8
12329.8
12318.1
12323.1
12343.3
12379.2
12428.3
12484.3
12538.7
12586
12629.8
12667.2
33282.4
114120
112898
109920
44897.8
-2.23678
17.1199
21.1852
22.9687
22.7554
21.1365
18.4508
15.0814
11.4708
7.92775
4.65235
1.769
-0.682014
-2.72123
-4.40605
-5.80016
-6.96154
-7.94195
-8.78016
-9.51638
-10.182
-10.8012
-11.3968
-11.9841
-12.5774
-13.1849
-13.8129
-14.4673
-15.137
-15.8141
-16.4875
-17.139
-17.7514
-18.3076
-18.7955
-19.1985
-19.5117
-19.7337
-19.8722
-19.9451
-19.9856
-20.0325
-20.1448
12344.9
12326.5
12315.8
12318.1
12332.6
12361.7
12404.7
12454
12500.9
12542.4
12591.6
12694.5
93856.5
120059
118277
114811
10862.9
16.6907
11.2646
14.75
16.3525
16.4258
15.3292
13.2989
10.6538
7.75166
4.85286
2.14687
-0.238692
-2.26586
-3.9541
-5.35228
-6.51741
-7.49741
-8.33297
-9.0559
-9.69575
-10.2759
-10.8193
-11.3485
-11.8817
-12.4333
-13.0134
-13.6278
-14.2786
-14.9544
-15.6448
-16.3352
-17.0041
-17.633
-18.2028
-18.6998
-19.1054
-19.4138
-19.6232
-19.7412
-19.7851
-19.7875
-19.7902
-19.863
12328.8
12318.8
12309.7
12309.9
12320.2
12342.9
12379.7
12425.7
12467.6
12501
12517.2
12442.6
126924
126305
123984
120792
-6.46227
-0.15513
6.29988
9.44577
10.902
11.1368
10.4178
8.89991
6.8425
4.53054
2.18449
-0.0185676
-1.95936
-3.60678
-4.97818
-6.11711
-7.07665
-7.89654
-8.60878
-9.23665
-9.79818
-10.3097
-10.7913
-11.2648
-11.7507
-12.2664
-12.8222
-13.4248
-14.0726
-14.7561
-15.4604
-16.1669
-16.852
-17.4962
-18.0777
-18.5807
-18.9869
-19.2882
-19.4828
-19.5778
-19.5903
-19.5498
-19.5016
-19.5253
12312.6
12308.9
12302.2
12305.8
12304.4
12319.9
12353.2
12398.3
12505.8
12531.6
12477.7
12193.1
134478
132765
129815
119471
-11.9629
1.07898
2.73737
5.12893
6.40422
6.73807
6.29692
5.18186
3.59765
1.77642
-0.0920813
-1.85127
-3.39816
-4.70683
-5.79268
-6.69887
-7.47463
-8.15527
-8.76584
-9.31975
-9.82119
-10.2807
-10.7149
-11.1438
-11.5908
-12.0761
-12.6111
-13.2038
-13.8504
-14.5416
-15.2582
-15.9791
-16.6791
-17.3364
-17.9264
-18.4314
-18.8345
-19.1258
-19.3038
-19.3741
-19.3532
-19.268
-19.1641
-19.1294
12298.9
12298.7
12297.6
12291.7
12290
12296.7
12423.3
12520.4
12381
12513.1
12406.7
86727.1
141123
139266
135838
53733.3
-16.1492
-3.22941
-0.433458
1.61786
2.72078
3.11141
2.87255
2.06816
0.867136
-0.542815
-1.9996
-3.37136
-4.57262
-5.57974
-6.41017
-7.10724
-7.71847
-8.27977
-8.80981
-9.30982
-9.76913
-10.193
-10.5933
-10.989
-11.4059
-11.8659
-12.3838
-12.9685
-13.6143
-14.311
-15.0369
-15.7685
-16.4798
-17.1458
-17.7395
-18.2421
-18.638
-18.9151
-19.0742
-19.1186
-19.0638
-18.9344
-18.7743
-18.6733
12289
12290.1
12290.9
12281.9
12279.5
12280.7
12496.4
12506.8
12355.1
12414.2
12484.7
142066
148231
145815
142006
10936.2
5.33561
-5.24025
-2.85841
-1.24857
-0.277915
0.14744
0.0540191
-0.509218
-1.39835
-2.46322
-3.56932
-4.60873
-5.50937
-6.25137
-6.85317
-7.36035
-7.82588
-8.28715
-8.75574
-9.21941
-9.65409
-10.057
-10.4352
-10.8086
-11.2031
-11.6429
-12.1475
-12.7247
-13.3678
-14.0661
-14.7962
-15.5328
-16.2483
-16.9147
-17.5053
-17.9999
-18.3834
-18.6426
-18.7794
-18.7973
-18.7108
-18.5422
-18.3298
-18.1582
12284.9
12284.4
12280.5
12277.2
12274.3
12272.6
12494.4
12303.2
12429.5
12371
12109.3
157430
155411
152402
149428
-23.6812
-10.1238
-7.04479
-4.92484
-3.55809
-2.69576
-2.24871
-2.23595
-2.61043
-3.24839
-4.02882
-4.84261
-5.6012
-6.2441
-6.75483
-7.15244
-7.48907
-7.82652
-8.20544
-8.62946
-9.07175
-9.4951
-9.88782
-10.2548
-10.6146
-10.9929
-11.4182
-11.912
-12.48
-13.1163
-13.8106
-14.5374
-15.2692
-15.9781
-16.634
-17.2118
-17.6903
-18.054
-18.291
-18.403
-18.3948
-18.2804
-18.0816
-17.8288
-17.5897
12283.6
12282.3
12277.9
12274
12271.8
12272.5
12328.1
12303.8
12426.6
12322
95965.8
164577
162513
158947
121801
-32.6907
-7.94369
-8.27733
-6.59718
-5.41862
-4.62417
-4.16173
-4.07087
-4.29682
-4.73399
-5.28664
-5.8627
-6.3874
-6.81301
-7.12579
-7.34664
-7.53425
-7.76146
-8.07572
-8.4701
-8.89998
-9.31785
-9.70651
-10.0691
-10.4218
-10.7907
-11.2065
-11.6899
-12.245
-12.8687
-13.5492
-14.2602
-14.9734
-15.6618
-16.2941
-16.8468
-17.2982
-17.6338
-17.8431
-17.9275
-17.8939
-17.7562
-17.5383
-17.2667
-16.9803
12326.7
12292.4
12277.9
12282.8
12269.7
12271.1
12282.2
12293.5
12418
12385.4
166632
172201
169578
165656
41744.5
-10.0422
-11.6252
-9.47295
-7.93414
-6.88098
-6.13235
-5.66392
-5.51687
-5.62777
-5.90948
-6.28272
-6.66821
-7.00321
-7.25048
-7.39964
-7.47492
-7.54015
-7.68288
-7.95469
-8.33025
-8.74674
-9.15419
-9.53632
-9.89643
-10.2482
-10.6149
-11.0249
-11.4963
-12.0325
-12.6334
-13.2852
-13.9631
-14.6402
-15.2907
-15.8842
-16.3977
-16.8105
-17.1094
-17.2855
-17.3403
-17.2819
-17.124
-16.8953
-16.6273
-16.3422
12293.7
12296.2
12280.3
12283.8
12269.4
12269.7
12276.1
12383.9
12326.6
12893.2
181859
179792
176597
172825
1803.78
-7.23953
-12.1523
-10.2868
-8.97237
-8.01013
-7.28977
-6.82409
-6.63806
-6.66307
-6.82521
-7.05796
-7.29308
-7.47801
-7.58384
-7.60437
-7.56788
-7.54499
-7.64271
-7.90116
-8.2613
-8.65153
-9.03366
-9.39934
-9.75438
-10.109
-10.4799
-10.888
-11.3456
-11.8545
-12.4165
-13.0194
-13.6428
-14.2635
-14.857
-15.395
-15.8557
-16.22
-16.476
-16.6157
-16.64
-16.5576
-16.3806
-16.1392
-15.8691
-15.6487
12382.8
12402.6
12289.4
12281.1
12273.2
12270.8
12276.3
12370.2
12328.9
147770
189659
187260
183537
181027
-23.5565
-13.2724
-12.7128
-10.975
-9.75288
-8.84962
-8.15166
-7.69863
-7.49013
-7.45095
-7.5239
-7.64782
-7.76563
-7.83491
-7.8323
-7.75589
-7.63353
-7.55219
-7.65197
-7.92072
-8.24026
-8.5795
-8.92255
-9.26339
-9.60634
-9.95666
-10.3269
-10.7305
-11.1754
-11.6602
-12.1829
-12.7309
-13.2881
-13.8371
-14.3584
-14.8276
-15.2247
-15.5339
-15.7448
-15.8468
-15.8458
-15.7588
-15.6027
-15.4238
-15.2631
-15.1697
14048.8
12593.8
12280
12275.7
12276.6
12273.9
12283.7
12310.6
12148.3
200043
197668
194645
190568
69256.5
-20.6896
-14.5862
-12.9368
-11.39
-10.2916
-9.43808
-8.77117
-8.34029
-8.11878
-8.03519
-8.04127
-8.083
-8.11165
-8.09239
-8.00953
-7.8593
-7.67121
-7.59486
-7.72541
-7.93545
-8.19766
-8.49112
-8.80062
-9.11794
-9.4447
-9.78147
-10.1369
-10.5209
-10.9395
-11.3887
-11.8659
-12.3613
-12.8599
-13.347
-13.8057
-14.2158
-14.5605
-14.8295
-15.0161
-15.1161
-15.1354
-15.095
-15.0055
-14.9003
-14.8039
-14.7387
14086.6
12541
12275.8
12275.4
12280.4
12277.1
12373.8
12299.5
121709
207823
205481
201950
198026
5092.29
-6.44079
-14.6244
-12.8875
-11.6012
-10.6098
-9.80856
-9.19094
-8.79133
-8.56638
-8.45394
-8.41081
-8.39133
-8.35242
-8.26879
-8.12693
-7.92455
-7.71739
-7.68479
-7.77628
-7.93785
-8.15284
-8.40477
-8.68083
-8.97207
-9.27803
-9.59609
-9.9325
-10.2944
-10.6839
-11.0961
-11.5301
-11.9764
-12.4223
-12.8571
-13.2657
-13.632
-13.9429
-14.1904
-14.3689
-14.4767
-14.5226
-14.5151
-14.4666
-14.4017
-14.3366
-14.2858
12231
13269.4
12317.7
12264.8
12288
12275.2
12309.5
12234.1
218462
216061
213111
209164
207627
-25.936
-14.7156
-14.4014
-12.7831
-11.6291
-10.7361
-10.0001
-9.44675
-9.08692
-8.86652
-8.73581
-8.65906
-8.59514
-8.50888
-8.37983
-8.19714
-7.97313
-7.77631
-7.75216
-7.80678
-7.92763
-8.10233
-8.31677
-8.5596
-8.82327
-9.10569
-9.40216
-9.71812
-10.0568
-10.4171
-10.7954
-11.1911
-11.5938
-11.9938
-12.3835
-12.7489
-13.0781
-13.3605
-13.5904
-13.7621
-13.8755
-13.9371
-13.954
-13.9345
-13.8985
-13.8573
-13.8194
12230.8
12225.3
12364.6
12313
12265.6
12338
12316.2
127320
226407
224082
220604
216487
70319.4
-19.2685
-15.4164
-13.9709
-12.5491
-11.5231
-10.7174
-10.0582
-9.57417
-9.25469
-9.04531
-8.90659
-8.8076
-8.7144
-8.59643
-8.43627
-8.2323
-7.99166
-7.83678
-7.78982
-7.81506
-7.90134
-8.0411
-8.22236
-8.43444
-8.67079
-8.92773
-9.20096
-9.49531
-9.80945
-10.1415
-10.4889
-10.8495
-11.2135
-11.5739
-11.9249
-12.2531
-12.5504
-12.8073
-13.0205
-13.1854
-13.3014
-13.3743
-13.4084
-13.4104
-13.3936
-13.3698
-13.3443
12228.8
12227.7
12234.5
12247.5
12276.4
12287.7
12132.9
237033
234848
231817
228005
224613
1056.43
-12.5931
-15.38
-13.5056
-12.2517
-11.3268
-10.6
-10.0154
-9.59869
-9.31871
-9.12558
-8.98638
-8.87574
-8.76453
-8.62655
-8.44936
-8.2425
-7.99242
-7.8595
-7.79686
-7.79798
-7.85631
-7.96696
-8.11895
-8.3028
-8.5121
-8.74334
-8.99358
-9.26492
-9.55382
-9.85893
-10.1771
-10.5051
-10.8349
-11.1609
-11.4775
-11.7736
-12.0434
-12.2783
-12.4767
-12.6346
-12.7502
-12.8296
-12.8758
-12.894
-12.8938
-12.8831
-12.8655
12226.3
12227.5
12230.4
12237.8
12263.9
12282.5
197204
245394
242880
239340
235384
190554
-35.9554
-14.1419
-14.6739
-13.0347
-11.8934
-11.0638
-10.4073
-9.89701
-9.54253
-9.30114
-9.12734
-8.99442
-8.88082
-8.75904
-8.60908
-8.4278
-8.21261
-7.98446
-7.84704
-7.77275
-7.75566
-7.79197
-7.87777
-8.00316
-8.16097
-8.34459
-8.55226
-8.78021
-9.02734
-9.29121
-9.57011
-9.86035
-10.1583
-10.4575
-10.7529
-11.0394
-11.3071
-11.5528
-11.769
-11.9543
-12.1043
-12.2177
-12.3005
-12.3545
-12.3841
-12.3964
-12.3962
-12.3853
12223.1
12226.8
12228.8
12274.9
12261.1
55876
255979
253756
250506
246818
243105
29843.1
-9.29519
-16.1079
-14.0016
-12.5124
-11.4863
-10.7411
-10.1517
-9.71764
-9.4234
-9.21897
-9.06618
-8.94518
-8.83372
-8.707
-8.55198
-8.37577
-8.13326
-7.93906
-7.8011
-7.71814
-7.68723
-7.70606
-7.77109
-7.87379
-8.00813
-8.16797
-8.35337
-8.55888
-8.78221
-9.02219
-9.27593
-9.53921
-9.80944
-10.0814
-10.3491
-10.6083
-10.8512
-11.0756
-11.2756
-11.4482
-11.5897
-11.7009
-11.7852
-11.8433
-11.8804
-11.9013
-11.9093
-11.9042
12215.8
12224.3
12277.3
12242.7
12067
266565
264479
261490
257993
254403
253449
-27.39
-15.5874
-15.1702
-13.2142
-11.9249
-11.0284
-10.364
-9.8521
-9.49427
-9.25677
-9.08726
-8.95673
-8.84882
-8.74187
-8.61507
-8.46241
-8.28915
-8.04471
-7.85967
-7.72325
-7.63454
-7.59349
-7.59842
-7.64618
-7.72951
-7.84231
-7.981
-8.14522
-8.32891
-8.52976
-8.74658
-8.97611
-9.21422
-9.45956
-9.7067
-9.94861
-10.1829
-10.4043
-10.6101
-10.7946
-10.955
-11.0885
-11.1968
-11.2809
-11.341
-11.3832
-11.4099
-11.4229
-11.4215
12198.2
12248
12230.9
12185.3
269671
275042
272282
268942
265614
262371
57755.4
-14.542
-14.6942
-13.6865
-12.2942
-11.2697
-10.5216
-9.94902
-9.52448
-9.24276
-9.05705
-8.91975
-8.80914
-8.71223
-8.61032
-8.48702
-8.34334
-8.1404
-7.92427
-7.74902
-7.61626
-7.52482
-7.47629
-7.4692
-7.5014
-7.56755
-7.66197
-7.78286
-7.92731
-8.08959
-8.26916
-8.4643
-8.67105
-8.88664
-9.10904
-9.3323
-9.55099
-9.76303
-9.96537
-10.1544
-10.3239
-10.4728
-10.5987
-10.7022
-10.7845
-10.846
-10.8918
-10.922
-10.9376
-10.9384
12178.8
12210
12209.8
277778
285443
282838
279713
276548
273437
272760
-28.1313
-14.2856
-14.311
-12.6006
-11.4454
-10.6027
-9.98337
-9.50689
-9.17411
-8.96263
-8.82307
-8.71644
-8.62515
-8.53774
-8.44143
-8.32682
-8.19469
-7.97252
-7.77498
-7.61011
-7.48112
-7.38916
-7.33523
-7.3185
-7.33795
-7.38949
-7.4682
-7.57207
-7.69778
-7.84056
-8.00108
-8.17608
-8.3618
-8.55698
-8.7577
-8.95882
-9.15668
-9.34874
-9.53333
-9.70637
-9.86191
-10.0003
-10.1178
-10.2154
-10.2953
-10.3569
-10.404
-10.4362
-10.4539
-10.4568
72593.8
55020.8
297305
295810
293305
290445
287534
284694
281846
49895.4
-14.4626
-15.1212
-13.4037
-11.8194
-10.7806
-10.0622
-9.53169
-9.14205
-8.88619
-8.72642
-8.6169
-8.52759
-8.44351
-8.3532
-8.25124
-8.1426
-7.99335
-7.78366
-7.59963
-7.44414
-7.31975
-7.22921
-7.17193
-7.14826
-7.15736
-7.19584
-7.26007
-7.34836
-7.45758
-7.58353
-7.7261
-7.88155
-8.04858
-8.22494
-8.4056
-8.5865
-8.76516
-8.93925
-9.10675
-9.26431
-9.40717
-9.53492
-9.64382
-9.73605
-9.81314
-9.87293
-9.91928
-9.95239
-9.97176
-9.97629
420769
420954
420922
420869
420791
420682
420543
420371
420153
419857
419445
418869
418077
417002
415546
413558
410780
406701
400032
388093
420391
420563
420527
420469
420383
420264
420113
419927
419696
419389
418964
418369
417544
416407
414841
412658
409525
404789
397071
383884
420040
420197
420159
420096
420004
419879
419720
419526
419291
418986
418567
417983
417167
416038
414477
412308
409245
404821
398330
389054
419716
419858
419818
419753
419658
419528
419366
419172
418941
418650
418256
417704
416934
415867
414402
412391
409629
405825
400642
393874
419420
419548
419507
419441
419344
419214
419054
418865
418649
418380
418018
417512
416807
415835
414511
412725
410333
407168
403075
398026
419152
419266
419226
419160
419063
418937
418783
418608
418409
418163
417832
417373
416738
415869
414698
413144
411108
408490
405218
401309
418913
419014
418975
418910
418816
418699
418558
418398
418213
417982
417676
417258
416687
415915
414888
413541
411809
409627
406958
403822
418701
418790
418753
418690
418606
418501
418373
418223
418045
417825
417539
417155
416639
415951
415046
413874
412389
410545
408320
405730
418512
418592
418558
418505
418434
418337
418215
418070
417897
417686
417415
417061
416591
415972
415166
414137
412848
411269
409381
407194
418341
418416
418396
418360
418294
418199
418078
417934
417764
417557
417299
416968
416537
415974
415248
414332
413204
411837
410216
408340
418179
418264
418274
418246
418179
418080
417957
417812
417643
417439
417187
416873
416474
415957
415293
414466
413470
412284
410886
409265
418069
418140
418180
418161
418089
417981
417847
417698
417527
417323
417070
416768
416399
415914
415283
414499
413611
412598
411354
409858
59226.9
417903
418148
418159
417986
417770
417756
417615
417462
417268
417010
416706
416224
415049
413047
408241
399464
384424
358619
325788
6.04954
-1.28381
-0.941044
-1.35889
-1.17791
-1.46415
-2.11744
-3.19639
-4.56935
-6.23424
-8.22636
-10.1495
-12.4047
-15.2047
-17.8858
-22.0269
-23.5106
-25.4445
-24.5411
0.203386
-2.34109
-1.99824
-0.234295
0.202999
0.361598
0.372348
0.274771
0.0902259
-0.155782
-0.447629
-0.767531
-1.06639
-1.38468
-1.73828
-2.09565
-2.51316
-2.7082
-2.8326
-2.52966
-1.61362
-1.08381
-1.07423
-0.340858
0.00333734
0.166796
0.23074
0.225192
0.161287
0.0475325
-0.108918
-0.3017
-0.520698
-0.768415
-1.04536
-1.34583
-1.66459
-1.93188
-2.12822
-2.15126
-1.97201
-0.928865
-0.891284
-0.54309
-0.29466
-0.142226
-0.0667824
-0.0523137
-0.0881554
-0.166087
-0.280008
-0.424344
-0.592486
-0.781126
-0.987373
-1.2046
-1.42038
-1.60834
-1.74794
-1.81717
-1.84233
-0.967872
-0.726332
-0.562209
-0.422042
-0.319733
-0.262578
-0.247614
-0.269869
-0.324612
-0.407896
-0.51589
-0.643955
-0.788041
-0.944554
-1.10772
-1.26808
-1.4123
-1.52907
-1.61355
-1.67891
-1.04318
-0.690807
-0.561049
-0.486658
-0.42824
-0.39594
-0.390241
-0.409296
-0.451382
-0.514734
-0.596777
-0.694514
-0.804855
-0.924583
-1.04956
-1.17341
-1.28827
-1.38815
-1.47201
-1.54607
-1.11699
-0.699003
-0.573011
-0.534079
-0.5062
-0.494711
-0.499437
-0.519623
-0.554961
-0.605149
-0.668996
-0.744836
-0.830794
-0.924405
-1.02266
-1.1215
-1.2161
-1.3031
-1.38213
-1.45602
-1.18518
-0.743705
-0.60307
-0.583887
-0.576406
-0.579195
-0.591277
-0.612671
-0.643785
-0.684893
-0.735871
-0.796125
-0.864597
-0.939809
-1.01972
-1.1015
-1.18198
-1.25919
-1.33319
-1.40524
-1.20993
-0.793128
-0.653854
-0.645451
-0.651088
-0.661557
-0.676584
-0.697027
-0.723924
-0.758005
-0.799699
-0.848905
-0.904986
-0.967161
-1.03427
-1.10437
-1.17531
-1.24585
-1.31598
-1.38614
-1.10783
-0.826945
-0.728958
-0.724952
-0.735714
-0.747399
-0.761227
-0.778522
-0.800529
-0.828335
-0.862785
-0.904019
-0.95152
-1.00475
-1.06304
-1.1252
-1.18984
-1.25605
-1.32353
-1.39213
-0.858501
-0.847165
-0.818994
-0.821184
-0.829402
-0.838188
-0.848376
-0.861549
-0.878879
-0.901425
-0.930078
-0.965136
-1.00628
-1.0531
-1.10523
-1.16187
-1.22201
-1.28489
-1.35
-1.41685
340708
335053
339983
348706
357443
364386
369076
371738
372784
372538
371146
368546
364335
357286
343438
359133
343001
342352
348663
356243
362495
366807
369295
370263
369938
368409
365580
361103
354260
344012
376093
362241
356424
357305
360997
364837
367698
369339
369802
369156
367405
364450
360083
354032
346195
385716
376852
370800
368381
368418
369444
370433
370895
370622
369522
367518
364521
360434
355213
349006
392167
385838
380680
377297
375471
374586
374029
373366
372323
370728
368467
365460
361664
357114
351979
396826
391897
387471
383932
381305
379362
377784
376273
374595
372579
370105
367100
363539
359469
355027
400236
396203
392349
388927
386020
383562
381395
379339
377221
374901
372272
369269
365870
362076
357905
402765
399370
395990
392798
389880
387232
384783
382431
380058
377553
374823
371774
368331
364861
331888
404686
401777
398806
395897
393113
390471
387949
385494
383006
380354
377433
374725
328061
53506.8
-15.6582
406184
403662
401052
398459
395897
393375
390855
388345
385837
383920
299572
14220.8
-12.3174
3.66405
-3.87291
407391
405170
402835
400558
398167
395807
393768
371761
200791
-72.6781
1.24237
1.15314
-3.31438
-5.03149
-4.91257
408142
406203
404298
401540
360939
208602
-70.3396
-5.51813
0.991479
-0.24842
-4.47938
-5.06692
-4.42817
-4.14759
-4.14019
253968
114738
9171.45
-43.7032
-7.48147
4.12815
-0.115507
-3.32786
-5.04161
-4.15942
-3.82293
-3.80931
-3.70493
-3.66253
-3.67197
8.5208
5.92443
4.59873
-2.88022
-2.35335
-4.19899
-3.7098
-3.59092
-3.51954
-3.34147
-3.28268
-3.27918
-3.26154
-3.26536
-3.29672
-3.14748
-3.66793
-3.21951
-3.37492
-3.02304
-2.96795
-2.92263
-2.96288
-2.96793
-2.93361
-2.91293
-2.9167
-2.93258
-2.96427
-3.01195
-2.14796
-2.41677
-2.49301
-2.59531
-2.58727
-2.58589
-2.59091
-2.61195
-2.6261
-2.63198
-2.64204
-2.6641
-2.69749
-2.74299
-2.79923
-1.9376
-2.0765
-2.17769
-2.25586
-2.29394
-2.31747
-2.34169
-2.37054
-2.3983
-2.42388
-2.45205
-2.48731
-2.53116
-2.58358
-2.64256
-1.75668
-1.85453
-1.94549
-2.02237
-2.08035
-2.12549
-2.16567
-2.20506
-2.2438
-2.28191
-2.32156
-2.36577
-2.4161
-2.4714
-2.52989
-1.62177
-1.70704
-1.79076
-1.86775
-1.93468
-1.99249
-2.04438
-2.09347
-2.14132
-2.18828
-2.23557
-2.28588
-2.33984
-2.39559
-2.45208
-1.53065
-1.61185
-1.69215
-1.76933
-1.84115
-1.9067
-1.96706
-2.0239
-2.07858
-2.13168
-2.18412
-2.23802
-2.2932
-2.34784
-2.40146
-1.4787
-1.55793