/*--------------------------------*- C++ -*----------------------------------*\
| =========                 |                                                 |
| \\      /  F ield         | OpenFOAM: The Open Source CFD Toolbox           |
|  \\    /   O peration     | Version:  v1912                                 |
|   \\  /    A nd           | Website:  www.openfoam.com                      |
|    \\/     M anipulation  |                                                 |
\*---------------------------------------------------------------------------*/
FoamFile
{
    version     2.0;
    format      ascii;
    class       surfaceScalarField;
    location    "14";
    object      phi;
}
// * * * * * * * * * * * * * * * * * * * * * * * * * * * * * * * * * * * * * //

dimensions      [0 3 -1 0 0 0 0];
oriented        oriented;


internalField   nonuniform List<scalar> 
40282
(
0.0028476
0.0025131
1.94442
-1.95132
1.94625
0.0050729
-1.93783
1.92645
0.0113758
-1.91244
1.8958
0.0166385
-1.87636
1.85435
0.0220116
-1.83015
1.80351
0.026644
-1.77435
1.74328
0.0310634
-1.71037
1.67533
0.0350387
-1.63851
1.60019
0.0383113
-1.56028
1.51896
0.0413214
-1.47657
1.43325
0.0433257
-1.38933
1.3453
0.0440288
-1.30139
1.258
0.0433919
-1.21563
1.17371
0.0419208
-1.12984
1.08022
0.0496163
-1.0208
0.948029
0.0727705
-0.858989
0.752258
0.106731
-0.627635
0.484689
0.142946
-0.327959
0.175824
0.152136
-0.0553849
-0.0113155
0.0667004
-0.00399117
0.00530866
1.87861
-1.87444
1.86794
-0.0132613
0.0197683
-1.85888
1.84724
-0.0239224
0.0355623
-1.83302
1.81626
-0.0341965
0.0509615
-1.79704
1.77543
-0.0440794
0.0656948
-1.75141
1.72517
-0.0534229
0.0796634
-1.69679
1.66616
-0.0621873
0.0928176
-1.63345
1.59885
-0.0702414
0.104845
-1.56224
1.5238
-0.0772785
0.115721
-1.48374
1.44192
-0.0835302
0.125351
-1.39858
1.35423
-0.0884183
0.132768
-1.30869
1.26173
-0.0908966
0.137862
-1.21333
1.16234
-0.0916806
0.142671
-1.10634
1.04358
-0.0966699
0.15943
-0.974209
0.89966
-0.116021
0.19057
-0.821656
0.741669
-0.151991
0.231978
-0.660898
0.580361
-0.197263
0.2778
-0.501149
0.424506
-0.237711
0.314354
-0.350454
0.275593
-0.239822
0.314683
-0.194475
0.103464
-0.164324
0.255336
-0.00666917
0.00797172
1.81127
-1.80726
1.80077
-0.0265685
0.0330627
-1.79174
1.78021
-0.0474866
0.0590233
-1.76624
1.74985
-0.0678924
0.0842861
-1.73101
1.70982
-0.0875287
0.108718
-1.68629
1.66042
-0.106158
0.132031
-1.63237
1.60217
-0.123757
0.153954
-1.56973
1.53524
-0.140021
0.174508
-1.49886
1.46042
-0.154707
0.193152
-1.42011
1.37837
-0.167918
0.209658
-1.33492
1.28951
-0.178148
0.223559
-1.24232
1.1923
-0.186721
0.236737
-1.13743
1.07684
-0.200343
0.260932
-1.01127
0.942036
-0.228639
0.297875
-0.870326
0.797161
-0.266785
0.33995
-0.723464
0.65011
-0.310204
0.383558
-0.577907
0.50749
-0.353721
0.424137
-0.43915
0.372553
-0.385481
0.452078
-0.30644
0.238587
-0.386211
0.454064
-0.166352
0.0874687
-0.341665
0.420548
-0.00921296
0.0104609
1.7464
-1.74267
1.73642
-0.0395129
0.0457593
-1.72774
1.71663
-0.0705369
0.0816458
-1.70304
1.68704
-0.10082
0.116823
-1.6687
1.64798
-0.130078
0.150797
-1.62494
1.59967
-0.158111
0.183382
-1.57207
1.54218
-0.184607
0.214502
-1.51024
1.47622
-0.209403
0.243429
-1.43994
1.4018
-0.232323
0.27047
-1.36194
1.31994
-0.252253
0.294251
-1.27586
1.22958
-0.270264
0.316539
-1.17959
1.12448
-0.29044
0.345546
-1.06455
1.00103
-0.324947
0.388462
-0.935149
0.867796
-0.367827
0.43518
-0.79964
0.731241
-0.412054
0.480452
-0.66311
0.595709
-0.454996
0.522398
-0.529404
0.464391
-0.492737
0.55775
-0.400596
0.337592
-0.517823
0.580828
-0.27457
0.210431
-0.521149
0.585288
-0.143986
0.0741771
-0.495697
0.565506
-0.0116686
0.0128683
1.68383
-1.68024
1.67428
-0.0519768
0.0579408
-1.6659
1.65512
-0.0928135
0.103594
-1.64204
1.62665
-0.132814
0.148205
-1.60887
1.5888
-0.171608
0.191686
-1.56647
1.54181
-0.208826
0.233492
-1.5149
1.48594
-0.244514
0.273474
-1.45473
1.4212
-0.277884
0.31142
-1.3858
1.34856
-0.30888
0.346113
-1.30905
1.26742
-0.337026
0.378656
-1.22339
1.17536
-0.364401
0.412423
-1.1224
1.06515
-0.403191
0.46044
-1.00492
0.942809
-0.452715
0.514827
-0.879546
0.815637
-0.502061
0.565969
-0.751473
0.687386
-0.547807
0.611894
-0.623666
0.560548
-0.588674
0.651792
-0.498183
0.436601
-0.622044
0.683626
-0.375678
0.31512
-0.643658
0.704216
-0.254478
0.193196
-0.649049
0.710331
-0.130688
0.066414
-0.633436
0.69771
-0.0140071
0.0151284
1.62365
-1.62006
1.61434
-0.0638968
0.0696193
-1.60636
1.59618
-0.114287
0.124465
-1.58372
1.56893
-0.163589
0.178385
-1.55192
1.53275
-0.211701
0.230874
-1.51128
1.48762
-0.25817
0.281838
-1.46189
1.43387
-0.302464
0.33048
-1.40355
1.37139
-0.34499
0.377146
-1.33737
1.30102
-0.383633
0.419986
-1.2625
1.22155
-0.420648
0.461597
-1.17666
1.12699
-0.462319
0.511995
-1.07324
1.0167
-0.518624
0.575163
-0.958389
0.898951
-0.576776
0.636213
-0.838813
0.778279
-0.629287
0.689821
-0.717598
0.656979
-0.67529
0.735908
-0.596598
0.536583
-0.714369
0.774384
-0.477001
0.417842
-0.745009
0.804168
-0.359013
0.300337
-0.764865
0.823541
-0.241567
0.182409
-0.771572
0.83073
-0.122563
0.0617556
-0.761199
0.822006
-0.016196
0.0172502
1.56527
-1.56222
1.55689
-0.0752722
0.080604
-1.54947
1.53986
-0.13453
0.144139
-1.52804
1.51417
-0.193038
0.206907
-1.49824
1.48009
-0.249896
0.268053
-1.45977
1.43745
-0.305277
0.327601
-1.41292
1.38613
-0.358468
0.385253
-1.35753
1.32711
-0.409014
0.439436
-1.29435
1.25938
-0.456413
0.491385
-1.2221
1.18113
-0.503238
0.544212
-1.13547
1.08571
-0.56283
0.612591
-1.03307
0.978557
-0.631803
0.68632
-0.922795
0.866176
-0.6953
0.751919
-0.808962
0.751358
-0.74992
0.807524
-0.693535
0.635639
-0.796175
0.854072
-0.577786
0.52006
-0.834255
0.891981
-0.462502
0.405108
-0.863448
0.920842
-0.347825
0.290556
-0.882523
0.939791
-0.23317
0.175514
-0.890133
0.94779
-0.117436
0.0588271
-0.882671
0.94128
-0.0182455
0.0192078
1.50936
-1.50658
1.5017
-0.0857951
0.0906684
-1.4948
1.48586
-0.153618
0.162551
-1.47505
1.46232
-0.220447
0.233174
-1.44747
1.43054
-0.285965
0.302896
-1.41172
1.39087
-0.349595
0.370445
-1.36785
1.343
-0.411616
0.436465
-1.31642
1.28757
-0.469626
0.498467
-1.25647
1.22325
-0.526117
0.559342
-1.18674
1.14569
-0.586018
0.62706
-1.10037
1.05189
-0.662731
0.711204
-1.0013
0.949248
-0.7406
0.792655
-0.896112
0.842141
-0.808194
0.862165
-0.787518
0.732391
-0.864863
0.91999
-0.67689
0.621128
-0.91187
0.967632
-0.565197
0.509164
-0.94983
1.00586
-0.453069
0.396928
-0.978581
1.03472
-0.340723
0.284416
-0.997547
1.05385
-0.227946
0.171245
-1.00591
1.06261
-0.114248
0.0569583
-1.00013
1.05742
-0.0200929
0.0209298
1.45536
-1.45269
1.44825
-0.0954148
0.0998578
-1.44199
1.43403
-0.171178
0.17913
-1.42436
1.41272
-0.245581
0.25722
-1.39913
1.38383
-0.319357
0.334658
-1.36673
1.34757
-0.390849
0.410006
-1.32658
1.30397
-0.460642
0.483247
-1.2793
1.25236
-0.526959
0.553898
-1.22344
1.19176
-0.592351
0.624037
-1.15585
1.11549
-0.668622
0.708988
-1.07159
1.02523
-0.75956
0.805921
-0.977112
0.927636
-0.844355
0.893831
-0.877049
0.825519
-0.915855
0.967385
-0.773183
0.72016
-0.975013
1.02804
-0.666556
0.612469
-1.02351
1.0776
-0.557982
0.503163
-1.06225
1.11706
-0.448064
0.39272
-1.09142
1.14677
-0.337149
0.281356
-1.11085
1.16664
-0.225332
0.169063
-1.11997
1.17624
-0.112538
0.0558663
-1.11521
1.17188
-0.0216885
0.0223997
1.40344
-1.40107
1.39715
-0.104134
0.10805
-1.39175
1.38487
-0.186681
0.19357
-1.37625
1.36587
-0.268477
0.278861
-1.35396
1.34053
-0.349301
0.362731
-1.32525
1.30815
-0.42852
0.445625
-1.28955
1.26919
-0.505133
0.525486
-1.24666
1.2222
-0.580144
0.604605
-1.19551
1.16516
-0.655625
0.685977
-1.13032
1.09156
-0.74939
0.788155
-1.04989
1.00611
-0.851867
0.895653
-0.960649
0.913772
-0.942896
0.989773
-0.865635
0.81636
-1.01869
1.06797
-0.766054
0.714817
-1.08109
1.13233
-0.662745
0.609928
-1.13198
1.1848
-0.55645
0.502387
-1.17244
1.22651
-0.447809
0.392773
-1.20289
1.25793
-0.337333
0.28153
-1.22335
1.27915
-0.2254
0.168969
-1.23339
1.28982
-0.112268
0.0555372
-1.22928
1.28601
-0.0230395
0.0236317
1.35319
-1.35117
1.34793
-0.111707
0.114942
-1.34348
1.3376
-0.200068
0.205945
-1.33018
1.32144
-0.288649
0.297392
-1.31148
1.29996
-0.375435
0.38695
-1.28672
1.27207
-0.46184
0.476488
-1.25604
1.2381
-0.545028
0.562962
-1.21825
1.19657
-0.62812
0.649794
-1.17201
1.14325
-0.716137
0.744887
-1.11029
1.07398
-0.826483
0.862799
-1.03514
0.994276
-0.938797
0.979656
-0.95167
0.907468
-1.03617
1.08037
-0.861772
0.81467
-1.11704
1.16414
-0.766246
0.716586
-1.18368
1.23334
-0.665775
0.613903
-1.23807
1.28994
-0.561056
0.507324
-1.28134
1.33507
-0.452794
0.397552
-1.314
1.36924
-0.341686
0.28528
-1.33614
1.39255
-0.228411
0.171146
-1.34737
1.40464
-0.113563
0.0561169
-1.3438
1.40124
-0.0241518
0.0246144
1.30484
-1.30305
1.30056
-0.117859
0.120349
-1.297
1.2922
-0.211402
0.216204
-1.28628
1.27944
-0.305346
0.312189
-1.27144
1.26193
-0.397677
0.407184
-1.2511
1.23921
-0.490029
0.501914
-1.22589
1.21076
-0.579862
0.594994
-1.19402
1.1752
-0.670424
0.689245
-1.15291
1.12644
-0.77311
0.799582
-1.09624
1.06311
-0.898251
0.931382
-1.02761
0.990049
-1.01964
1.05721
-0.950558
0.909214
-1.12396
1.16531
-0.866074
0.821191
-1.211
1.25589
-0.774624
0.726442
-1.28317
1.33135
-0.676717
0.625533
-1.34239
1.39358
-0.57298
0.519155
-1.38978
1.44361
-0.464169
0.408137
-1.4258
1.48184
-0.351186
0.293448
-1.4505
1.50824
-0.235054
0.176127
-1.46338
1.5223
-0.116816
0.0579932
-1.46041
1.51923
-0.0249971
0.0253091
1.25838
-1.25706
1.2553
-0.122508
0.124264
-1.25266
1.24912
-0.220478
0.224018
-1.24492
1.24001
-0.318168
0.323075
-1.23398
1.22673
-0.415755
0.423001
-1.21866
1.2097
-0.512541
0.521494
-1.1993
1.18739
-0.608821
0.620734
-1.17401
1.15818
-0.706928
0.722764
-1.13868
1.11534
-0.82506
0.848395
-1.08875
1.05949
-0.963242
0.992501
-1.02789
0.994083
-1.09362
1.12743
-0.958104
0.919962
-1.20584
1.24399
-0.879662
0.837218
-1.3004
1.34285
-0.792653
0.746004
-1.37966
1.42631
-0.697322
0.64667
-1.44543
1.49608
-0.594133
0.539809
-1.49863
1.55296
-0.483824
0.426324
-1.53955
1.59705
-0.367478
0.307481
-1.568
1.628
-0.246539
0.184861
-1.58325
1.64493
-0.122745
0.0618776
-1.58122
1.64209
-0.0255351
0.0256816
1.21326
-1.21259
1.21155
-0.125691
0.126738
-1.20989
1.20778
-0.226914
0.229029
-1.20536
1.20233
-0.327107
0.330131
-1.19836
1.19368
-0.429111
0.433796
-1.18857
1.18265
-0.529083
0.535011
-1.17543
1.16706
-0.631099
0.639466
-1.15723
1.14475
-0.73725
0.749735
-1.12879
1.10949
-0.870221
0.889522
-1.08733
1.06267
-1.02006
1.04472
-1.03563
1.00622
-1.15973
1.18914
-0.974366
0.940022
-1.281
1.31534
-0.903125
0.863631
-1.38466
1.42416
-0.821507
0.776739
-1.47294
1.51771
-0.729327
0.679293
-1.54739
1.59742
-0.626688
0.571591
-1.60866
1.66375
-0.514123
0.454448
-1.65663
1.7163
-0.392781
0.329388
-1.69065
1.75404
-0.264584
0.198726
-1.70948
1.77534
-0.132412
0.0689063
-1.70915
1.77265
-0.0257427
0.0257224
1.17002
-1.16981
1.16947
-0.127445
0.127787
-1.16887
1.16824
-0.230428
0.231063
-1.16754
1.16636
-0.332268
0.333442
-1.16461
1.16267
-0.437181
0.439118
-1.16058
1.15774
-0.539483
0.54232
-1.15395
1.14933
-0.646097
0.65071
-1.14328
1.13468
-0.760546
0.769148
-1.12306
1.10863
-0.9068
0.921227
-1.09171
1.07242
-1.0672
1.08649
-1.05073
1.02654
-1.21656
1.24076
-0.999682
0.970025
-1.34807
1.37772
-0.937429
0.901768
-1.46257
1.49823
-0.862928
0.820804
-1.56208
1.60421
-0.775309
0.726378
-1.64791
1.69684
-0.673978
0.618118
-1.72029
1.77615
-0.558865
0.496361
-1.77846
1.84096
-0.43084
0.362643
-1.8209
1.88909
-0.292233
0.220222
-1.84539
1.9174
-0.147806
0.0811084
-1.84825
1.91495
-0.0256237
0.0254469
1.12827
-1.1283
1.12867
-0.127774
0.127411
-1.12915
1.12995
-0.230971
0.23018
-1.13085
1.13152
-0.333698
0.333027
-1.13209
1.13291
-0.439678
0.43886
-1.13374
1.13403
-0.543617
0.543322
-1.1338
1.13306
-0.653446
0.654189
-1.13104
1.12687
-0.775718
0.779887
-1.1203
1.11149
-0.933148
0.941959
-1.10056
1.08748
-1.10309
1.11617
-1.07207
1.05411
-1.26237
1.28032
-1.03339
1.00965
-1.40509
1.42883
-0.982679
0.952241
-1.5321
1.56254
-0.918105
0.880038
-1.64528
1.68334
-0.83781
0.791199
-1.74572
1.79233
-0.740005
0.68407
-1.83324
1.88917
-0.623303
0.557714
-1.90624
1.97183
-0.487459
0.412896
-1.96178
2.03634
-0.334648
0.253728
-1.99574
2.07666
-0.172452
0.102142
-2.00498
2.07529
-0.0252026
0.0248868
1.088
-1.08863
1.08968
-0.126686
0.125637
-1.0912
1.09329
-0.228693
0.226602
-1.09569
1.09817
-0.331413
0.328931
-1.10101
1.10443
-0.436674
0.433251
-1.10804
1.11144
-0.541432
0.538037
-1.11476
1.1179
-0.652961
0.649818
-1.12013
1.12081
-0.781706
0.781028
-1.1198
1.11718
-0.947844
0.950468
-1.1129
1.1068
-1.12604
1.13214
-1.09862
1.08804
-1.295
1.30557
-1.07477
1.05849
-1.44942
1.4657
-1.03887
1.01559
-1.59019
1.61348
-0.988258
0.956496
-1.71926
1.75102
-0.919874
0.877935
-1.83783
1.87976
-0.830201
0.776196
-1.94556
1.99956
-0.715476
0.647685
-2.04007
2.10786
-0.57264
0.49046
-2.1165
2.19868
-0.401756
0.307971
-2.1673
2.26108
-0.213259
0.139123
-2.1893
2.26344
-0.0245161
0.0240824
1.04903
-1.05003
1.05171
-0.124236
0.122553
-1.05415
1.05738
-0.22387
0.22064
-1.06114
1.06532
-0.325516
0.321331
-1.07025
1.07601
-0.428536
0.422775
-1.08217
1.08852
-0.53305
0.526708
-1.09522
1.10213
-0.644674
0.637768
-1.10864
1.11434
-0.777784
0.772087
-1.11914
1.12302
-0.949848
0.945964
-1.12585
1.12736
-1.13454
1.13303
-1.12724
1.12514
-1.31216
1.31426
-1.12071
1.11358
-1.47784
1.48497
-1.10336
1.08964
-1.63266
1.64638
-1.07193
1.04969
-1.77899
1.80122
-1.02231
0.98904
-1.9187
1.95196
-0.949061
0.901423
-2.05212
2.09976
-0.845081
0.778934
-2.17698
2.24313
-0.701929
0.613261
-2.28693
2.3756
-0.512745
0.401622
-2.36951
2.48063
-0.286481
0.206297
-2.42
2.50018
-0.0236067
0.0230776
1.01155
-1.01305
1.01528
-0.120547
0.118314
-1.0185
1.02269
-0.216839
0.212652
-1.02762
1.03331
-0.316272
0.31058
-1.04005
1.04781
-0.415844
0.408083
-1.05623
1.06522
-0.518852
0.509856
-1.07498
1.08536
-0.628919
0.618544
-1.09594
1.10651
-0.763765
0.753197
-1.11702
1.12738
-0.938682
0.92832
-1.13741
1.14682
-1.12748
1.11807
-1.15528
1.16246
-1.31175
1.30457
-1.168
1.17154
-1.48697
1.48343
-1.1727
1.17105
-1.65452
1.65617
-1.1661
1.15726
-1.81756
1.8264
-1.14382
1.1249
-1.97935
1.99827
-1.09942
1.066
-2.14231
2.17572
-1.02295
0.968168
-2.30666
2.36145
-0.899137
0.813009
-2.46799
2.55412
-0.706869
0.578956
-2.6117
2.73962
-0.436275
0.340928
-2.73196
2.82731
-0.0225195
0.0219178
0.975537
-0.977117
0.979796
-0.115798
0.113118
-0.983627
0.988575
-0.207976
0.203028
-0.994484
1.00141
-0.304116
0.297186
-1.0096
1.01897
-0.399309
0.389937
-1.02926
1.04048
-0.4995
0.488277
-1.05281
1.06617
-0.606389
0.593034
-1.08035
1.09529
-0.740124
0.725179
-1.111
1.12738
-0.914618
0.898235
-1.14426
1.16136
-1.1045
1.0874
-1.17841
1.1951
-1.2924
1.27571
-1.21115
1.22627
-1.47399
1.45887
-1.24017
1.25254
-1.6509
1.63854
-1.263
1.27113
-1.82714
1.81901
-1.27641
1.27814
-2.00777
2.00604
-1.27544
1.2671
-2.19848
2.20683
-1.25145
1.22619
-2.40527
2.43053
-1.18806
1.13247
-2.63342
2.68902
-1.0527
0.93944
-2.88391
2.99717
-0.789031
0.702218
-3.18194
3.26876
-0.249096
0.570177
-0.32108
0.686592
-0.956254
0.269662
1.12095
-1.2243
0.103354
1.303
-1.37563
0.0726272
1.39809
-1.2851
-0.112995
1.06484
-0.825526
-0.239311
0.624498
-0.498467
-0.126031
0.434471
-0.407996
-0.0264751
0.417455
-0.469306
0.0518507
0.571397
-0.728292
0.156894
0.943092
-1.22048
0.277386
1.55572
-1.93394
0.378216
2.33794
-2.76086
0.422923
3.18722
-3.55795
0.370724
3.73119
-3.35606
-0.375128
2.24494
-0.830819
-1.41412
-0.410375
1.4446
-1.03422
-2.30784
3.03827
-0.73043
-3.66405
4.20262
-0.53857
-4.66432
5.05547
-0.39115
-5.38061
5.64427
-0.26366
-5.85151
6.00848
-0.156975
-6.12189
6.19892
-0.0770269
-6.24632
6.27073
-0.0244069
-6.27754
6.26958
0.0079607
-6.2516
6.22734
0.024255
-6.19909
6.16862
0.030467
-6.13729
6.10604
0.0312499
-6.07547
6.04598
0.0294829
-6.01787
5.99137
0.0265077
-5.96662
5.94372
0.0229033
-5.92265
5.90332
0.0193288
-5.88562
5.8694
0.0162179
-5.85453
5.84087
0.0136639
-5.82828
5.81665
0.0116343
-5.80584
5.79577
0.010078
-5.7863
5.77735
0.00895107
-5.76879
5.76052
0.0082751
-5.75243
5.74447
0.00796546
-5.73659
5.72879
0.00779882
-5.72111
5.71359
0.00751987
-5.70628
5.69919
0.00708996
-5.69232
5.68564
0.00667614
-5.67917
5.67293
0.00624038
-5.66692
5.66118
0.00574232
-5.65563
5.65029
0.00534891
-5.64506
5.64
0.00505142
-5.6351
5.63039
0.00470952
-5.62586
5.62149
0.0043701
-5.61731
5.61326
0.00404602
-5.60947
5.60585
0.00361282
-5.60252
5.59936
0.00315349
-5.59647
5.59379
0.00267094
-5.59146
5.58943
0.00202739
-5.58771
5.5862
0.00150853
-5.58485
5.58364
0.00120808
-5.58258
5.58155
0.00102544
-5.58045
5.5792
0.00124751
-5.57763
5.57654
0.0010882
-5.57493
5.57466
0.000272255
-0.89395
1.17898
-0.285026
0.499205
-0.66681
-0.486514
0.654119
0.805295
-0.906552
-0.201834
0.303091
0.97092
-1.01033
-0.117242
0.156657
1.02619
-0.940345
0.185545
-0.271395
0.78253
-0.631832
0.426177
-0.576876
0.513018
-0.416927
0.241738
-0.337829
0.350106
-0.316213
0.0557204
-0.0896131
0.313415
-0.341239
-0.0913594
0.119184
0.401636
-0.497166
-0.277889
0.373419
0.628208
-0.798309
-0.490469
0.66057
1.01145
-1.26539
-0.678165
0.932104
1.54607
-1.82714
-0.739109
1.02017
2.07989
-2.25836
-0.59599
0.774463
2.30543
-2.14171
0.563078
-0.726796
1.62174
-0.786312
2.46579
-3.30122
-0.154787
1.05361
1.99859
-2.89741
-1.86852
2.59393
1.45944
-2.18485
-3.23485
3.79835
1.08927
-1.65278
-4.28987
4.71325
0.798456
-1.22183
-5.07172
5.36828
0.545224
-0.841789
-5.60756
5.79457
0.331105
-0.518122
-5.93587
6.03852
0.169
-0.271656
-6.10985
6.15642
0.0616863
-0.108257
-6.18398
6.19769
-0.00380545
-0.00989576
-6.20016
6.19517
-0.0373722
0.042368
-6.18534
6.17269
-0.0507116
0.0633627
-6.15857
6.14389
-0.0530459
0.0677222
-6.12928
6.11507
-0.0502768
0.0644889
-6.10151
6.08881
-0.0451271
0.057828
-6.07704
6.06627
-0.0388393
0.0496077
-6.05654
6.0478
-0.0325731
0.0413201
-6.03998
6.03302
-0.0270879
0.0340475
-6.02683
6.02129
-0.0226151
0.0281545
-6.0163
6.01177
-0.019133
0.0236648
-6.00761
6.00373
-0.0165403
0.0204197
-6.00006
5.99656
-0.0147175
0.0182227
-5.99316
5.98982
-0.0136337
0.0169705
-5.9865
5.98314
-0.0132067
0.0165736
-5.97968
5.97613
-0.0130746
0.0166241
-5.9725
5.96884
-0.0127319
0.0163863
-5.96522
5.96165
-0.0120796
0.0156503
-5.95812
5.9546
-0.011476
0.0149927
-5.95109
5.94763
-0.0108218
0.0142866
-5.94424
5.94096
-0.0100155
0.013303
-5.93776
5.9346
-0.00939367
0.0125578
-5.93145
5.92829
-0.00897239
0.0121315
-5.92515
5.92208
-0.00843422
0.0115105
-5.9191
5.91621
-0.00783038
0.0107158
-5.91341
5.9107
-0.00726266
0.00997169
-5.90808
5.90562
-0.00650376
0.00896514
-5.90331
5.90117
-0.00567622
0.00782342
-5.89912
5.8972
-0.00487428
0.00680211
-5.89542
5.89388
-0.00374278
0.00528337
-5.89258
5.89149
-0.00275747
0.00385465
-5.8905
5.88961
-0.0022117
0.00310478
-5.88885
5.88823
-0.00178454
0.00239682
-5.88763
5.88681
-0.00225992
0.00308435
-5.88568
5.88419
-0.00253829
0.00403207
-5.88293
5.88168
-0.00130505
0.002548
-1.41927
1.61259
-0.193329
0.36129
-0.46003
-0.781913
0.880653
0.560542
-0.65821
-0.404811
0.502478
0.734764
-0.727356
-0.192745
0.185337
0.579091
-0.447791
0.427428
-0.558728
0.397594
-0.342909
0.655676
-0.710361
0.282726
-0.225584
0.405807
-0.462949
0.188423
-0.172351
0.121654
-0.137725
0.174538
-0.18397
-0.13606
0.145491
0.214492
-0.266625
-0.44523
0.497364
0.339406
-0.437386
-0.791692
0.889673
0.568058
-0.736751
-1.14114
1.30983
0.946257
-1.20724
-1.29065
1.55163
1.53494
-1.83723
-0.965885
1.26817
1.68268
-1.25728
0.994287
-1.41969
0.872939
-0.342943
3.94955
-4.47955
-0.300306
0.994704
3.69428
-4.38867
-1.68842
2.34861
2.8784
-3.53858
-2.95943
3.51366
2.21115
-2.76539
-4.00843
4.44129
1.64922
-2.08208
-4.8121
5.1221
1.14438
-1.45437
-5.37392
5.57294
0.711131
-0.910154
-5.72582
5.84004
0.380324
-0.494546
-5.92356
5.98355
0.161672
-0.221656
-6.02557
6.05385
0.0307451
-0.05903
-6.07164
6.08205
-0.0397734
0.0293708
-6.08768
6.0903
-0.0684882
0.0658731
-6.09109
6.09083
-0.0752481
0.0755121
-6.08996
6.0888
-0.0721718
0.0733295
-6.08754
6.08629
-0.0647484
0.0659929
-6.08521
6.08433
-0.0553463
0.0562229
-6.08372
6.08339
-0.0457642
0.0460904
-6.08333
6.08352
-0.0373185
0.037127
-6.08394
6.08452
-0.0305384
0.0299611
-6.08519
6.08591
-0.0254724
0.0247597
-6.08659
6.08719
-0.0219569
0.0213571
-6.08768
6.08802
-0.0197134
0.019367
-6.08823
6.0883
-0.0185075
0.0184349
-6.08823
6.08798
-0.0182857
0.0185382
-6.08751
6.0868
-0.0186666
0.0193766
-6.08585
6.08474
-0.0186763
0.0197895
-6.08355
6.08232
-0.0179584
0.0191857
-6.08104
6.07964
-0.0173787
0.0187774
-6.0781
6.07645
-0.0167733
0.0184267
-6.07475
6.07307
-0.0157108
0.0173916
-6.07141
6.06971
-0.0149287
0.0166301
-6.06792
6.066
-0.0146143
0.0165307
-6.064
6.06196
-0.0140042
0.0160372
-6.05996
6.05802
-0.0130808
0.0150258
-6.0561
6.05421
-0.012232
0.0141296
-6.05233
6.05054
-0.0110433
0.0128332
-6.04889
6.04735
-0.00962984
0.011164
-6.04586
6.04437
-0.00848181
0.00997057
-6.04292
6.04163
-0.00666821
0.00795492
-6.04059
6.03972
-0.00482002
0.00568459
-6.03891
6.03811
-0.0039295
0.00473276
-6.03741
6.03693
-0.00292102
0.00339614
-6.03656
6.03601
-0.00376301
0.00431762
-6.03495
6.03334
-0.00554853
0.00715192
-6.03178
6.03038
-0.00387448
0.00527394
-1.77041
1.90045
-0.13004
0.23928
-0.289108
-0.952975
1.0028
0.332374
-0.378907
-0.583724
0.630258
0.425999
-0.489338
-0.0668002
0.13014
0.253585
-0.151201
0.599356
-0.70174
0.128926
-0.101388
0.752766
-0.780304
0.0542046
0.00795986
0.523759
-0.585923
-0.0722586
0.11613
0.15235
-0.196221
-0.124434
0.0854938
-0.178103
0.217043
-0.0317766
-0.0118998
-0.530818
0.574494
0.0498559
-0.0915951
-0.95628
0.998019
0.161131
-0.259205
-1.43713
1.53521
0.297994
-0.540593
-1.78164
2.02424
1.5306
-2.7214
-1.96132
3.15212
2.92382
-1.1958
2.71695
-4.44497
0.286929
0.227967
4.96073
-5.47563
-0.690558
1.19857
4.97451
-5.48252
-1.74382
2.30005
4.1449
-4.70112
-2.84317
3.35694
3.29746
-3.81123
-3.82785
4.24867
2.50749
-2.92832
-4.6127
4.91874
1.76155
-2.06759
-5.16774
5.36561
1.1084
-1.30627
-5.51927
5.63697
0.610237
-0.727935
-5.72716
5.79763
0.286321
-0.356786
-5.85326
5.89736
0.0945324
-0.13863
-5.93206
5.95993
-0.0108225
-0.0170484
-5.98322
6.00325
-0.0549818
0.0349542
-6.02075
6.03628
-0.0681255
0.0525901
-6.0502
6.06273
-0.0677519
0.0552257
-6.0741
6.08441
-0.061469
0.051158
-6.09383
6.10251
-0.0522776
0.0435973
-6.11059
6.11813
-0.0424132
0.0348765
-6.1252
6.13185
-0.0336136
0.0269618
-6.13814
6.14406
-0.0266179
0.020693
-6.14963
6.15482
-0.0217246
0.0165351
-6.1596
6.16396
-0.0187909
0.0144342
-6.16788
6.17138
-0.0173625
0.0138684
-6.17449
6.17727
-0.0169203
0.0141348
-6.17978
6.18201
-0.017469
0.0152412
-6.18392
6.18547
-0.0188854
0.0173387
-6.18664
6.18749
-0.0198469
0.0190025
-6.18815
6.18875
-0.0194239
0.0188226
-6.18927
6.18957
-0.0192692
0.0189752
-6.18957
6.18931
-0.019322
0.0195849
-6.18889
6.18842
-0.0184009
0.0188663
-6.18796
6.18741
-0.017706
0.0182589
-6.18669
6.18574
-0.0179152
0.018862
-6.1846
6.18335
-0.0176283
0.0188763
-6.1821
6.18088
-0.0165679
0.017791
-6.17966
6.1784
-0.0156757
0.0169422
-6.17707
6.17576
-0.0143432
0.0156526
-6.17457
6.17352
-0.0124326
0.0134862
-6.17249
6.17135
-0.0112658
0.0124113
-6.17009
6.16894
-0.0091465
0.0102999
-6.16805
6.16737
-0.00644229
0.00711856
-6.16669
6.16587
-0.00552697
0.00635238
-6.16508
6.16462
-0.00384083
0.00430253
-6.16447
6.16422
-0.00472811
0.00498205
-6.16324
6.16138
-0.0088527
0.0107107
-6.1594
6.15788
-0.00671674
0.00824313
-2.01408
2.11452
-0.100438
0.170529
-0.189454
-1.03378
1.05271
0.189212
-0.207062
-0.659397
0.677247
0.315678
-0.0756887
0.008735
-0.248725
-0.0254571
0.0545498
0.748379
-0.777471
-0.0705509
0.0890386
0.800672
-0.81916
-0.119954
0.165659
0.637532
-0.683238
-0.224771
0.291377
0.260602
-0.327208
-0.357086
0.412526
-0.195886
0.140445
-0.449711
0.454963
-0.64042
0.635169
-0.428809
0.423227
-1.03273
1.03832
-0.579607
0.997711
-1.63552
1.21742
-0.866914
0.646612
-2.24105
2.46135
-0.197395
-0.91751
-4.34327
5.45817
1.59583
-0.752748
5.65556
-6.49864
-0.123255
0.659187
6.00165
-6.53759
-1.0754
1.4852
5.9266
-6.33639
-1.92234
2.38072
5.20106
-5.65944
-2.84825
3.30373
4.29226
-4.74774
-3.73392
4.12348
3.33164
-3.72121
-4.46373
4.74834
2.36224
-2.64684
-4.97977
5.16399
1.4969
-1.68112
-5.31128
5.42881
0.844435
-0.961961
-5.52604
5.60939
0.432134
-0.515475
-5.68257
5.7473
0.191712
-0.256444
-5.804
5.85412
0.0549128
-0.105036
-5.89903
5.93918
-0.00541067
-0.0347365
-5.97507
6.00737
-0.028893
-0.00341097
-6.03619
6.06203
-0.0360255
0.0101872
-6.08531
6.10628
-0.0354342
0.0144682
-6.12514
6.14216
-0.030616
0.0135921
-6.15762
6.17168
-0.0239316
0.00986884
-6.18449
6.19623
-0.0176204
0.00588392
-6.20704
6.21699
-0.0126121
0.00265458
-6.22617
6.23462
-0.00959165
0.00114421
-6.24236
6.2494
-0.00862539
0.00158412
-6.25575
6.26144
-0.00918258
0.00349411
-6.26651
6.27109
-0.0103532
0.00576794
-6.2753
6.27917
-0.0120964
0.00822109
-6.28271
6.28584
-0.0149263
0.0117923
-6.28849
6.29068
-0.0174194
0.0152364
-6.29255
6.29434
-0.0175444
0.0157472
-6.2961
6.29759
-0.0180166
0.0165234
-6.29869
6.29939
-0.0193141
0.0186174
-6.29979
6.30009
-0.0188874
0.0185922
-6.3004
6.30062
-0.0183649
0.0181403
-6.30065
6.30039
-0.0194187
0.019675
-6.29985
6.29912
-0.0198188
0.0205418
-6.29836
6.29762
-0.0187267
0.019464
-6.2969
6.29609
-0.0179433
0.0187463
-6.29514
6.29411
-0.0167827
0.0178066
-6.29319
6.29245
-0.0143509
0.0151002
-6.29177
6.29091
-0.0133968
0.0142495
-6.28975
6.2886
-0.0114251
0.0125714
-6.28775
6.28718
-0.0077164
0.00828018
-6.28662
6.28571
-0.0072122
0.00812905
-6.28466
6.28399
-0.00482494
0.00548997
-6.2839
6.28396
-0.00506398
0.00499869
-6.28324
6.28113
-0.0126956
0.0148129
-6.27869
6.27699
-0.00983875
0.011543
-2.20074
2.26096
-0.0602221
0.129179
-0.142706
-1.06615
1.07968
0.118866
-0.0428249
-0.654665
0.578624
-0.092045
0.212798
0.39579
-0.516544
-0.189077
0.192784
0.790118
-0.793825
-0.210371
0.233025
0.839078
-0.861732
-0.262494
0.302115
0.724555
-0.764176
-0.353942
0.415942
0.39125
-0.45325
-0.483892
0.554339
-0.0733481
0.00290049
-0.626851
0.700398
-0.570664
0.497117
-0.777531
0.860728
-0.948977
0.86578
-0.942764
1.01737
-1.11728
1.04268
-1.11515
1.57689
-2.40451
1.94278
-2.10673
1.6695
-6.4522
6.88943
0.32392
0.0571128
7.0499
-7.43093
-0.538565
0.995714
7.04989
-7.50704
-1.38469
1.75211
6.71952
-7.08695
-2.12477
2.51415
6.07681
-6.4662
-2.91441
3.31312
5.17102
-5.56973
-3.69427
4.04073
4.08813
-4.43458
-4.34115
4.58805
2.91351
-3.16041
-4.78688
4.94778
1.85358
-2.01448
-5.08648
5.21075
1.07992
-1.20419
-5.3279
5.43754
0.60813
-0.717765
-5.53882
5.6325
0.333806
-0.427493
-5.72142
5.80315
0.168929
-0.250659
-5.87329
5.93375
0.0853432
-0.145802
-5.9864
6.03241
0.0428523
-0.0888623
-6.0729
6.10872
0.0211921
-0.05701
-6.14053
6.16885
0.0106256
-0.038948
-6.19407
6.21648
0.00645823
-0.0288744
-6.23645
6.25431
0.00638812
-0.024248
-6.27033
6.28478
0.00743405
-0.0218871
-6.29788
6.3098
0.00846199
-0.0203777
-6.32067
6.3306
0.00817813
-0.0181082
-6.33967
6.34795
0.00618014
-0.0144586
-6.35546
6.36221
0.00279851
-0.00955174
-6.3683
6.37371
-0.000730722
-0.004685
-6.37859
6.38311
-0.00397125
-0.000548665
-6.38733
6.3913
-0.00820404
0.0042367
-6.39486
6.39795
-0.0126165
0.00952861
-6.40057
6.40293
-0.0136674
0.0113073
-6.40521
6.40722
-0.0146907
0.0126737
-6.40892
6.41024
-0.0175905
0.0162626
-6.41119
6.41187
-0.0181048
0.0174263
-6.41246
6.41294
-0.0177177
0.0172402
-6.41325
6.41338
-0.019694
0.0195698
-6.41323
6.41288
-0.0210738
0.0214261
-6.4124
6.41187
-0.0200577
0.020584
-6.41134
6.41079
-0.0193749
0.0199187
-6.41011
6.40929
-0.0187332
0.0195498
-6.40846
6.40771
-0.0158005
0.0165485
-6.4071
6.40649
-0.0149534
0.0155659
-6.40553
6.40445
-0.0137244
0.0148002
-6.40345
6.40267
-0.0088773
0.00966423
-6.4021
6.40124
-0.009064
0.00992433
-6.40007
6.39896
-0.00637137
0.00747676
-6.39823
6.398
-0.00490202
0.00513618
-6.3979
6.39616
-0.0169241
0.0186572
-6.39383
6.3919
-0.0133237
0.0152486
-2.28322
2.25616
0.0270617
0.0278159
-0.0303269
-1.09291
1.09542
0.0133906
0.0868258
-0.482422
0.382206
-0.302505
0.281694
0.472824
-0.452013
-0.276188
0.287397
0.800182
-0.811391
-0.30955
0.337261
0.886702
-0.914413
-0.36977
0.40895
0.802997
-0.842177
-0.457063
0.514777
0.512299
-0.570013
-0.579806
0.647786
0.0665764
-0.134556
-0.715326
0.778138
-0.428013
0.365201
-0.833954
0.883056
-0.798684
0.749582
-0.925231
0.968333
-0.98123
0.938128
-1.04983
1.20924
-1.71261
1.55319
-1.56393
2.74742
-6.38869
5.2052
-0.545015
0.685963
7.62675
-7.7677
-0.981926
1.31965
7.89643
-8.23415
-1.6508
1.97757
7.43261
-7.75938
-2.30749
2.64718
6.82481
-7.1645
-2.99559
3.34308
5.93892
-6.28641
-3.67338
3.96748
4.75477
-5.04888
-4.21227
4.40056
3.38
-3.5683
-4.54902
4.68004
2.15838
-2.28941
-4.8252
4.99446
1.34161
-1.51086
-5.17851
5.33228
0.848114
-1.00188
-5.46383
5.57209
0.535661
-0.643912
-5.6351
5.788
0.354876
-0.507771
-5.89675
5.9823
0.211396
-0.296942
-6.04886
6.10157
0.137721
-0.190432
-6.14441
6.17989
0.0945287
-0.130009
-6.20961
6.23476
0.0683924
-0.0935399
-6.25613
6.27424
0.0521007
-0.0702064
-6.2895
6.30237
0.0425659
-0.0554359
-6.31328
6.32258
0.0366355
-0.0459311
-6.33051
6.33737
0.0324472
-0.0393049
-6.34342
6.34892
0.0281182
-0.0336268
-6.3542
6.35979
0.0228465
-0.028441
-6.36676
6.3776
0.0165295
-0.027376
-6.39512
6.41755
0.0101712
-0.032597
-6.43906
6.45592
0.0051297
-0.0219949
-6.46822
6.47741
-8.47127e-05
-0.00910999
-6.48479
6.49105
-0.00594427
-0.000317187
-6.49612
6.5001
-0.00874718
0.00476863
-6.50319
6.50592
-0.01059
0.00786027
-6.50851
6.51089
-0.0145713
0.0121918
-6.51288
6.51429
-0.016521
0.0151064
-6.51512
6.51564
-0.0167886
0.0162744
-6.51607
6.51652
-0.0192826
0.0188326
-6.51696
6.5172
-0.0214805
0.0212413
-6.5171
6.51666
-0.0210282
0.0214647
-6.51604
6.5154
-0.0203759
0.0210157
-6.51481
6.51406
-0.0200978
0.0208441
-6.5129
6.51129
-0.0173845
0.0189911
-6.50943
6.50758
-0.0161211
0.0179692
-6.50572
6.50325
-0.0155547
0.0180305
-6.49982
6.49554
-0.0107866
0.0150657
-6.49063
6.48511
-0.0104618
0.0159775
-6.47816
6.46858
-0.0086463
0.0182346
-6.45504
6.43574
-0.00636663
0.0256637
-6.41119
6.39034
-0.0187503
0.0396038
-6.37899
6.3737
-0.0173887
0.0226712
-2.18229
2.06822
0.114061
-0.132726
0.184114
-1.07238
1.02099
-0.2377
0.296034
-0.275258
0.216923
-0.320389
0.334775
0.466101
-0.480487
-0.34608
0.363271