/*--------------------------------*- C++ -*----------------------------------*\
| =========                 |                                                 |
| \\      /  F ield         | OpenFOAM: The Open Source CFD Toolbox           |
|  \\    /   O peration     | Version:  v1912                                 |
|   \\  /    A nd           | Website:  www.openfoam.com                      |
|    \\/     M anipulation  |                                                 |
\*---------------------------------------------------------------------------*/
FoamFile
{
    version     2.0;
    format      ascii;
    class       volVectorField;
    location    "14";
    object      U;
}
// * * * * * * * * * * * * * * * * * * * * * * * * * * * * * * * * * * * * * //

dimensions      [0 1 -1 0 0 0 0];


internalField   nonuniform List<vector> 
20320
(
(1.87917 0.00604864 0)
(1.87832 -0.00602912 0)
(1.86412 0.00392684 0)
(1.83695 0.0104583 0)
(1.79838 0.0179129 0)
(1.75161 0.0233214 0)
(1.69643 0.0290053 0)
(1.63258 0.0337786 0)
(1.56112 0.0377122 0)
(1.48442 0.0414135 0)
(1.40223 0.0433744 0)
(1.31752 0.0443118 0)
(1.23253 0.0432335 0)
(1.15064 0.0421778 0)
(1.06716 0.0534481 0)
(0.953568 0.0859953 0)
(0.782556 0.138282 0)
(0.542633 0.204457 0)
(0.235335 0.231457 0)
(0.00325438 0.0259273 0)
(1.87929 0.0106907 0)
(1.87119 0.0332674 0)
(1.85313 0.0620527 0)
(1.82469 0.090396 0)
(1.78634 0.117658 0)
(1.73841 0.14367 0)
(1.68167 0.168003 0)
(1.61635 0.190413 0)
(1.54316 0.210656 0)
(1.46306 0.228175 0)
(1.37658 0.242416 0)
(1.28556 0.25083 0)
(1.18834 0.254962 0)
(1.07591 0.279672 0)
(0.937462 0.340147 0)
(0.781943 0.428599 0)
(0.620696 0.531605 0)
(0.462378 0.61787 0)
(0.312453 0.617958 0)
(0.149363 0.464971 0)
(1.87928 0.0162507 0)
(1.87109 0.0658435 0)
(1.85247 0.117524 0)
(1.82344 0.167983 0)
(1.78437 0.216861 0)
(1.73566 0.263415 0)
(1.67759 0.307313 0)
(1.61034 0.348297 0)
(1.53491 0.385227 0)
(1.45155 0.418497 0)
(1.3617 0.44501 0)
(1.26336 0.467969 0)
(1.1491 0.509676 0)
(1.01315 0.584038 0)
(0.864591 0.674505 0)
(0.711882 0.771907 0)
(0.562234 0.865446 0)
(0.420407 0.931227 0)
(0.282613 0.934048 0)
(0.132794 0.848648 0)
(1.87929 0.0218522 0)
(1.87123 0.0948041 0)
(1.8527 0.169152 0)
(1.82343 0.241927 0)
(1.784 0.312151 0)
(1.73448 0.379509 0)
(1.67526 0.443519 0)
(1.60663 0.503137 0)
(1.52871 0.558808 0)
(1.4434 0.60703 0)
(1.34836 0.65143 0)
(1.2402 0.705013 0)
(1.11113 0.792025 0)
(0.969542 0.892401 0)
(0.823033 0.99226 0)
(0.676548 1.08668 0)
(0.533958 1.16769 0)
(0.396663 1.22086 0)
(0.260777 1.22961 0)
(0.118401 1.18018 0)
(1.87928 0.0272587 0)
(1.87125 0.122133 0)
(1.85271 0.218258 0)
(1.82348 0.312268 0)
(1.78386 0.403706 0)
(1.73413 0.491463 0)
(1.67422 0.575602 0)
(1.60471 0.654744 0)
(1.526 0.727682 0)
(1.43808 0.795028 0)
(1.33927 0.862016 0)
(1.22069 0.958867 0)
(1.08635 1.07506 0)
(0.945323 1.18702 0)
(0.80224 1.28898 0)
(0.660127 1.37866 0)
(0.521013 1.45091 0)
(0.38505 1.49763 0)
(0.249576 1.5105 0)
(0.110978 1.4796 0)
(1.87928 0.0323567 0)
(1.87137 0.148306 0)
(1.85304 0.265287 0)
(1.82418 0.379956 0)
(1.78487 0.491786 0)
(1.73529 0.600083 0)
(1.67587 0.70323 0)
(1.60589 0.802552 0)
(1.52748 0.892848 0)
(1.43824 0.979931 0)
(1.3338 1.08178 0)
(1.20922 1.21518 0)
(1.07437 1.34795 0)
(0.935291 1.46595 0)
(0.794927 1.56824 0)
(0.655243 1.65431 0)
(0.517387 1.7213 0)
(0.381228 1.76478 0)
(0.245119 1.78027 0)
(0.107642 1.75934 0)
(1.8793 0.0371351 0)
(1.87154 0.17316 0)
(1.85387 0.309564 0)
(1.82549 0.444437 0)
(1.7873 0.575503 0)
(1.73865 0.703279 0)
(1.67993 0.826468 0)
(1.61155 0.942831 0)
(1.53317 1.05319 0)
(1.44333 1.16332 0)
(1.33331 1.3057 0)
(1.20692 1.46468 0)
(1.07319 1.60822 0)
(0.93595 1.73067 0)
(0.797229 1.83371 0)
(0.658425 1.91802 0)
(0.520316 1.98241 0)
(0.382823 2.02458 0)
(0.245028 2.04195 0)
(0.10676 2.02668 0)
(1.87928 0.0415891 0)
(1.87196 0.195992 0)
(1.85488 0.351277 0)
(1.82796 0.504041 0)
(1.79103 0.654361 0)
(1.74432 0.800132 0)
(1.68719 0.942565 0)
(1.62128 1.07575 0)
(1.54397 1.20615 0)
(1.45267 1.34748 0)
(1.33951 1.52659 0)
(1.21362 1.70381 0)
(1.08145 1.85613 0)
(0.945557 1.98326 0)
(0.807468 2.08832 0)
(0.668297 2.17285 0)
(0.52871 2.23676 0)
(0.38881 2.27902 0)
(0.248213 2.29807 0)
(0.107552 2.2863 0)
(1.87927 0.0455503 0)
(1.87248 0.216867 0)
(1.85641 0.389244 0)
(1.8314 0.55865 0)
(1.79638 0.726835 0)
(1.75234 0.889985 0)
(1.69837 1.04902 0)
(1.6349 1.20119 0)
(1.56016 1.35153 0)
(1.46708 1.53056 0)
(1.35353 1.73961 0)
(1.22935 1.93155 0)
(1.09881 2.09263 0)
(0.963745 2.22563 0)
(0.825399 2.33445 0)
(0.684765 2.42121 0)
(0.542542 2.48651 0)
(0.399064 2.53011 0)
(0.254393 2.55099 0)
(0.10974 2.5418 0)
(1.8793 0.0489442 0)
(1.87305 0.235676 0)
(1.85868 0.422477 0)
(1.83559 0.608204 0)
(1.80378 0.791305 0)
(1.76299 0.97151 0)
(1.7134 1.14538 0)
(1.65329 1.31676 0)
(1.58168 1.49066 0)
(1.48803 1.70853 0)
(1.37634 1.94201 0)
(1.25468 2.14767 0)
(1.12585 2.31865 0)
(0.99121 2.45932 0)
(0.851833 2.57401 0)
(0.708686 2.66515 0)
(0.562584 2.73376 0)
(0.414138 2.78 0)
(0.263834 2.80312 0)
(0.113364 2.79639 0)
(1.87931 0.0518061 0)
(1.8738 0.25176 0)
(1.86149 0.451073 0)
(1.84085 0.651289 0)
(1.81325 0.847237 0)
(1.77663 1.04291 0)
(1.73227 1.23142 0)
(1.67731 1.42031 0)
(1.60893 1.6235 0)
(1.51704 1.87736 0)
(1.4091 2.13206 0)
(1.29083 2.35203 0)
(1.16398 2.5348 0)
(1.02955 2.68553 0)
(0.888491 2.80864 0)
(0.741772 2.90666 0)
(0.590369 2.98075 0)
(0.435221 3.03116 0)
(0.277286 3.05727 0)
(0.11874 3.05342 0)
(1.87931 0.0541322 0)
(1.87482 0.264591 0)
(1.86465 0.475087 0)
(1.84754 0.686307 0)
(1.82456 0.894462 0)
(1.79354 1.10253 0)
(1.75529 1.30582 0)
(1.70721 1.51117 0)
(1.64285 1.74782 0)
(1.55555 2.03353 0)
(1.45325 2.30819 0)
(1.33953 2.54405 0)
(1.21531 2.74118 0)
(1.08121 2.90497 0)
(0.938013 3.03966 0)
(0.786666 3.14765 0)
(0.628303 3.22993 0)
(0.464244 3.28656 0)
(0.296041 3.31678 0)
(0.126476 3.31664 0)
(1.87929 0.0558444 0)
(1.87607 0.274087 0)
(1.86822 0.493899 0)
(1.85563 0.712628 0)
(1.83764 0.932193 0)
(1.81372 1.14932 0)
(1.78277 1.3667 0)
(1.74293 1.58905 0)
(1.68451 1.86004 0)
(1.60481 2.17387 0)
(1.51038 2.46859 0)
(1.40292 2.7226 0)
(1.28258 2.93725 0)
(1.14949 3.11776 0)
(1.0041 3.26803 0)
(0.84719 3.39 0)
(0.679979 3.48414 0)
(0.504188 3.54992 0)
(0.322156 3.58603 0)
(0.13758 3.5907 0)
(1.87927 0.0568565 0)
(1.87743 0.280362 0)
(1.87233 0.506648 0)
(1.86478 0.730382 0)
(1.8525 0.959094 0)
(1.83687 1.18273 0)
(1.81465 1.41234 0)
(1.78432 1.65286 0)
(1.73469 1.95619 0)
(1.66581 2.29526 0)
(1.582 2.61083 0)
(1.48334 2.88561 0)
(1.36905 3.12143 0)
(1.23857 3.3231 0)
(1.09171 3.49398 0)
(0.928758 3.63531 0)
(0.750735 3.74654 0)
(0.559665 3.8259 0)
(0.358918 3.87083 0)
(0.153636 3.88161 0)
(1.87927 0.0571324 0)
(1.87884 0.28348 0)
(1.87695 0.512819 0)
(1.87463 0.739796 0)
(1.86902 0.974005 0)
(1.86243 1.20242 0)
(1.8504 1.44157 0)
(1.83109 1.7005 0)
(1.79354 2.03232 0)
(1.73896 2.39431 0)
(1.66924 2.73163 0)
(1.58295 3.02976 0)
(1.47823 3.29061 0)
(1.35345 3.51856 0)
(1.20729 3.71636 0)
(1.03894 3.88428 0)
(0.848564 4.02025 0)
(0.638013 4.12026 0)
(0.411833 4.17911 0)
(0.177162 4.19777 0)
(1.87928 0.0566942 0)
(1.88027 0.283438 0)
(1.88191 0.512432 0)
(1.88486 0.740937 0)
(1.88674 0.976487 0)
(1.88965 1.20815 0)
(1.88905 1.45365 0)
(1.88249 1.72947 0)
(1.86036 2.08486 0)
(1.82375 2.46743 0)
(1.77233 2.82682 0)
(1.70323 3.15033 0)
(1.61334 3.43981 0)
(1.49957 3.69942 0)
(1.35883 3.93158 0)
(1.18819 4.13567 0)
(0.985643 4.30764 0)
(0.751423 4.43996 0)
(0.490744 4.52217 0)
(0.212861 4.55214 0)
(1.87929 0.0556057 0)
(1.8817 0.280268 0)
(1.88697 0.505912 0)
(1.89517 0.733858 0)
(1.90496 0.966888 0)
(1.91758 1.19987 0)
(1.92924 1.4483 0)
(1.93711 1.73753 0)
(1.9334 2.11083 0)
(1.91845 2.51094 0)
(1.89008 2.89151 0)
(1.84419 3.24105 0)
(1.77639 3.56159 0)
(1.68193 3.85759 0)
(1.55534 4.1319 0)
(1.39033 4.38389 0)
(1.1804 4.60794 0)
(0.920867 4.79198 0)
(0.614427 4.91627 0)
(0.271033 4.96456 0)
(1.8793 0.0539526 0)
(1.8831 0.274129 0)
(1.89187 0.493915 0)
(1.90521 0.718859 0)
(1.92285 0.946168 0)
(1.94511 1.17796 0)
(1.96934 1.42571 0)
(1.99285 1.72332 0)
(2.00984 2.10817 0)
(2.0198 2.52158 0)
(2.0193 2.92057 0)
(2.00338 3.29458 0)
(1.96673 3.6461 0)
(1.90323 3.98077 0)
(1.80502 4.30332 0)
(1.66163 4.61518 0)
(1.4595 4.91186 0)
(1.18305 5.17865 0)
(0.822575 5.38335 0)
(0.37613 5.47538 0)
(1.87931 0.051831 0)
(1.88442 0.265327 0)
(1.8964 0.47722 0)
(1.91462 0.696629 0)
(1.93959 0.915701 0)
(1.97107 1.14344 0)
(2.00755 1.38682 0)
(2.04707 1.68674 0)
(2.08592 2.07618 0)
(2.12304 2.49722 0)
(2.15444 2.90961 0)
(2.175 3.30347 0)
(2.17928 3.68203 0)
(2.16086 4.05279 0)
(2.11088 4.42396 0)
(2.0161 4.80242 0)
(1.85588 5.19094 0)
(1.59864 5.58197 0)
(1.20285 5.9412 0)
(0.604673 6.16478 0)
(1.87932 0.0493407 0)
(1.8856 0.254285 0)
(1.90038 0.456672 0)
(1.92303 0.66822 0)
(1.95448 0.877127 0)
(1.99436 1.09791 0)
(2.04209 1.33336 0)
(2.09696 1.62924 0)
(2.15733 2.01591 0)
(2.22225 2.43758 0)
(2.28791 2.85613 0)
(2.34976 3.26202 0)
(2.40335 3.65896 0)
(2.4437 4.05622 0)
(2.46407 4.46597 0)
(2.45371 4.90264 0)
(2.39343 5.38316 0)
(2.24639 5.92599 0)
(1.93656 6.5439 0)
(1.26856 7.14088 0)
(-1.18307 0.788005 0)
(-3.53406 0.350795 0)
(-4.61207 0.126498 0)
(-5.25042 0.104244 -4.89521e-21)
(-5.16665 -0.219889 0)
(-3.42052 -0.393637 0)
(-2.03536 -0.180604 0)
(-1.57903 -0.0362811 0)
(-1.70056 0.0805618 0)
(-2.55205 0.247369 2.93352e-22)
(-4.28326 0.440426 0)
(-6.94251 0.589743 0)
(-10.0885 0.658927 8.25054e-21)
(-13.5202 0.573281 5.4219e-20)
(-13.73 -0.821696 0)
(-4.96893 -2.36955 -1.59981e-19)
(4.21464 -1.57846 -5.80588e-20)
(10.7253 -1.09147 2.67136e-19)
(15.4704 -0.800627 0)
(18.9577 -0.584065 1.34226e-19)
(21.4107 -0.399783 -1.08552e-19)
(22.9704 -0.246698 -1.5642e-19)
(23.8152 -0.131854 5.08336e-20)
(24.1563 -0.0543698 -3.0461e-20)
(24.1861 -0.00518863 0)
(24.0414 0.0126542 -8.67295e-21)
(23.8158 0.0210047 0)
(23.5718 0.023758 1.75707e-21)
(23.3352 0.0230867 1.07328e-21)
(23.1185 0.0203606 0)
(22.9285 0.0165876 -2.91661e-22)
(22.7671 0.012813 3.81951e-22)
(22.6313 0.00974971 -1.94593e-22)
(22.5173 0.00742783 1.82794e-22)
(22.4209 0.0057114 0)
(22.338 0.00455534 0)
(22.2653 0.00390027 1.4613e-22)
(22.1993 0.00374886 0)
(22.1371 0.0040397 -1.32475e-22)
(22.0764 0.00446596 0)
(22.0172 0.00468937 0)
(21.961 0.00473851 -1.07126e-22)
(21.9081 0.00476718 0)
(21.8582 0.00468023 0)
(21.812 0.00452693 5.86248e-23)
(21.7693 0.00444913 4.04343e-23)
(21.7289 0.00443482 0)
(21.691 0.00433536 -3.81146e-24)
(21.6561 0.00419104 -2.00577e-24)
(21.6238 0.00399509 9.00673e-24)
(21.5947 0.00360175 0)
(21.5692 0.00305307 -2.13178e-23)
(21.5473 0.00236825 0)
(21.5297 0.0015457 1.60693e-23)
(21.5167 0.000926936 0)
(21.5069 0.000585674 0)
(21.4997 0.000447588 4.63809e-27)
(21.4928 0.000612607 -3.56902e-27)
(21.4831 -3.66356e-05 0)
(21.4733 -0.0010611 0)
(-1.91662 2.06674 0)
(-2.79151 1.14709 0)
(-3.50974 0.503004 -1.05063e-20)
(-3.90646 0.275404 0)
(-3.63294 -0.420017 0)
(-2.16946 -0.993138 -4.70322e-20)
(-1.48402 -0.583044 1.37237e-20)
(-1.16405 -0.149062 0)
(-1.30145 0.215311 2.78907e-23)
(-1.94648 0.66046 -1.10217e-20)
(-3.13964 1.16286 9.20305e-23)
(-4.93126 1.62097 -3.06796e-20)
(-7.0918 1.79971 2.27412e-21)
(-8.86694 1.36074 0)
(-8.1371 -1.3633 0)
(-2.54404 -5.83609 1.09159e-19)
(4.13553 -4.92418 0)
(9.81095 -3.64554 0)
(14.3197 -2.73487 3.09707e-22)
(17.7726 -2.0116 0)
(20.2605 -1.37869 0)
(21.8875 -0.842182 0)
(22.823 -0.434955 3.9782e-20)
(23.2765 -0.16553 -2.40231e-20)
(23.4362 -0.0044992 1.35272e-20)
(23.4305 0.0829802 7.0424e-21)
(23.3465 0.117355 0)
(23.2386 0.123827 0)
(23.1305 0.117525 3.25674e-22)
(23.0319 0.105402 4.45287e-24)
(22.9474 0.0905609 0)
(22.878 0.0756865 -3.37553e-24)
(22.8225 0.062649 4.21897e-22)
(22.7784 0.0520545 0)
(22.7429 0.0438726 0)
(22.713 0.0378556 3.47916e-22)
(22.6864 0.0337057 0)
(22.6614 0.0312817 0)
(22.6367 0.0304098 0)
(22.6109 0.0302928 1.44667e-22)
(22.5837 0.0296596 1.32856e-22)
(22.5568 0.0282372 -2.41348e-22)
(22.5305 0.026936 1.02138e-22)
(22.5044 0.0255183 0)
(22.4792 0.0236866 -6.7446e-23)
(22.4554 0.0222889 0)
(22.4318 0.0213976 3.03814e-23)
(22.4083 0.0201935 -7.77954e-24)
(22.3861 0.0187709 -1.57335e-24)
(22.3651 0.0174317 -5.79565e-24)
(22.3457 0.0156366 1.27079e-23)
(22.3286 0.0136525 1.90969e-23)
(22.3134 0.011795 -5.44344e-23)
(22.3003 0.00910071 0)
(22.2908 0.00667254 0)
(22.2835 0.00534666 0)
(22.278 0.00421557 0)
(22.2737 0.00541272 1.23426e-23)
(22.2654 0.006577 -1.9727e-23)
(22.2557 0.0037716 0)
(-2.08806 3.00947 0)
(-2.33584 1.65932 -1.80416e-20)
(-2.69139 0.907042 0)
(-3.19321 0.35434 -9.03539e-20)
(-1.24536 -0.987579 8.23939e-20)
(-0.764884 -1.37915 2.51755e-20)
(-0.537346 -0.871837 0)
(-0.549068 -0.238894 1.37853e-20)
(-0.759867 0.274658 0)
(-1.27115 0.940295 0)
(-2.11296 1.67917 0)
(-3.36742 2.46582 0)
(-5.11357 2.69899 0)
(-7.11406 1.87566 0)
(-4.21135 -1.83008 0)
(0.702343 -8.347 0)
(5.31987 -8.04939 0)
(9.808 -6.37667 -3.62158e-20)
(13.7965 -4.9347 0)
(17.0114 -3.69595 0)
(19.3669 -2.57327 0)
(20.9066 -1.60492 0)
(21.7983 -0.865286 0)
(22.2627 -0.377455 0)
(22.4848 -0.0856014 0)
(22.5708 0.0721204 0)
(22.5947 0.136768 0)
(22.5972 0.152781 0)
(22.5935 0.147196 6.10093e-22)
(22.5891 0.132164 0)
(22.5868 0.11275 7.78897e-23)
(22.5879 0.0928573 0)
(22.5923 0.0753099 0)
(22.5992 0.0612381 0)
(22.6069 0.0508642 0)
(22.6139 0.0438431 0)
(22.6187 0.0395005 1.22335e-22)
(22.621 0.0372804 0)
(22.6208 0.0371027 0)
(22.6174 0.0382468 0)
(22.6107 0.0385984 -1.10068e-22)
(22.6023 0.0372558 1.02923e-22)
(22.5932 0.0362322 -8.55924e-23)
(22.5822 0.0352183 0)
(22.5702 0.0331018 -5.66818e-23)
(22.5583 0.0315451 0)
(22.5453 0.0310916 0)
(22.5307 0.0299593 0)
(22.5163 0.0280213 0)
(22.5025 0.0262686 -8.04022e-24)
(22.489 0.0237786 0)
(22.4771 0.0207161 -3.94681e-23)
(22.4664 0.0183626 0)
(22.456 0.0145302 0)
(22.4485 0.0104498 -1.72171e-23)
(22.4426 0.00858618 2.06643e-23)
(22.4377 0.00627286 -4.17824e-23)
(22.435 0.00805651 1.15371e-23)
(22.4271 0.0125387 0)
(22.4157 0.00903798 2.47514e-24)
(-2.18468 3.62217 0)
(-1.91671 1.93901 0)
(-1.92529 1.19965 0)
(-2.583 0.137548 0)
(0.102498 -1.30345 -8.93987e-20)
(0.244849 -1.51398 0)
(0.391504 -1.08929 0)
(0.521482 -0.34241 -9.1079e-23)
(0.232588 0.385138 0)
(-0.436015 1.11104 -9.33316e-23)
(-1.03441 1.94123 6.23861e-21)
(-1.96843 2.88874 0)
(-3.01298 3.26625 0)
(-9.29014 5.52013 -2.19229e-21)
(-0.842937 -7.08668 5.92697e-21)
(3.83562 -10.2788 -8.28063e-24)
(7.18087 -10.3425 2.77752e-21)
(10.4971 -8.74749 0)
(13.7924 -7.02288 4.80799e-20)
(16.6124 -5.36626 0)
(18.7027 -3.77949 -1.05795e-22)
(20.0414 -2.38339 8.99717e-23)
(20.8104 -1.31956 -7.15567e-23)
(21.2486 -0.631494 1.76042e-20)
(21.5284 -0.225339 -1.03172e-20)
(21.7153 -0.000905465 0)
(21.8584 0.0936467 0)
(21.9789 0.123204 -7.14716e-24)
(22.081 0.124825 4.06764e-24)
(22.1677 0.114019 0)
(22.2417 0.0969344 -6.08697e-24)
(22.3059 0.0781329 0)
(22.3621 0.0612644 0)
(22.4114 0.0478878 0)
(22.4544 0.0387335 3.82313e-22)
(22.4908 0.0336062 0)
(22.5201 0.0315003 0)
(22.5431 0.0312079 1.12216e-22)
(22.5614 0.0327803 -2.30022e-22)
(22.5751 0.0362054 1.06731e-22)
(22.5835 0.0387223 2.02964e-22)
(22.5888 0.0380879 0)
(22.5928 0.0380675 1.60208e-22)
(22.5931 0.0386519 0)
(22.5906 0.0369849 5.65021e-23)
(22.5876 0.0356926 -4.0617e-23)
(22.5825 0.0364612 0)
(22.5745 0.0361473 -3.35579e-24)
(22.5659 0.0340175 0)
(22.5574 0.0322878 -8.52378e-24)
(22.5482 0.029662 -1.43737e-23)
(22.5401 0.0256407 1.84442e-23)
(22.5329 0.0234165 -2.95474e-23)
(22.5242 0.019184 -3.11299e-23)
(22.5182 0.0133981 0)
(22.5133 0.0116958 2.0974e-23)
(22.5079 0.00799408 1.84216e-23)
(22.5069 0.00963862 -1.16086e-23)
(22.4996 0.0192401 0)
(22.4855 0.0146901 0)
(-2.30332 4.04444 -5.90484e-21)
(-1.66168 2.05228 5.51232e-21)
(-1.37327 1.32926 0)
(-1.15283 -0.0176594 3.8294e-19)
(0.914517 -1.50105 -3.22536e-20)
(1.00273 -1.59048 0)
(1.08051 -1.29951 0)
(1.17593 -0.575759 4.8433e-25)
(1.24155 0.346034 6.13871e-23)
(1.123 1.25273 5.00316e-21)
(0.673095 2.03995 2.07433e-19)
(0.639731 3.07944 3.27472e-21)
(0.944358 5.03745 8.30715e-20)
(-3.48559 9.60116 0)
(2.3432 -12.0183 1.46548e-21)
(6.24333 -12.3169 2.70233e-19)
(8.97494 -12.0517 0)
(11.5081 -10.6815 -2.09851e-20)
(14.138 -8.88924 -4.13589e-20)
(16.4831 -6.93344 0)
(18.1995 -4.92506 5.10888e-20)
(19.2378 -3.12428 -9.48854e-23)
(19.8414 -1.77233 0)
(20.2653 -0.927095 0)
(20.6357 -0.437305 8.94071e-21)
(20.9591 -0.156541 3.28731e-23)
(21.2428 -0.0281564 0)
(21.4854 0.0263324 0)
(21.6875 0.0450528 5.13144e-24)
(21.8541 0.0481522 0)
(21.9912 0.0424251 3.5803e-22)
(22.1048 0.0322371 -2.6288e-25)
(22.1994 0.0222171 -2.4861e-22)
(22.2788 0.01429 4.84876e-22)
(22.3457 0.010009 -4.49486e-22)
(22.4014 0.00952788 -4.17587e-22)
(22.4465 0.0119942 0)
(22.4824 0.015473 -6.26444e-26)
(22.5119 0.0196768 0)
(22.5363 0.0260406 -1.06098e-22)
(22.5546 0.0319511 -1.01587e-22)
(22.5683 0.032597 -1.19011e-22)
(22.5808 0.0338768 -8.05782e-23)
(22.5885 0.0372682 5.86436e-23)
(22.5918 0.0368319 -6.59337e-23)
(22.5944 0.0358872 -4.48324e-23)
(22.5946 0.0384777 2.60253e-23)
(22.5909 0.0397471 -1.12544e-25)
(22.5859 0.0376058 -1.75662e-24)
(22.5811 0.0361418 -9.77217e-24)
(22.5748 0.0340842 1.3633e-23)
(22.5688 0.0290082 0)
(22.5643 0.0272668 3.44212e-23)
(22.5566 0.0236853 -2.7508e-23)
(22.551 0.0157746 0)
(22.5469 0.0151691 2.39441e-23)
(22.5399 0.0101858 1.19414e-23)
(22.5392 0.00991324 -5.58469e-26)
(22.5335 0.0272844 0)
(22.5167 0.0212559 -2.7812e-24)
(-2.35543 4.35322 -2.30142e-21)
(-1.51301 2.09681 0)
(-1.00611 1.23454 1.09877e-22)
(1.34366 -1.04166 0)
(1.38145 -1.55201 0)
(1.53433 -1.66063 -3.69535e-22)
(1.63626 -1.45502 0)
(1.71281 -0.826636 -4.57522e-21)
(1.79585 0.0740001 4.45781e-22)
(1.89253 1.04889 2.12482e-20)
(2.14874 1.77779 -3.19076e-20)
(2.56539 2.09812 -2.60387e-20)
(2.66361 3.81253 -2.14567e-19)
(3.87187 13.4517 1.0615e-18)
(5.98207 -14.1942 0)
(8.18212 -14.2557 -2.21139e-19)
(10.4502 -13.4998 0)
(12.5304 -12.2698 0)
(14.6329 -10.5087 7.71248e-20)
(16.4931 -8.34114 0)
(17.7467 -5.94617 0)
(18.3999 -3.78876 -4.0425e-20)
(18.8587 -2.25057 -4.37425e-20)
(19.3767 -1.30738 0)
(19.9078 -0.73803 1.01555e-21)
(20.4237 -0.374298 0)
(20.8649 -0.196743 -3.04703e-21)
(21.2095 -0.104865 0)
(21.4813 -0.0573982 -4.24753e-21)
(21.6988 -0.033302 0)
(21.8736 -0.0225654 1.56397e-21)
(22.0135 -0.0200616 -1.29193e-21)
(22.1264 -0.0202485 0)
(22.2187 -0.0210029 8.55394e-22)
(22.2948 -0.0196562 -6.72095e-22)
(22.3577 -0.0152715 5.09365e-22)
(22.4092 -0.00844913 6.90545e-24)
(22.4505 -0.00143297 -1.26104e-22)
(22.4837 0.00537724 9.1897e-23)
(22.512 0.0142276 -1.7954e-24)
(22.5358 0.0233355 0)
(22.5543 0.0256948 1.42057e-23)
(22.5698 0.0279571 -6.71811e-23)
(22.5812 0.0339007 0)
(22.5881 0.0351904 3.70196e-25)
(22.5924 0.034644 -9.93635e-23)
(22.5945 0.0386517 1.31788e-22)
(22.5937 0.0415299 1.1755e-22)
(22.5908 0.0396725 -1.05082e-22)
(22.5875 0.0383684 -6.41091e-23)
(22.5832 0.0371465 6.00268e-23)
(22.578 0.0314224 5.01738e-23)
(22.5739 0.0297098 -7.72775e-23)
(22.5681 0.0273068 0)
(22.5616 0.0178155 3.83432e-23)
(22.5572 0.0180435 0)
(22.5498 0.0128065 1.7579e-24)
(22.5447 0.0098842 0)
(22.5417 0.0329402 0)
(22.5266 0.0262626 0)
(-2.17186 4.43205 -3.31426e-21)
(-1.13765 2.13582 0)
(-0.441793 0.858577 0)
(1.41628 -0.909073 4.34371e-20)
(1.69158 -1.56521 0)
(1.91428 -1.75098 0)
(2.05768 -1.60002 0)
(2.13646 -1.05415 0)
(2.20877 -0.197723 0)
(2.26555 0.766764 0)
(2.35695 1.49669 0)
(2.50653 1.85916 -1.4898e-20)
(2.58809 3.15797 0)
(3.00764 11.5496 0)
(8.61582 -14.9485 -2.91734e-18)
(9.872 -15.7153 0)
(11.6714 -14.7863 9.59633e-23)
(13.4162 -13.6184 0)
(15.1161 -11.9016 -1.00161e-22)
(16.5042 -9.54896 0)
(17.1858 -6.76911 0)
(17.3811 -4.36175 -3.0853e-20)
(17.8036 -2.63276 2.46796e-20)
(18.6986 -1.57625 -5.70571e-20)
(19.4248 -0.986049 6.33187e-20)
(19.8919 -1.0348 0)
(20.7635 -0.649686 -1.59775e-22)
(21.1613 -0.4487 -1.51293e-22)
(21.422 -0.325109 0)
(21.6048 -0.245255 -5.23993e-21)
(21.737 -0.190602 0)
(21.8324 -0.154111 -3.13843e-21)
(21.9009 -0.129317 -5.69234e-23)
(21.9507 -0.110966 -1.91282e-21)
(21.9881 -0.0944832 0)
(22.0208 -0.0778181 1.61543e-21)
(22.0637 -0.0623662 -3.11981e-21)
(22.1818 -0.0473215 -1.38648e-21)
(22.3281 -0.0264154 2.17363e-21)
(22.4093 -0.00822754 3.20716e-21)
(22.4578 0.00780128 0)
(22.492 0.0151679 -3.82403e-21)
(22.5129 0.0195169 -3.75366e-21)
(22.5299 0.0279415 6.46968e-24)
(22.5433 0.0320907 0)
(22.5493 0.0325051 -3.07937e-21)
(22.552 0.0374235 2.83081e-21)
(22.5549 0.0418597 -2.56484e-21)
(22.5546 0.0409598 0)
(22.5507 0.0397048 -1.00514e-21)
(22.547 0.0393836 0)
(22.5397 0.0341675 0)
(22.5271 0.031864 0)
(22.5145 0.0316153 0)
(22.4913 0.0227841 0)
(22.4578 0.0230258 0)
(22.4095 0.0219962 0)
(22.3175 0.0205114 2.10989e-22)
(22.1427 0.0511163 -1.23093e-22)
(22.0706 0.0433403 8.90603e-23)
(-1.79642 4.12843 0)
(-0.445109 2.03798 -1.4364e-23)
(0.676265 0.453396 3.42394e-20)
(1.56356 -0.906229 -7.79786e-21)
(1.94975 -1.61599 0)
(2.21019 -1.85529 0)
(2.37128 -1.74332 0)
(2.44661 -1.26072 -2.65338e-21)
(2.46982 -0.444416 0)
(2.43328 0.552421 0)
(2.33125 1.37006 0)
(2.19403 1.79353 4.92843e-21)
(1.78389 2.77532 0)
(1.08654 6.92481 0)
(10.6046 -15.7155 1.85955e-18)
(11.333 -16.7383 0)
(12.7124 -15.8817 0)
(14.1368 -14.7818 0)
(15.5042 -13.0955 -3.47913e-20)
(16.4157 -10.5063 -5.72369e-20)
(16.3916 -7.42033 0)
(16.3218 -4.74706 -6.01494e-20)
(17.9215 -3.75383 -2.55333e-20)
(18.8232 -2.57317 -3.40811e-20)
(19.6326 -1.66852 -3.69176e-20)
(20.2144 -1.193 0)
(20.5885 -0.798735 0)
(20.9181 -0.510296 0)
(21.1379 -0.337881 0)
(21.2702 -0.233404 0)
(21.3435 -0.166782 0)
(21.377 -0.123526 6.35268e-21)
(21.3832 -0.0954462 0)
(21.3718 -0.0767959 0)
(21.3516 -0.0636525 -3.18222e-21)
(21.3321 -0.0560673 -2.7533e-21)
(21.326 -0.0635472 3.02315e-24)
(21.3342 -0.0856561 0)
(21.3483 -0.0685673 0)
(21.3674 -0.0354215 0)
(21.3816 -0.0110972 0)
(21.3897 0.00326054 0)
(21.393 0.0112931 0)
(21.3948 0.0196091 0)
(21.3974 0.0264303 0)
(21.3982 0.0305967 0)
(21.3983 0.0355754 0)
(21.3997 0.0403944 0)
(21.4006 0.0422999 0)
(21.3992 0.0423565 3.05173e-22)
(21.3963 0.042609 0)
(21.3901 0.0414278 0)
(21.3782 0.041058 0)
(21.3629 0.0430529 0)
(21.3385 0.0428164 8.58496e-23)
(21.3013 0.0492527 0)
(21.2514 0.0634403 0)
(21.1819 0.0908704 0)
(21.1227 0.106371 0)
(21.0853 0.0623746 2.99817e-23)
(-1.31474 3.52222 1.28535e-20)
(0.148693 1.76064 0)
(1.23751 0.333826 8.46127e-21)
(1.89062 -0.943007 0)
(2.24244 -1.66737 0)
(2.47691 -1.9513 0)
(2.61439 -1.87281 4.85619e-21)
(2.64818 -1.43274 0)
(2.6005 -0.648554 5.27224e-22)
(2.44834 0.396626 0)
(2.14805 1.2744 -4.73186e-20)
(1.91204 1.80275 3.41071e-20)
(1.20585 2.54967 0)
(-22.4671 16.36 0)
(12.1724 -17.2264 -2.86742e-18)
(12.5022 -17.4617 6.74867e-20)
(13.5636 -16.7659 4.87387e-20)
(14.6998 -15.7781 -4.00431e-20)
(15.7848 -14.1051 -3.47914e-20)
(16.1091 -11.2843 0)
(16.1999 -8.55789 8.36432e-19)
(17.9847 -5.82702 -4.08351e-20)
(18.5368 -4.20884 0)
(18.9823 -3.07798 3.4733e-20)
(19.4239 -2.09728 0)
(19.8552 -1.46788 -2.53757e-20)
(20.1296 -1.04031 1.90302e-20)
(20.3594 -0.695171 0)
(20.5316 -0.45738 0)
(20.6364 -0.302608 0)
(20.6851 -0.201251 7.81121e-21)
(20.6924 -0.134079 6.09131e-21)
(20.6707 -0.0899686 -9.53495e-21)
(20.6302 -0.0616911 0)
(20.5801 -0.0446662 3.09296e-21)
(20.5295 -0.0386206 -5.30204e-21)
(20.4851 -0.0490577 -2.47154e-21)
(20.439 -0.0693646 4.03008e-21)
(20.3924 -0.0618149 -1.19412e-21)
(20.3619 -0.0350728 -8.89385e-22)
(20.3429 -0.0116145 4.08484e-22)
(20.3288 0.00380742 8.04674e-25)
(20.3166 0.013614 -3.92737e-22)
(20.307 0.021319 -3.65309e-22)
(20.3012 0.0272795 -3.52828e-22)
(20.2977 0.031369 3.49968e-22)
(20.2961 0.0354601 0)
(20.2968 0.0393426 3.18922e-22)
(20.2986 0.0416271 5.29638e-26)
(20.2995 0.0428268 0)
(20.2984 0.0442331 0)
(20.2941 0.0455768 0)
(20.2846 0.0482357 0)
(20.2701 0.0531796 -1.84191e-22)
(20.2479 0.059204 0)
(20.2155 0.0715274 0)
(20.1764 0.0916656 6.58027e-24)
(20.1369 0.117169 1.30245e-23)
(20.1177 0.119569 -4.2652e-23)
(20.0994 0.0815424 -4.36732e-23)
(-0.675584 2.65183 0)
(0.66112 1.41699 0)
(1.66234 0.213161 0)
(2.25504 -0.92507 0)
(2.56009 -1.67794 0)
(2.73799 -2.01257 0)
(2.82058 -1.97 0)
(2.78867 -1.55444 0)
(2.6257 -0.789666 0)
(2.38444 0.180208 0)
(0.707143 2.14891 0)
(-4.58247 2.63856 0)
(-14.5501 11.0827 0)
(-23.7916 14.512 0)
(12.7423 -18.1035 0)
(13.3434 -18.0547 0)
(14.194 -17.4815 0)
(15.1174 -16.6243 0)
(15.9547 -14.9525 0)
(15.9546 -12.2726 0)
(17.874 -9.10104 0)
(17.7541 -6.61756 0)
(18.1979 -4.72691 0)
(18.4918 -3.4553 0)
(18.7632 -2.45882 0)
(19.0655 -1.73438 0)
(19.2944 -1.23297 1.87599e-20)
(19.4741 -0.847371 0)
(19.6161 -0.563024 0)
(19.7112 -0.364591 0)
(19.7595 -0.228914 0)
(19.7686 -0.136619 0)
(19.7478 -0.0750117 0)
(19.7063 -0.0356787 0)
(19.6525 -0.0131864 0)
(19.594 -0.0058886 0)
(19.5344 -0.0148981 0)
(19.4686 -0.0318057 0)
(19.4002 -0.0320918 0)
(19.3456 -0.0159481 0)
(19.3066 0.00168546 0)
(19.2783 0.0142038 0)
(19.257 0.021873 0)
(19.2415 0.0269983 0)
(19.2318 0.0305661 0)
(19.2268 0.0330036 0)
(19.2254 0.0354234 0)
(19.2272 0.0379732 0)
(19.2309 0.0400856 -3.11542e-22)
(19.2344 0.0420734 -2.94328e-22)
(19.2362 0.0448066 0)
(19.2349 0.0485347 0)
(19.2289 0.0541329 0)
(19.2179 0.0623198 0)
(19.2006 0.0730922 -7.0996e-23)
(19.1769 0.0889794 1.96527e-23)
(19.1518 0.109639 -7.38141e-24)
(19.1335 0.128136 0)
(19.1294 0.123898 -3.40394e-23)
(19.1209 0.0933889 0)
(0.238606 1.45252 -1.74431e-20)
(1.18428 1.05303 0)
(2.04241 0.085508 3.40189e-21)
(2.58379 -0.90492 -2.9388e-21)
(2.86386 -1.64981 0)
(2.9911 -2.02719 0)
(3.01074 -2.02339 0)
(2.9099 -1.61519 1.13153e-20)
(2.58492 -0.884004 1.09788e-19)
(1.42167 -0.257922 0)
(1.42758 2.95682 1.03091e-20)
(-0.676191 7.36212 0)
(-12.4352 15.0363 0)
(-0.420479 3.10971 1.85915e-18)
(13.7677 -18.5423 -1.1281e-19)
(14.043 -18.4889 3.55208e-21)
(14.6628 -18.0706 -1.07705e-22)
(15.4145 -17.3391 0)
(15.9058 -15.7304 -1.26906e-19)
(16.3041 -13.7212 1.77533e-18)
(17.0022 -9.9723 2.16297e-22)
(16.9101 -7.19509 -1.05069e-19)
(17.1399 -5.20492 4.13114e-20)
(17.3977 -3.80685 3.27371e-20)
(17.6401 -2.7661 0)
(17.8937 -1.98734 4.01995e-23)
(18.1129 -1.4226 1.77338e-20)
(18.2892 -0.995382 0)
(18.4314 -0.672718 1.16449e-20)
(18.537 -0.436783 9.32918e-21)
(18.6039 -0.268416 -7.42922e-21)
(18.6349 -0.150085 5.87824e-21)
(18.6364 -0.0690173 0)
(18.6153 -0.0161496 0)
(18.5787 0.0147984 0)
(18.5326 0.0270671 0)
(18.4796 0.0227448 2.21711e-21)
(18.418 0.0101953 -1.87815e-21)
(18.3521 0.00558589 -2.83417e-24)
(18.2947 0.0122302 -1.14495e-21)
(18.2511 0.022002 -9.63545e-22)
(18.2194 0.0292081 0)
(18.1967 0.0329023 4.06021e-22)
(18.1816 0.0343083 0)
(18.1732 0.0345025 0)
(18.1703 0.0342353 0)
(18.1721 0.0343682 0)
(18.1773 0.0352347 0)
(18.1846 0.0367598 0)
(18.1919 0.0392323 2.94608e-22)
(18.1976 0.0432429 0)
(18.2004 0.0491382 1.22984e-22)
(18.199 0.057454 1.06982e-22)
(18.193 0.0685833 -8.91914e-23)
(18.1821 0.0825813 -6.94244e-23)
(18.1679 0.0999867 0)
(18.1549 0.118646 -1.48933e-23)
(18.1491 0.130993 -2.08805e-23)
(18.1508 0.124549 0)
(18.147 0.100593 -1.19335e-23)
(1.63559 -0.320267 1.88998e-20)
(1.75639 0.724398 0)
(2.41501 -0.0270317 0)
(2.88238 -0.890434 3.01018e-21)
(3.13877 -1.59917 0)
(3.2289 -1.99841 -6.83029e-21)
(3.19299 -2.02486 2.505e-21)
(2.97342 -1.6804 0)
(0.589421 0.324485 1.87688e-19)
(-1.68226 -0.56011 2.5176e-20)
(-1.10579 1.96814 -1.31966e-20)
(-1.26405 7.19492 0)
(-6.97105 20.2293 0)
(5.82754 -8.0408 0)
(14.281 -18.8971 4.80796e-20)
(14.5285 -18.7879 -6.10764e-23)
(15.0069 -18.5353 0)
(15.6153 -17.927 0)
(15.8844 -16.5932 2.2588e-19)
(17.7031 -13.3618 0)
(15.8882 -10.399 -4.91501e-20)
(15.6474 -7.65766 0)
(15.7337 -5.65019 3.48102e-20)
(15.9568 -4.17668 2.91038e-20)
(16.2065 -3.07847 2.37751e-20)
(16.4603 -2.24949 1.97495e-20)
(16.6928 -1.62948 0)
(16.8896 -1.15849 0)
(17.0533 -0.798852 -1.08879e-20)
(17.1842 -0.528535 0)
(17.2813 -0.329104 7.03135e-21)
(17.3458 -0.184524 5.5967e-21)
(17.3816 -0.0825303 0)
(17.3939 -0.0138037 3.5771e-21)
(17.388 0.0285996 2.92504e-21)
(17.3683 0.0492416 -9.73191e-25)
(17.3374 0.0521478 2.10079e-21)
(17.2956 0.0450627 1.79527e-21)
(17.2475 0.0393437 0)
(17.2028 0.0395026 1.19412e-21)
(17.1675 0.0421739 -1.00959e-21)
(17.1424 0.0435833 8.98559e-22)
(17.1261 0.0425855 -4.14424e-22)
(17.1174 0.0398302 3.91206e-22)
(17.1153 0.0363319 -3.74524e-22)
(17.1188 0.0330037 -3.62421e-22)
(17.1266 0.0306769 0)
(17.1377 0.0298467 -3.33994e-22)
(17.1504 0.0307253 3.17913e-22)
(17.1629 0.0336119 2.96892e-22)
(17.1738 0.0389065 0)
(17.1816 0.0468554 0)
(17.1854 0.0576702 0)
(17.1849 0.0713468 0)
(17.1808 0.0874997 0)
(17.1747 0.105288 -2.43666e-23)
(17.1704 0.121631 -1.92493e-23)
(17.1711 0.130147 0)
(17.1745 0.123858 5.2679e-27)
(17.1726 0.105259 -9.15915e-24)
(2.7024 -2.05933 0)
(2.30626 0.443632 0)
(2.78318 -0.107446 -3.73036e-21)
(3.16844 -0.872748 0)
(3.39073 -1.53586 0)
(3.45103 -1.93438 1.87883e-21)
(3.32347 -2.00268 5.92567e-20)
(0.320862 -0.290836 0)
(-3.88566 1.55851 0)
(-4.47933 0.684994 2.36283e-22)
(-4.04411 0.935926 0)
(-4.85374 5.99563 0)
(-11.9917 21.5867 1.5363e-18)
(14.3222 -17.9457 2.63579e-19)
(14.6472 -19.0043 2.09748e-20)
(14.8572 -19.024 -2.36186e-21)
(15.2326 -18.8952 -1.35029e-20)
(15.6816 -18.4166 -8.20414e-23)
(15.8573 -17.3336 -6.25395e-19)
(15.5949 -14.1166 0)
(14.5761 -10.653 0)
(14.2566 -8.04052 -6.01677e-20)
(14.2558 -6.06062 -5.62088e-20)
(14.4306 -4.55432 4.92377e-20)
(14.6703 -3.40727 2.07577e-20)
(14.926 -2.52975 0)
(15.1704 -1.85971 -1.47119e-20)
(15.3881 -1.3449 1.221e-20)
(15.5763 -0.948098 -9.9962e-21)
(15.7351 -0.644609 0)
(15.8641 -0.4153 6.52837e-21)
(15.9639 -0.244748 -5.20994e-21)
(16.0371 -0.121048 0)
(16.0869 -0.0347551 3.36697e-21)
(16.117 0.0215185 -2.7548e-21)
(16.1308 0.0532535 -2.30068e-21)
(16.1303 0.0655138 3.9316e-21)
(16.1173 0.0653521 0)
(16.0958 0.0613837 1.42892e-21)
(16.0732 0.0584098 0)
(16.0555 0.0560407 -1.02102e-21)
(16.0449 0.0524946 1.18779e-24)
(16.0413 0.0471011 -4.18231e-22)
(16.0442 0.0404106 3.95708e-22)
(16.0528 0.0334384 0)
(16.066 0.0272308 3.68417e-22)
(16.0828 0.0226879 3.5542e-22)
(16.1019 0.0204622 3.08376e-25)
(16.1218 0.0209421 -3.23733e-22)
(16.1408 0.0244333 0)
(16.1576 0.0311811 0)
(16.171 0.0412456 0)
(16.1802 0.0545003 -1.05567e-22)