/*--------------------------------*- C++ -*----------------------------------*\
| =========                 |                                                 |
| \\      /  F ield         | OpenFOAM: The Open Source CFD Toolbox           |
|  \\    /   O peration     | Version:  v1912                                 |
|   \\  /    A nd           | Website:  www.openfoam.com                      |
|    \\/     M anipulation  |                                                 |
\*---------------------------------------------------------------------------*/
FoamFile
{
    version     2.0;
    format      ascii;
    class       volScalarField;
    location    "26";
    object      alpha.water;
}
// * * * * * * * * * * * * * * * * * * * * * * * * * * * * * * * * * * * * * //

dimensions      [0 0 0 0 0 0 0];


internalField   nonuniform List<scalar> 
20320
(
1
1
1
1
1
1
1
1
1
1
1
1
1
1
1
1
1
1
1
1
1
1
1
1
1
1
1
1
1
1
1
1
1
1
1
1
1
1
1
1
1
1
1
1
1
1
1
1
1
1
1
1
1
1
1
1
1
1
1
1
1
1
1
1
1
1
1
1
1
1
1
1
1
1
1
1
1
1
1
1
1
1
1
1
1
1
1
1
1
1
1
1
1
1
1
1
1
1
1
1
1
1
1
1
1
1
1
1
1
1
1
1
1
1
1
1
1
1
1
1
1
1
1
1
1
1
1
1
1
1
1
1
1
1
1
1
1
1
1
1
1
1
1
1
1
1
1
1
1
1
1
1
1
1
1
1
1
1
1
1
1
1
1
1
1
1
1
1
1
1
1
1
1
1
1
1
1
1
1
1
1
1
1
1
1
1
1
1
1
1
1
1
1
1
1
1
1
1
1
1
1
1
1
1
1
1
1
1
1
1
1
1
1
1
1
1
1
1
1
1
1
1
1
1
1
1
1
1
1
1
1
1
1
1
1
1
1
1
1
1
1
1
1
1
1
1
1
1
1
1
1
1
1
1
1
1
1
1
1
1
1
1
1
1
1
1
1
1
1
1
1
1
1
1
1
1
1
1
1
1
1
1
1
1
1
1
1
1
1
1
1
1
1
1
1
1
1
1
1
1
1
1
1
1
1
1
1
1
1
1
1
1
1
1
1
1
1
1
1
1
1
1
1
1
1
1
1
1
1
1
1
1
1
1
1
1
1
1
1
1
1
1
1
1
1
1
1
1
1
1
1
1
1
1
1
1
1
1
1
1
1
1
1
1
1
1
1
1
1
1
1
1
1
1
1
1
1
1
1
1
1
1
1
1
1
1
1
1
1
1
1
1
1
1
1
1
1
1
1
0.999999
0.999912
0.999961
0.99998
0.999964
0.999866
0.99999
0.99999
0.999992
0.999992
0.993872
0.992826
0.743441
0.519991
0.703258
0.795101
0.850899
0.943758
0.98341
0.984969
0.960866
0.916635
0.942899
0.999246
1
1
1
1
1
1
1
1
1
1
1
1
1
1
1
1
1
1
1
1
1
1
1
1
1
1
1
1
1
1
1
1
1
1
1
1
0.99819
0.986989
0.995955
0.99998
0.997092
0.999564
0.999698
0.999875
1
1
0.967286
0.916976
0.769879
1.62885e-20
8.1205e-22
-8.88909e-23
9.23005e-07
0.00227003
0.00544542
2.86557e-20
-2.83175e-29
1.43623e-29
0.00446024
0.995212
1
1
1
1
1
1
1
1
1
1
1
1
1
1
1
1
1
1
1
1
1
1
1
1
1
1
1
1
1
1
1
1
1
1
1
1
1
0.972379
0.99198
0.933672
0.981556
1
1
0.999998
1
0.999996
0.993348
0.999996
0.756277
0.658494
0.000778028
-1.3803e-21
-2.33498e-27
4.48588e-08
1.71846e-25
3.52917e-09
1.32595e-28
8.00489e-09
1.1862e-19
1
1
1
1
1
1
1
1
1
1
1
1
1
1
1
1
1
1
1
1
1
1
1
1
1
1
1
1
1
1
1
1
1
1
1
1
1
1
0.999995
0.995839
0.904042
1
0.991951
0.99151
1
1
0.999798
0.999891
0.999996
0.876743
0.757613
0.232856
0.604694
0.568752
0.0519692
0.000603698
-1.178e-23
0.000273474
2.10311e-40
0.298226
1
1
1
1
1
1
1
1
1
1
1
1
1
1
1
1
1
1
1
1
1
1
1
1
1
1
1
1
1
1
1
1
1
1
1
1
1
1
0.99978
0.847077
0.996214
0.978952
0.945076
0.973541
0.986906
0.999887
0.999971
1
1
1
0.851782
0.921434
0.0120914
0.0120914
0.170792
1.19213e-19
1.01682e-05
0.000469142
-3.68644e-23
0.884433
1
1
1
1
1
1
1
1
1
1
1
1
1
1
1
1
1
1
1
1
1
1
1
1
1
1
1
1
1
1
1
1
1
1
1
1
1
1
0.997662
0.962766
0.997251
0.995945
0.999997
0.928652
0.914511
0.999318
0.999673
1
0.719312
0.596358
1
0.164003
0.866241
0.53276
0.000173934
1.15955e-22
9.059e-25
3.9004e-05
0.142381
1
1
1
1
1
1
1
1
0.999295
0.990948
0.978679
0.969661
0.965756
0.968167
0.97502
0.984373
0.999225
1
1
1
1
1
1
1
1
1
1
1
1
1
1
1
1
1
1
1
1
1
1
1
0.989735
0.988529
0.999637
0.999932
1
1
0.938957
0.99931
1
0.73522
0.981767
0.880832
0.0162134
0.919267
0.0780609
0.00148146
0.000877178
0.00113497
2.18887e-22
0.948365
1
1
1
1
1
0.868139
0.336809
1.56961e-19
-2.67653e-20
-2.77087e-20
-2.85283e-20
-2.65134e-20
-2.30736e-20
-1.23823e-20
1.85418e-21
6.76054e-05
0.00174434
0.00749805
0.0163584
0.0244763
0.0334585
0.0338822
0.031778
0.0295733
0.0295488
0.0308802
0.036283
0.0489144
0.0714426
0.102333
0.150588
0.220293
0.266606
0.333453
0.350419
0.333902
0.397973
0.517184
0.397031
1
0.920352
1
1
0.999992
0.999984
0.999991
0.993356
0.903449
0.974293
1
1
0.775232
0.336259
0.555311
0.0006319
0.000124325
0.00861951
-3.02829e-23
0.470303
1
1
1
1
1
0.278617
-1.75847e-19
-3.71141e-20
-2.98124e-20
-2.33343e-20
-1.76005e-20
-1.52254e-20
-1.61749e-20
-1.87081e-20
-2.14116e-20
-2.36521e-20
-2.5256e-20
-2.64476e-20
-2.71057e-20
-2.72691e-20
-2.70031e-20
-2.62581e-20
-2.48628e-20
-2.27949e-20
-2.03743e-20
-1.79475e-20
-1.59344e-20
-1.46426e-20
-1.41987e-20
-1.45293e-20
-1.5425e-20
-1.67015e-20
-1.77715e-20
-1.83565e-20
-1.77207e-20
-1.41541e-20
-5.7101e-21
3.16085e-24
-2.83393e-23
-6.57217e-24
1
0.835905
1
0.996543
1
1
1
0.999768
1
0.869389
0.999296
0.999999
0.970228
1
0.489139
0.0294477
0.01782
0.0610166
5.26898e-19
1
1
1
1
1
0.221337
-5.01774e-21
-2.43524e-20
-1.80569e-20
-1.38017e-20
-1.15406e-20
-1.07234e-20
-1.07596e-20
-1.12006e-20
-1.18543e-20
-1.25914e-20
-1.32559e-20
-1.37184e-20
-1.39465e-20
-1.40055e-20
-1.39158e-20
-1.36606e-20
-1.32791e-20
-1.28499e-20
-1.24613e-20
-1.21888e-20
-1.20825e-20
-1.21621e-20
-1.24205e-20
-1.28316e-20
-1.33565e-20
-1.39454e-20
-1.45424e-20
-1.50968e-20
-1.55676e-20
-1.59193e-20
-1.61317e-20
-1.62148e-20
-1.62291e-20
-1.62272e-20
-1.62166e-20
0.965388
0.852903
0.99982
0.995987
1
0.941531
0.912331
0.984003
0.99029
0.752352
0.991581
0.999999
1
1
0.336222
-3.55362e-21
0.0719407
-1.19917e-36
0.71273
1
1
1
1
0.590051
1.04827e-19
-1.25967e-20
-1.54421e-20
-1.13959e-20
-8.78689e-21
-7.74733e-21
-7.47593e-21
-7.57758e-21
-7.81971e-21
-8.05992e-21
-8.25413e-21
-8.41385e-21
-8.54611e-21
-8.64353e-21
-8.70808e-21
-8.74629e-21
-8.75054e-21
-8.72897e-21
-8.70222e-21
-8.69957e-21
-8.75342e-21
-8.89104e-21
-9.12391e-21
-9.43948e-21
-9.80104e-21
-1.01589e-20
-1.04668e-20
-1.06962e-20
-1.08414e-20
-1.0912e-20
-1.0922e-20
-1.08831e-20
-1.08065e-20
-1.07268e-20
-1.06759e-20
-1.06468e-20
0.983279
0.991675
0.926635
1
0.917277
0.79726
1
1
1
0.999329
0.955032
0.614176
1
0.894876
0.140652
2.51911e-20
0.0225899
7.51521e-19
1
1
1
1
1
-9.39061e-19
-9.29571e-21
-1.02526e-20
-9.36201e-21
-7.87153e-21
-6.43439e-21
-5.54278e-21
-5.17612e-21
-5.12223e-21
-5.19361e-21
-5.28306e-21
-5.3553e-21
-5.40997e-21
-5.44952e-21
-5.47366e-21
-5.48648e-21
-5.49772e-21
-5.50806e-21
-5.51569e-21
-5.5288e-21
-5.5615e-21
-5.63118e-21
-5.75293e-21
-5.93262e-21
-6.16226e-21
-6.42131e-21
-6.68443e-21
-6.93116e-21
-7.15118e-21
-7.34257e-21
-7.50511e-21
-7.63496e-21
-7.72512e-21
-7.77118e-21
-7.78077e-21
-7.76504e-21
-7.74066e-21
1
0.995575
0.821246
0.992986
0.796591
1
0.977177
0.874569
0.997174
0.993509
0.997693
0.475039
0.71036
0.0945932
0.37918
-3.37146e-22
-3.59004e-36
0.74053
1
1
1
1
0.149084
-3.4536e-21
-1.22124e-20
-9.1787e-21
-7.09061e-21
-5.56529e-21
-4.47778e-21
-3.81784e-21
-3.48663e-21
-3.35146e-21
-3.3094e-21
-3.30399e-21
-3.31338e-21
-3.33022e-21
-3.3482e-21
-3.36053e-21
-3.3636e-21
-3.35764e-21
-3.34845e-21
-3.34333e-21
-3.34533e-21
-3.36566e-21
-3.4159e-21
-3.5051e-21
-3.63658e-21
-3.80597e-21
-4.0022e-21
-4.21095e-21
-4.41813e-21
-4.61118e-21
-4.77825e-21
-4.90734e-21
-4.98755e-21
-5.01326e-21
-4.98911e-21
-4.93497e-21
-4.87569e-21
-4.82272e-21
1
0.925567
0.957256
0.952873
0.999856
0.901099
0.811587
0.855771
0.922326
0.904805
1
0.679996
0.718893
0.0048828
0.37919
-2.0997e-28
-4.30075e-19
1
1
1
1
0.859818
6.67913e-20
-1.60995e-20
-9.76367e-21
-6.5121e-21
-4.87681e-21
-3.77663e-21
-3.01694e-21
-2.52417e-21
-2.22683e-21
-2.05707e-21
-1.96466e-21
-1.91896e-21
-1.90169e-21
-1.89962e-21
-1.90158e-21
-1.89988e-21
-1.8922e-21
-1.88087e-21
-1.87087e-21
-1.86808e-21
-1.87867e-21
-1.90922e-21
-1.96294e-21
-2.04157e-21
-2.14524e-21
-2.26971e-21
-2.40672e-21
-2.54566e-21
-2.67537e-21
-2.78544e-21
-2.86701e-21
-2.91423e-21
-2.92599e-21
-2.90735e-21
-2.87173e-21
-2.83579e-21
-2.80686e-21
-2.78946e-21
0.886087
0.851771
0.995299
0.942257
0.912169
0.812865
1
1
1
0.821019
0.826668
1
0.35057
0.0582753
0.252585
-1.61715e-22
0.560668
1
1
1
1
0.0678322
-1.3733e-20
-1.05172e-20
-6.47812e-21
-4.62359e-21
-3.35887e-21
-2.50149e-21
-1.92637e-21
-1.5497e-21
-1.30977e-21
-1.15999e-21
-1.06855e-21
-1.01476e-21
-9.84342e-22
-9.66681e-22
-9.54364e-22
-9.43662e-22
-9.34407e-22
-9.28721e-22
-9.29406e-22
-9.38973e-22
-9.59346e-22
-9.91855e-22
-1.03712e-21
-1.09473e-21
-1.1637e-21
-1.24244e-21
-1.32502e-21
-1.40388e-21
-1.47174e-21
-1.52277e-21
-1.55406e-21
-1.56623e-21
-1.56359e-21
-1.55432e-21
-1.54353e-21
-1.53551e-21
-1.53404e-21
-1.54105e-21
0.886087
0.999669
0.880081
0.968895
0.805497
0.999998
1
0.997776
1
0.406451
0.412285
0.987713
-2.23062e-22
0.0117101
0.36303
1.25184e-21
0.984675
1
1
1
0.769244
-1.07763e-19
-1.09562e-20
-6.5833e-21
-4.65649e-21
-3.20673e-21
-2.22126e-21
-1.56945e-21
-1.1459e-21
-8.73554e-22
-6.99637e-22
-5.88863e-22
-5.18507e-22
-4.73835e-22
-4.4506e-22
-4.25748e-22
-4.12156e-22
-4.02736e-22
-3.97447e-22
-3.96963e-22
-4.02039e-22
-4.13236e-22
-4.30899e-22
-4.55153e-22
-4.8578e-22
-5.22e-22
-5.62273e-22
-6.04286e-22
-6.4521e-22
-6.82141e-22
-7.12667e-22
-7.3534e-22
-7.49982e-22
-7.57697e-22
-7.60613e-22
-7.61434e-22
-7.629e-22
-7.67265e-22
-7.75901e-22
-7.89186e-22
0.999681
0.994068
0.641649
0.882128
0.9636
0.999939
0.999999
1
1
0.849757
0.0317553
0.965411
0.296871
0.000229338
0.306341
0.117835
1
1
1
1
0.066097
-1.83235e-21
-6.83224e-21
-4.96137e-21
-3.35049e-21
-2.18653e-21
-1.42036e-21
-9.36021e-22
-6.35107e-22
-4.49419e-22
-3.34652e-22
-2.63179e-22
-2.18115e-22
-1.89139e-22
-1.70028e-22
-1.57168e-22
-1.48634e-22
-1.43555e-22
-1.41641e-22
-1.42866e-22
-1.47278e-22
-1.54912e-22
-1.65742e-22
-1.79625e-22
-1.96215e-22
-2.14881e-22
-2.34675e-22
-2.54411e-22
-2.72842e-22
-2.88885e-22
-3.01851e-22
-3.11564e-22
-3.18361e-22
-3.22986e-22
-3.26403e-22
-3.29607e-22
-3.33466e-22
-3.38595e-22
-3.45278e-22
-3.53449e-22
0.999681
0.812571
0.910814
0.815839
1
1
1
1
1
0.980624
-6.20391e-23
0.0624089
0.124936
0.236251
-4.0194e-21
0.832935
1
1
1
0.878072
-1.9211e-20
-1.10344e-20
-5.92411e-21
-3.73255e-21
-2.38101e-21
-1.45251e-21
-8.70877e-22
-5.24531e-22
-3.23299e-22
-2.07377e-22
-1.40329e-22
-1.0096e-22
-7.72499e-23
-6.25274e-23
-5.31405e-23
-4.71333e-23
-4.34756e-23
-4.16355e-23
-4.1348e-23
-4.24816e-23
-4.49662e-23
-4.87434e-23
-5.37318e-23
-5.97957e-23
-6.67209e-23
-7.42018e-23
-8.18582e-23
-8.92729e-23
-9.60569e-23
-1.01916e-22
-1.06695e-22
-1.10394e-22
-1.13145e-22
-1.1517e-22
-1.16729e-22
-1.18079e-22
-1.19432e-22
-1.20938e-22
-1.22657e-22
-1.2455e-22
0.999682
0.994736
0.992715
0.505063
1
1
1
1
1
1
0.00739497
1.02377e-15
0.0125022
0.236074
-1.66619e-19
1
1
1
1
0.126656
3.52749e-37
-9.21006e-21
-4.33769e-21
-2.72847e-21
-1.63429e-21
-9.18944e-22
-4.9975e-22
-2.69429e-22
-1.47372e-22
-8.36267e-23
-5.01928e-23
-3.22698e-23
-2.23155e-23
-1.65727e-23
-1.31727e-23
-1.11733e-23
-1.00909e-23
-9.67073e-24
-9.77728e-24
-1.03364e-23
-1.13028e-23
-1.26399e-23
-1.4306e-23
-1.62454e-23
-1.83818e-23
-2.06191e-23
-2.28456e-23
-2.49452e-23
-2.68134e-23
-2.83703e-23
-2.95719e-23
-3.04125e-23
-3.09198e-23
-3.11462e-23
-3.11578e-23
-3.10229e-23
-3.08042e-23
-3.05512e-23
-3.02961e-23
-3.00472e-23
0.992636
0.550146
0.308911
0.849839
1
0.516325
0.162102
0.523671
0.882186
1
0.229744
7.3806e-15
0.000572687
0.0604202
0.409388
1
1
1
1
-1.58049e-19
-7.02918e-21
-4.76738e-21
-3.14299e-21
-1.91739e-21
-1.06257e-21
-5.43095e-22
-2.62854e-22
-1.23949e-22
-5.86474e-23
-2.86607e-23
-1.48469e-23
-8.3072e-24
-5.0753e-24
-3.40441e-24
-2.51513e-24
-2.04835e-24
-1.83196e-24
-1.78042e-24
-1.85011e-24
-2.01757e-24
-2.26856e-24
-2.59175e-24
-2.97482e-24
-3.40218e-24
-3.85379e-24
-4.30545e-24
-4.73041e-24
-5.10241e-24
-5.39905e-24
-5.60518e-24
-5.71489e-24
-5.7318e-24
-5.66752e-24
-5.53895e-24
-5.36526e-24
-5.16519e-24
-4.95498e-24
-4.74755e-24
-4.55205e-24
-4.37287e-24
0.981187
0.461587
0.892631
1
0.207098
1.03323e-21
-1.10247e-21
2.03043e-32
3.25157e-20
0.508382
0.83979
-5.4583e-26
1.08201e-05
-1.17452e-19
0.903259
1
1
1
0.31092
-2.52138e-20
-6.06549e-21
-3.91218e-21
-2.34207e-21
-1.29786e-21
-6.51817e-22
-2.96222e-22
-1.24436e-22
-4.99258e-23
-1.98251e-23
-8.08015e-24
-3.49747e-24
-1.65301e-24
-8.71922e-25
-5.22256e-25
-3.59516e-25
-2.84816e-25
-2.56049e-25
-2.54362e-25
-2.70832e-25
-3.00852e-25
-3.41512e-25
-3.90353e-25
-4.44643e-25
-5.01134e-25
-5.56034e-25
-6.05252e-25
-6.44903e-25
-6.71822e-25
-6.84137e-25
-6.81524e-25
-6.6524e-25
-6.37784e-25
-6.02405e-25
-5.62512e-25
-5.21236e-25
-4.81108e-25
-4.43941e-25
-4.10864e-25
-3.82395e-25
-3.58457e-25
0.000316526
0.558266
0.269584
0.0370817
-2.0756e-28
7.06391e-09
3.54701e-14
1.42538e-10
5.80984e-10
5.01219e-10
0.298522
0.508339
0.0443454
-9.54424e-20
1
1
1
1
0.000248813
-5.36252e-21
-4.35094e-21
-2.97547e-21
-1.69354e-21
-8.45778e-22
-3.74405e-22
-1.4676e-22
-5.18963e-23
-1.71327e-23
-5.5036e-24
-1.79894e-24
-6.25625e-25
-2.41518e-25
-1.07686e-25
-5.74369e-26
-3.73571e-26
-2.93042e-26
-2.66629e-26
-2.68147e-26
-2.86115e-26
-3.14565e-26
-3.49489e-26
-3.87378e-26
-4.24697e-26
-4.57856e-26
-4.83443e-26
-4.98699e-26
-5.01914e-26
-4.92741e-26
-4.72238e-26
-4.42641e-26
-4.06913e-26
-3.68203e-26
-3.29381e-26
-2.92712e-26
-2.59739e-26
-2.3131e-26
-2.07717e-26
-1.8885e-26
-1.74317e-26
-1.63433e-26
0.0146571
1.09283e-05
5.61543e-12
1.94517e-10
5.01452e-08
9.41612e-10
6.50142e-12
3.487e-14
2.50564e-05
3.38561e-06
-1.77471e-22
2.36833e-21
-5.84804e-21
0.585913
1
1
1
0.743345
-5.72246e-20
-4.2325e-21
-3.73358e-21
-2.30863e-21
-1.17818e-21
-5.17685e-22
-1.96886e-22
-6.4572e-23
-1.85591e-23
-4.84248e-24
-1.20198e-24
-2.99852e-25
-7.98983e-26
-2.42756e-26
-9.01145e-27
-4.33079e-27
-2.7237e-27
-2.13385e-27
-1.93382e-27
-1.90476e-27
-1.95647e-27
-2.04282e-27
-2.13444e-27
-2.20923e-27
-2.25017e-27
-2.24565e-27
-2.19006e-27
-2.08443e-27
-1.93614e-27
-1.757e-27
-1.56116e-27
-1.36275e-27
-1.17363e-27
-1.00231e-27
-8.53724e-28
-7.29575e-28
-6.29223e-28
-5.50626e-28
-4.91042e-28
-4.47576e-28
-4.17354e-28
-3.97109e-28
0.0100103
0.004992
2.03323e-28
4.44347e-08
1.48019e-10
1.30627e-09
3.40837e-11
7.2277e-05
0.00028159
7.5271e-05
2.25434e-05
-2.61032e-22
-2.02735e-20
0.979376
1
1
1
0.123166
-3.55356e-21
-4.68449e-21
-3.15645e-21
-1.70141e-21
-7.65015e-22
-2.90661e-22
-9.26429e-23
-2.45763e-23
-5.50272e-24
-1.0772e-24
-1.94545e-25
-3.47227e-26
-6.67395e-27
-1.53423e-27
-4.74511e-28
-2.11962e-28
-1.31174e-28
-1.00582e-28
-8.67807e-29
-7.94197e-29
-7.45855e-29
-7.05197e-29
-6.63558e-29
-6.16871e-29
-5.63991e-29
-5.0578e-29
-4.44421e-29
-3.82714e-29
-3.2349e-29
-2.69094e-29
-2.21122e-29
-1.8032e-29
-1.4671e-29
-1.1977e-29
-9.86736e-30
-8.24731e-30
-7.02561e-30
-6.1215e-30
-5.46799e-30
-5.01072e-30
-4.70375e-30
-4.49842e-30
2.90076e-05
2.4643e-11
2.22004e-09
-2.30898e-26
2.00916e-06
6.01031e-08
-1.67824e-24
0.000281733
0.000282118
0.00018406
0.000253764
2.49536e-25
0.105253
1
1
1
1
-3.52508e-19
-6.879e-21
-4.69309e-21
-2.53574e-21
-1.17521e-21
-4.5963e-22
-1.47751e-22
-3.82099e-23
-7.8515e-24
-1.29481e-24
-1.7734e-25
-2.14405e-26
-2.50187e-27
-3.20321e-28
-5.38909e-29
-1.43754e-29
-6.21562e-30
-3.71312e-30
-2.62474e-30
-2.01462e-30
-1.60853e-30
-1.3068e-30
-1.06632e-30
-8.67082e-31
-6.99477e-31
-5.58413e-31
-4.4078e-31
-3.44186e-31
-2.66354e-31
-2.04835e-31
-1.57077e-31
-1.20601e-31
-9.31023e-32
-7.25656e-32
-5.73309e-32
-4.60705e-32
-3.77676e-32
-3.16628e-32
-2.71961e-32
-2.3959e-32
-2.16472e-32
-2.00129e-32
-1.8795e-32
1.90132e-05
1.11753e-10
4.83872e-24
3.26729e-06
2.31629e-07
-6.63418e-26
1.01405e-07
1.38353e-11
1.38353e-11
0.000274659
7.14312e-06
-1.14415e-19
0.859238
1
1
1
0.420771
-1.91397e-20
-8.2921e-21
-4.02739e-21
-1.86442e-21
-7.58435e-22
-2.54051e-22
-6.69841e-23
-1.34655e-23
-2.02263e-24
-2.27421e-25
-1.97018e-26
-1.406e-27
-9.33189e-29
-7.13811e-30
-8.85828e-31
-2.22819e-31
-9.31022e-32
-4.95286e-32
-2.94841e-32
-1.86155e-32
-1.21577e-32
-8.10295e-33
-5.46877e-33
-3.7209e-33
-2.54627e-33
-1.75125e-33
-1.21079e-33
-8.42422e-34
-5.90697e-34
-4.18086e-34
-2.99146e-34
-2.16665e-34
-1.5905e-34
-1.18476e-34
-8.96766e-35
-6.90896e-35
-5.42879e-35
-4.36044e-35
-3.58826e-35
-3.03093e-35
-2.6297e-35
-2.33847e-35
-2.11323e-35
0.00016799
2.10992e-09
1.40921e-07
5.83058e-06
-1.03828e-22
0.00283253
5.60001e-09
2.70262e-06
1.38353e-11
6.35098e-05
1.31127e-25
-1.56123e-18
1
1
1
1
0.0242074
-4.93907e-21
-5.61189e-21
-2.9835e-21
-1.27024e-21
-4.55165e-22
-1.27567e-22
-2.65142e-23
-3.91768e-24
-3.97274e-25
-2.71541e-26
-1.26529e-27
-4.2826e-29
-1.25597e-30
-5.05966e-32
-5.53181e-33
-1.41019e-33
-5.05287e-34
-2.09773e-34
-9.49009e-35
-4.56443e-35
-2.30422e-35
-1.21172e-35
-6.60595e-36
-3.72162e-36
-2.16122e-36
-1.29132e-36
-7.91799e-37
-4.97064e-37
-3.18559e-37
-2.07799e-37
-1.37638e-37
-9.24117e-38
-6.28473e-38
-4.33095e-38
-3.02878e-38
-2.15468e-38
-1.56443e-38
-1.16368e-38
-8.90163e-39
-7.02693e-39
-5.73466e-39
-4.82862e-39
-4.15185e-39
0.000208948
9.06221e-27
8.28719e-07
3.77116e-08
0.000943569
0.00345199
1.38353e-11
3.20467e-05
1.38353e-11
3.28435e-05
-1.27137e-19
0.752219
1
1
1
0.93019
-1.34512e-19
-7.76741e-21
-4.31474e-21
-2.06549e-21
-8.10638e-22
-2.51841e-22
-5.70743e-23
-8.88824e-24
-8.94774e-25
-5.43917e-26
-1.86809e-27
-3.4248e-29
-3.28527e-31
-2.26418e-33
-6.85973e-35
-9.70235e-36
-1.98557e-36
-4.82723e-37
-1.33913e-37
-4.21767e-38
-1.48092e-38
-5.69931e-39
-2.37955e-39
-1.06779e-39
-5.09843e-40
-2.5654e-40
-1.34755e-40
-7.32148e-41
-4.08269e-41
-2.32239e-41
-1.34136e-41
-7.84503e-42
-4.64149e-42
-2.77915e-42
-1.68721e-42
-1.04176e-42
-6.56776e-43
-4.24784e-43
-2.8331e-43
-1.95842e-43
-1.4092e-43
-1.05761e-43
-8.2508e-44
-6.59442e-44
3.12291e-08
-7.98573e-27
1.21936e-11
1.21936e-11
0.00282533
0.00111977
5.66145e-08
4.52796e-09
4.09798e-05
1.74791e-07
2.90662e-20
1
1
1
1
0.187039
-1.59059e-20
-5.03448e-21
-3.0846e-21
-1.3798e-21
-4.88025e-22
-1.267e-22
-2.21684e-23
-2.41501e-24
-1.48e-25
-4.42303e-27
-5.11814e-29
-1.3452e-31
-2.9282e-35
-5.77036e-37
-4.62235e-38
-4.32872e-39
-4.31761e-40
-4.81959e-41
-6.40447e-42
-1.05478e-42
-2.26578e-43
-6.16124e-44
-1.96918e-44
-7.27628e-45
-2.91853e-45
-1.22892e-45
-5.37104e-46
-2.41733e-46
-1.11323e-46
-5.21987e-47
-2.48574e-47
-1.20071e-47
-5.88101e-48
-2.92636e-48
-1.48292e-48
-7.67743e-49
-4.0796e-49
-2.23543e-49
-1.2692e-49
-7.50302e-50
-4.63317e-50
-2.98834e-50
-1.99913e-50
-1.35803e-50
0.00159657
1.43078e-06
1.49157e-11
3.65642e-07
1.3381e-10
1.3381e-10
1.82804e-08
4.50236e-09
3.50342e-05
-3.23191e-24
0.731395
1
1
1
1
2.25034e-20
-8.04725e-21
-4.9996e-21
-2.26796e-21
-8.96004e-22
-2.73321e-22
-5.66316e-23
-7.20173e-24
-4.98058e-25
-1.54194e-26
-1.4654e-28
-8.36375e-32
-5.80019e-37
-1.42063e-38
-4.18002e-40
-1.0672e-41
-2.28603e-43
-4.51606e-45
-1.01602e-46
-3.29933e-48
-1.72873e-49
-1.42842e-50
-1.69542e-51
-2.64121e-52
-5.04042e-53
-1.17867e-53
-3.36264e-54
-1.07249e-54
-3.71658e-55
-1.32057e-55
-4.77958e-56
-1.75922e-56
-6.57565e-57
-2.49397e-57
-9.61474e-58
-3.77947e-58
-1.52607e-58
-6.51452e-59
-3.35936e-59
-3.03269e-59
-5.53142e-59
-1.38216e-58
-3.70332e-58
-9.8811e-58
-2.55624e-57
0.00183384
-2.34794e-24
1.03655e-10
3.04498e-08
1.3381e-10
1.3381e-10
5.16999e-09
8.24393e-06
9.62755e-06
-7.24983e-19
1
1
1
1
0.444848
-4.18861e-21
-8.8421e-21
-3.94218e-21
-1.59225e-21
-5.5142e-22
-1.38785e-22
-2.17901e-23
-1.85708e-24
-6.96375e-26
-7.37385e-28
-1.62804e-31
-1.10877e-37
-1.09602e-39
-1.014e-41
-5.36186e-44
-6.99726e-47
-5.22875e-51
-2.4032e-54
-1.26994e-58
-7.73958e-63
-1.0639e-64
-1.43933e-66
-3.80099e-67
-1.29995e-66
-4.3792e-66
-1.39869e-65
-4.25081e-65
-1.23297e-64
-3.42911e-64
-9.21298e-64
-2.45378e-63
-6.42518e-63
-1.6643e-62
-4.2795e-62
-1.08647e-61
-2.77598e-61
-7.09916e-61
-1.85238e-60
-4.97604e-60
-1.38783e-59
-4.04346e-59
-1.22768e-58
-3.83526e-58
-1.20426e-57
-3.68151e-57
1.16983e-07
4.4226e-11
8.16903e-10
1.3381e-10
1.3381e-10
4.52261e-09
9.06578e-10
1.1808e-05
-2.05827e-24
0.828016
1
1
1
1
0.0122468
2.77618e-38
-5.16068e-21
-2.81312e-21
-1.06679e-21
-3.13951e-22
-6.21416e-23
-6.9104e-24
-3.48685e-25
-5.21864e-27
-3.28567e-30
-9.903e-38
-4.11464e-40
-1.31201e-42
-1.15895e-45
-2.33793e-51
-7.56112e-56
-1.49415e-57
-2.73953e-59
-4.5482e-61
-6.81388e-63
-9.21707e-65
-1.15865e-66
-1.3247e-67
-4.60165e-67
-1.65815e-66
-5.63188e-66
-1.80794e-65
-5.50275e-65
-1.59309e-64
-4.40358e-64
-1.16699e-63
-2.98299e-63
-7.44019e-63
-1.86048e-62
-4.63388e-62
-1.17324e-61
-2.99307e-61
-7.96254e-61
-2.20269e-60
-6.4632e-60
-2.0295e-59
-6.80703e-59
-2.41152e-58
-8.78146e-58
-3.11935e-57
4.50767e-12
3.83027e-10
1.16405e-09
1.54093e-10
3.1713e-10
2.31494e-09
3.52882e-06
3.68684e-06
0.0810763
1
1
1
1
0.759496
-4.26784e-20
-5.62106e-21
-4.36913e-21
-1.9501e-21
-6.54086e-22
-1.59787e-22
-2.36969e-23
-1.6956e-24
-4.03742e-26
-9.12798e-29
-3.62482e-37
-7.22146e-40
-1.0283e-42
-2.94958e-46
-1.21118e-52
-2.86416e-54
-6.49537e-56
-1.34745e-57
-2.52069e-59
-4.23889e-61
-6.40537e-63
-8.69801e-65
-1.06691e-66
-3.34362e-68
-9.25445e-68
-3.6551e-67
-1.34817e-66
-4.64957e-66
-1.50471e-65
-4.58631e-65
-1.32253e-64
-3.62436e-64
-9.49782e-64
-2.39474e-63
-5.86137e-63
-1.41071e-62
-3.40239e-62
-8.44734e-62
-2.22704e-61
-6.167e-61
-1.86142e-60
-6.11557e-60
-2.1918e-59
-8.49817e-59
-3.44533e-58
-1.36285e-57
9.37999e-11
2.21091e-09
3.19784e-10
1.63696e-10
1.58786e-09
5.23985e-10
8.31166e-06
3.31012e-07
0.940969
1
1
1
1
0.083215
-1.04672e-20
-5.12062e-21
-2.97208e-21
-1.20693e-21
-3.62102e-22
-7.1169e-23
-7.35438e-24
-2.882e-25
-1.8936e-27
-5.61843e-33
-4.34709e-39
-3.93305e-42
-7.03651e-46
-3.57725e-51
-9.56501e-53
-2.43492e-54
-5.661e-56
-1.18332e-57
-2.22328e-59
-3.76559e-61
-5.75158e-63
-7.92079e-65
-9.83325e-67
-1.29314e-68
-9.56363e-69
-4.23422e-68
-1.75339e-67
-6.70041e-67
-2.3664e-66
-7.75516e-66
-2.37061e-65
-6.80211e-65
-1.84529e-64
-4.77671e-64
-1.1929e-63
-2.91486e-63
-7.08192e-63
-1.74279e-62
-4.42448e-62
-1.18281e-61
-3.45305e-61
-1.11891e-60
-4.04077e-60
-1.60618e-59
-6.72755e-59
-2.81317e-58
2.13972e-09
4.43576e-09
1.17323e-10
1.10645e-10
1.10645e-10
7.00327e-07
9.9695e-07
0.55662
1
1
1
1
0.905913
9.71246e-20
-6.4513e-21
-3.82312e-21
-1.9209e-21
-7.06554e-22
-1.82087e-22
-2.70433e-23
-1.73116e-24
-2.69143e-26
-1.54278e-30
-4.94031e-36
-4.62435e-41
-7.70054e-45
-9.33545e-50
-2.74775e-51
-7.78108e-53
-2.01516e-54
-4.69132e-56
-9.82179e-58
-1.85256e-59
-3.15549e-61
-4.85621e-63
-6.74885e-65
-8.4659e-67
-9.6724e-69
-5.94364e-70
-2.4659e-69
-1.14632e-68
-4.9568e-68
-1.97482e-67
-7.21079e-67
-2.41299e-66
-7.43853e-66
-2.13017e-65
-5.73432e-65
-1.47292e-64
-3.67868e-64
-9.13818e-64
-2.31187e-63
-6.0908e-63
-1.69868e-62
-5.05591e-62
-1.60524e-61
-5.42458e-61
-1.9223e-60
-7.29433e-60
-3.16901e-59
6.32136e-09
1.00348e-09
1.0309e-08
2.21286e-08
2.54534e-06
2.41941e-06
0.047936
1
1
1
1
1
0.114731
-4.42423e-21
-4.20008e-21
-2.61994e-21
-1.18683e-21
-3.91497e-22
-8.17748e-23
-8.37754e-24
-2.70596e-25
-5.71884e-28
-1.81807e-33
-1.34109e-36
-4.01988e-43
-2.11801e-48
-6.79304e-50
-2.12397e-51
-6.10648e-53
-1.58044e-54
-3.67604e-56
-7.70015e-58
-1.45586e-59
-2.49042e-61
-3.85658e-63
-5.40486e-65
-6.85485e-67
-7.85841e-69
-9.7679e-71
-8.79908e-71
-4.34211e-70
-2.02313e-69
-8.80181e-69
-3.5642e-68
-1.3343e-67
-4.58016e-67
-1.43625e-66
-4.14301e-66
-1.1167e-65
-2.88063e-65
-7.33866e-65
-1.91175e-64
-5.26143e-64
-1.56387e-63
-5.03798e-63
-1.73133e-62
-6.15875e-62
-2.20004e-61
-7.75693e-61
-2.52741e-60
0.000336282
5.24668e-05
2.57904e-25
5.71272e-11
1.25513e-06
9.22982e-09
0.978654
1
1
1
1
0.906501
8.38413e-20
-7.07147e-21
-3.71662e-21
-1.86359e-21
-7.30355e-22
-2.02082e-22
-3.17276e-23
-1.96842e-24
-2.01709e-26
-5.71069e-31
-4.4829e-34
-3.24089e-37
-3.03231e-44
-1.4497e-48
-4.96786e-50
-1.58017e-51
-4.53407e-53
-1.17025e-54
-2.7199e-56
-5.69784e-58
-1.07873e-59
-1.85065e-61
-2.88041e-63
-4.0657e-65
-5.20176e-67
-6.02186e-69
-6.33371e-71
-2.9334e-72
-1.20968e-71
-5.87594e-71
-2.68112e-70
-1.14276e-69
-4.53085e-69
-1.66815e-68
-5.70907e-68
-1.80841e-67
-5.2871e-67
-1.44285e-66
-3.79892e-66
-1.01184e-65
-2.86482e-65
-8.87406e-65
-2.98564e-64
-1.04503e-63
-3.58179e-63
-1.12388e-62
-2.98746e-62
-5.97141e-62
0.00108883
8.72277e-06
-7.41186e-27
2.99965e-07
8.7863e-09
0.851752
1
1
1
1
1
0.0932916
-1.45661e-21
-4.595e-21
-2.79785e-21
-1.26348e-21
-4.23004e-22
-9.31584e-23
-1.02218e-23
-3.11044e-25
-2.572e-28
-1.63772e-31
-9.42464e-35
-6.58739e-38
-3.90358e-45
-1.00086e-48
-3.50296e-50
-1.11138e-51
-3.17486e-53
-8.16911e-55
-1.89413e-56
-3.96533e-58
-7.51159e-60
-1.29112e-61
-2.01633e-63
-2.8601e-65
-3.68331e-67
-4.29959e-69
-4.54002e-71
-4.8435e-73
-2.80589e-73
-1.39788e-72
-6.61281e-72
-2.91692e-71
-1.19613e-70
-4.55936e-70
-1.61291e-69
-5.29132e-69
-1.61973e-68
-4.67161e-68
-1.27831e-67
-3.40426e-67
-9.30101e-67
-2.73231e-66
-8.64188e-66
-2.79567e-65
-8.55555e-65
-2.27946e-64
-4.85963e-64
-7.58877e-64
1.47779e-05
1.09998e-27
3.40962e-07
9.42293e-08
0.750522
1
1
1
1
1
0.755752
-6.86175e-20
-3.78525e-21
-3.38516e-21
-1.96275e-21
-7.85804e-22
-2.20009e-22
-3.75394e-23
-2.69508e-24
-2.99763e-26
-1.37955e-28
-5.47459e-32
-1.60731e-35
-1.06137e-38
-4.33104e-46
-6.70143e-49
-2.33705e-50
-7.36292e-52
-2.09131e-53
-5.35661e-55
-1.23788e-56
-2.58589e-58
-4.89421e-60
-8.41704e-62
-1.31704e-63
-1.87503e-65
-2.4273e-67
-2.85277e-69
-3.03697e-71
-2.93235e-73
-7.56825e-75
-2.64698e-74
-1.30221e-73
-5.9761e-73
-2.54866e-72
-1.00707e-71
-3.67201e-71
-1.23241e-70
-3.81935e-70
-1.09735e-69
-2.95291e-69
-7.62284e-69
-1.9255e-68
-4.89539e-68
-1.29713e-67
-3.55993e-67
-9.5205e-67
-2.26227e-66
-4.31513e-66
-6.01383e-66
2.28616e-08
1.69538e-07
1.74345e-17
0.805124
1
1
1
1
1
1
0.00903708
-3.57475e-21
-4.20066e-21
-2.85041e-21
-1.3252e-21
-4.46279e-22
-1.034e-22
-1.37648e-23
-6.50715e-25
-9.89402e-27
-9.70624e-29
-1.85684e-32
-2.11651e-36
-1.27059e-39
-4.72942e-47
-4.26936e-49
-1.47284e-50
-4.59444e-52
-1.29423e-53
-3.29311e-55
-7.57168e-57
-1.57559e-58
-2.9748e-60
-5.1114e-62
-8.00218e-64
-1.14122e-65
-1.48246e-67
-1.75084e-69
-1.87591e-71
-1.81909e-73
-1.65796e-75
-3.6818e-76
-1.84176e-75
-8.89086e-75
-3.98652e-74
-1.65222e-73
-6.29792e-73
-2.19836e-72
-7.02106e-72
-2.04773e-71
-5.46286e-71
-1.34619e-70
-3.09578e-70
-6.82053e-70
-1.47317e-69
-3.14861e-69
-6.62027e-69
-1.30755e-68
-2.23522e-68
-3.05118e-68
0.205654
0.108195
1
1
1
1
1
1
1
0.318468
-5.30315e-37
-5.17653e-21
-3.77639e-21
-2.03572e-21
-8.10403e-22
-2.35226e-22
-4.67755e-23
-5.36937e-24
-2.45718e-25
-7.57024e-27
-6.62348e-29
-5.27802e-33
-2.07701e-37
-1.06515e-40
-9.37819e-48
-2.59119e-49
-8.80304e-51
-2.70867e-52
-7.53928e-54
-1.89921e-55
-4.33253e-57
-8.95843e-59
-1.68383e-60
-2.88371e-62
-4.50721e-64
-6.42676e-66
-8.35898e-68
-9.90037e-70
-1.06497e-71
-1.03819e-73
-9.15614e-76
-9.69189e-78
-1.3582e-77
-7.08828e-77
-3.45027e-76
-1.55158e-75
-6.39827e-75
-2.40532e-74
-8.20046e-74
-2.52349e-73
-6.98134e-73
-1.74057e-72
-3.92168e-72
-8.05791e-72
-1.52925e-71
-2.71844e-71
-4.62219e-71
-7.56017e-71
-1.15951e-70
-1.56139e-70
1
1
1
1
1
1
1
1
1
1
1
1
1
1
1
1
1
1
1
1
1
1
1
1
1
1
1
1
1
1
1
1
1
1
1
1
1
1
1
1
1
1
1
1
1
1
1
1
1
1
1
1
1
1
1
1
1
1
1
1
1
1
1
1
1
1
1
1
1
1
1
1
1
1
1
1
1
1
1
1
1
1
1
1
1
1
1
1
1
1
1
1
1
1
1
1
1
1
1
1
1
1
1
1
1
1
1
1
1
1
1
1
1
1
1
1
1
1
1
1
1
1
1
1
1
1
1
1
1
1
1
1
1
1
1
1
1
1
1
1
1
1
1
1
1
1
1
1
1
1
1
1
1
1
1
1
1
1
1
1
1
1
1
1
1
1
1
1
1
1
1
1
1
1
1
1
1
1
1
1
1
1
1
1
1
1
1
1
1
1
1
1
1
1
1
1
1
1
1
1
1
1
1
1
1
1
1
1
1
1
1
1
1
1
1
1
1
1
1
1
1
1
1
1
1
1
1
1
1
1
1
1
1
1
1
1
1
1
1
1
1
1
1
1
1
1
1
1
1
1
1
1
1
1
0.999397
0.99004
0.960657
0.901476
0.802548
0.623556
-2.08992e-30
0.267357
0.260339
0.245513
0.230506
0.208382
0.180314
0.150188
0.121075
0.0942556
0.0659392
0.0351872
7.23389e-21
-1.15234e-22
-3.00152e-22
-5.65249e-22
-6.83567e-22
-6.88285e-22
-7.0465e-22
-1.69288e-22
-3.27867e-31
-1.853e-30
-7.58881e-30
-2.89386e-29
-8.23555e-29
-1.97754e-28
-4.00818e-28
-6.72088e-28
-9.53979e-28
-1.22544e-27
-1.52899e-27
-1.99788e-27
-2.93684e-27
-4.14621e-27
-5.04972e-27
-5.16093e-27
-4.51841e-27
-3.54682e-27
-2.72325e-27
-2.0648e-27
-4.58561e-32
-1.55217e-31
-5.7726e-31
-3.25918e-30
-9.23154e-30
-1.89536e-29
-3.21901e-29
-4.81542e-29
-6.67965e-29
-8.98741e-29
-1.21787e-28
-1.71059e-28
-2.35802e-28
-2.66582e-28
-2.36278e-28
-1.71149e-28
-1.07164e-28
-6.16104e-29
-3.49101e-29
-2.02351e-29
-1.07445e-32
-5.85487e-33
-1.78951e-32
-5.62982e-32
-1.96902e-31
-4.5245e-31
-8.53719e-31
-1.41314e-30
-2.13239e-30
-3.00515e-30
-3.99747e-30
-4.97055e-30
-5.51797e-30
-5.15551e-30
-4.02956e-30
-2.71739e-30
-1.64592e-30
-9.34569e-31
-5.19563e-31
-2.89419e-31
-1.95873e-33
-2.14181e-34
-5.24989e-34
-1.69133e-33
-5.07999e-33
-1.38796e-32
-2.86484e-32
-5.02087e-32
-7.72744e-32
-1.06504e-31
-1.32468e-31
-1.47967e-31
-1.46042e-31
-1.25541e-31
-9.43638e-32
-6.31557e-32
-3.85353e-32
-2.19841e-32
-1.20016e-32
-6.33613e-33
-2.86725e-34
-7.13167e-36
-1.62035e-35
-5.88479e-35
-1.84665e-34
-4.93376e-34
-1.07572e-33
-1.8909e-33
-2.8357e-33
-3.71732e-33
-4.31617e-33
-4.45769e-33
-4.09023e-33
-3.33275e-33
-2.42417e-33
-1.59035e-33
-9.52837e-34
-5.27961e-34
-2.73265e-34
-1.32505e-34
-3.73967e-35
-1.67123e-37
-4.62205e-37
-1.99324e-36
-6.71879e-36
-1.76942e-35
-3.76769e-35
-6.40085e-35
-9.0751e-35
-1.11663e-34
-1.21512e-34
-1.17936e-34
-1.02355e-34
-7.95102e-35
-5.53897e-35
-3.47273e-35
-1.96909e-35
-1.01559e-35
-4.79209e-36
-2.07764e-36
-3.38134e-36
-4.16928e-39
-1.03276e-38
-5.38471e-38
-1.94788e-37
-5.16645e-37
-1.04844e-36
-1.6841e-36
-2.23858e-36
-2.59902e-36
-2.68736e-36
-2.48204e-36
-2.04106e-36
-1.48954e-36
-9.64145e-37
-5.55158e-37
-2.86271e-37
-1.33533e-37
-5.7035e-38
-2.25831e-38
-4.45958e-38
-1.31809e-39
-1.73835e-40
-1.02527e-39
-3.79247e-39
-9.91469e-39
-1.93489e-38
-2.91557e-38
-3.68255e-38
-4.12606e-38
-4.13007e-38
-3.64357e-38
-2.80021e-38
-1.87067e-38
-1.09382e-38
-5.67461e-39
-2.65755e-39
-1.1433e-39
-4.58334e-40
-1.72907e-40
-2.05474e-41
-2.60527e-41
-2.14692e-42
-1.13352e-41
-3.94031e-41
-9.88482e-41
-1.83684e-40
-2.62142e-40
-3.20444e-40
-3.5385e-40
-3.46067e-40
-2.89844e-40
-2.0502e-40
-1.23541e-40
-6.49499e-41
-3.06836e-41
-1.3353e-41
-5.42807e-42
-2.07164e-42
-7.44732e-43
-8.51439e-46
-8.18535e-45
-9.25892e-45
-4.24094e-44
-1.31047e-43
-3.1073e-43
-5.52361e-43
-7.58075e-43
-9.14464e-43
-1.00764e-42
-9.59817e-43
-7.52576e-43
-4.8247e-43
-2.6067e-43
-1.24587e-43
-5.48305e-44
-2.25353e-44
-8.62433e-45
-3.07239e-45
-1.02871e-45
1
1
1
1
1
1
1
1
1
1
1
1
1
1
1
1
1
1
1
1
1
1
1
1
1
1
1
1
1
1
1
1
1
1
1
1
1
1
1
1
1
1
1
1
1
1
1
1
1
1
1
1
1
1
1
1
1
1
1
1
1
1
1
1
1
1
1
1
1
1
1
1