/*--------------------------------*- C++ -*----------------------------------*\
| =========                 |                                                 |
| \\      /  F ield         | OpenFOAM: The Open Source CFD Toolbox           |
|  \\    /   O peration     | Version:  v1912                                 |
|   \\  /    A nd           | Website:  www.openfoam.com                      |
|    \\/     M anipulation  |                                                 |
\*---------------------------------------------------------------------------*/
FoamFile
{
    version     2.0;
    format      ascii;
    class       surfaceScalarField;
    location    "26";
    object      alphaPhi0.water;
}
// * * * * * * * * * * * * * * * * * * * * * * * * * * * * * * * * * * * * * //

dimensions      [0 3 -1 0 0 0 0];
oriented        oriented;


internalField   nonuniform List<scalar> 
40282
(
0.00278879
0.0026471
1.9207
-1.92732
1.92173
0.00559481
-1.9127
1.90052
0.01218
-1.88532
1.86717
0.0181485
-1.84615
1.82229
0.0238625
-1.7956
1.7662
0.0293977
-1.73412
1.69951
0.0346156
-1.66231
1.62268
0.0396305
-1.58059
1.5362
0.0443947
-1.48951
1.44061
0.048908
-1.38957
1.33639
0.053179
-1.2813
1.2242
0.057105
-1.16541
1.10471
0.0607008
-1.04252
0.97859
0.0639323
-0.913415
0.84659
0.0668252
-0.778697
0.709471
0.0692254
-0.639013
0.567769
0.0712435
-0.494431
0.420771
0.07366
-0.34357
0.265953
0.0776169
-0.179416
0.0766219
0.102794
-0.00422353
0.00559783
1.85576
-1.85129
1.84434
-0.0140953
0.0210442
-1.83467
1.82223
-0.0256321
0.0380666
-1.80702
1.78903
-0.0369354
0.054919
-1.76831
1.74489
-0.0479925
0.0714094
-1.71883
1.69017
-0.0588027
0.0874668
-1.65895
1.62521
-0.0692576
0.103001
-1.589
1.55037
-0.0793072
0.117936
-1.50937
1.46606
-0.0889006
0.132211
-1.42049
1.37272
-0.0980063
0.145777
-1.32281
1.27082
-0.106591
0.158583
-1.2168
1.16082
-0.114604
0.170587
-1.10291
1.04317
-0.121999
0.181734
-0.98162
0.918383
-0.128703
0.19194
-0.853466
0.787037
-0.134654
0.201084
-0.719144
0.649902
-0.139791
0.209034
-0.579503
0.508074
-0.144257
0.215685
-0.435931
0.36346
-0.14841
0.220881
-0.291046
0.217528
-0.152904
0.226422
-0.144304
0.0733702
-0.17548
0.246413
-0.00700953
0.00835669
1.78926
-1.78507
1.77826
-0.0281793
0.0349896
-1.76879
1.75668
-0.0506916
0.0628027
-1.74194
1.72458
-0.0729613
0.0903185
-1.70462
1.68208
-0.0948261
0.117371
-1.65697
1.62934
-0.116131
0.143762
-1.59922
1.56665
-0.136753
0.169327
-1.53167
1.49433
-0.156584
0.193923
-1.45469
1.4128
-0.175535
0.217423
-1.36873
1.32255
-0.19354
0.239723
-1.27432
1.22412
-0.210533
0.260733
-1.17202
1.11809
-0.226474
0.280403
-1.0624
1.00501
-0.241334
0.298726
-0.945967
0.885336
-0.255044
0.315675
-0.823153
0.759477
-0.267447
0.331123
-0.694361
0.627876
-0.278288
0.344773
-0.560134
0.491247
-0.287124
0.356011
-0.421457
0.350949
-0.293084
0.363591
-0.279596
0.207475
-0.299175
0.371296
-0.135739
0.0657417
-0.317217
0.387214
-0.00964166
0.0109181
1.72519
-1.72132
1.7149
-0.0417098
0.0481339
-1.70591
1.69438
-0.0748393
0.086374
-1.68031
1.66371
-0.107619
0.124214
-1.64461
1.62302
-0.139868
0.161457
-1.59897
1.57247
-0.171351
0.197844
-1.54357
1.51229
-0.201873
0.23315
-1.47868
1.44276
-0.231264
0.267182
-1.40458
1.3642
-0.259364
0.29975
-1.32165
1.27701
-0.286021
0.330664
-1.23034
1.1817
-0.311096
0.359728
-1.13119
1.07889
-0.334499
0.386799
-1.0249
0.969295
-0.356219
0.411821
-0.91218
0.853641
-0.376265
0.434804
-0.793753
0.732582
-0.394569
0.45574
-0.670182
0.60661
-0.410829
0.474401
-0.541918
0.476168
-0.424205
0.489956
-0.409416
0.341567
-0.433007
0.500856
-0.272428
0.20224
-0.441526
0.511713
-0.131827
0.0624946
-0.456759
0.526092
-0.0121386
0.0133456
1.6634
-1.65975
1.65366
-0.0545095
0.0606004
-1.64514
1.63419
-0.0978255
0.108768
-1.62084
1.60507
-0.1407
0.156461
-1.58692
1.56639
-0.182918
0.20345
-1.5435
1.51827
-0.224194
0.249424
-1.49072
1.46089
-0.264282
0.294117
-1.42879
1.39447
-0.302962
0.337284
-1.35795
1.31929
-0.340018
0.378686
-1.27851
1.23567
-0.375228
0.418068
-1.19082
1.14402
-0.408345
0.455144
-1.09534
1.04485
-0.439165
0.489654
-0.992638
0.938795
-0.46757
0.521412
-0.883424
0.826631
-0.493527
0.55032
-0.768525
0.709208
-0.517045
0.576361
-0.648777
0.587318
-0.537943
0.599402
-0.524902
0.461576
-0.555336
0.618661
-0.397305
0.331883
-0.567645
0.633067
-0.265093
0.197095
-0.57947
0.647468
-0.128364
0.0602774
-0.593873
0.66196
-0.0144933
0.0156219
1.60394
-1.60034
1.59461
-0.0666225
0.0723474
-1.5866
1.57631
-0.119589
0.12988
-1.56374
1.5489
-0.172058
0.186902
-1.53178
1.51241
-0.223784
0.243157
-1.49079
1.46693
-0.274437
0.298294
-1.44086
1.41258
-0.323726
0.352006
-1.38211
1.3495
-0.371387
0.404006
-1.31475
1.27789
-0.417155
0.454007
-1.23897
1.19802
-0.460745
0.501693
-1.15509
1.11022
-0.501832
0.546702
-1.06347
1.0149
-0.540104
0.588675
-0.964576
0.912585
-0.57531
0.627301
-0.859014
0.803965
-0.607273
0.662323
-0.74755
0.689888
-0.635914
0.693576
-0.631103
0.571316
-0.661084
0.720871
-0.510632
0.449117
-0.682016
0.743531
-0.386726
0.323261
-0.697854
0.761319
-0.25853
0.1926
-0.713147
0.779077
-0.125587
0.059073
-0.7278
0.794314
-0.016688
0.0177285
1.54629
-1.54326
1.53795
-0.0779763
0.0832935
-1.5305
1.52093
-0.140004
0.149574
-1.50923
1.4954
-0.201518
0.215348
-1.47944
1.46135
-0.262254
0.280349
-1.44112
1.41877
-0.321845
0.344198
-1.39429
1.3677
-0.379967
0.406557
-1.33901
1.30822
-0.436315
0.467103
-1.27535
1.24043
-0.490577
0.525503
-1.20346
1.16449
-0.542407
0.581381
-1.12354
1.08064
-0.591404
0.634296
-1.03586
0.989223
-0.637161
0.683794
-0.940803
0.890662
-0.679309
0.72945
-0.838877
0.785537
-0.717514
0.770853
-0.730748
0.674628
-0.751509
0.807629
-0.61731
0.558935
-0.781024
0.839399
-0.499635
0.439499
-0.805398
0.865534
-0.378516
0.31656
-0.824706
0.886663
-0.253501
0.189358
-0.843306
0.90745
-0.12392
0.0592516
-0.858731
0.9234
-0.0187033
0.0196452
1.49107
-1.48831
1.48345
-0.0884825
0.0933439
-1.47664
1.46787
-0.15892
0.167684
-1.45714
1.44444
-0.228871
0.241572
-1.42976
1.41308
-0.298072
0.314749
-1.3944
1.37371
-0.366136
0.386826
-1.351
1.32627
-0.432711
0.457445
-1.29951
1.27071
-0.497463
0.526259
-1.23988
1.20703
-0.560036
0.592891
-1.17215
1.13527
-0.620021
0.656903
-1.0964
1.05556
-0.676938
0.717775
-1.01279
0.968122
-0.730285
0.774952
-0.921604
0.873291
-0.779575
0.827889
-0.823246
0.771547
-0.824322
0.876021
-0.718287
0.663579
-0.864043
0.918751
-0.607555
0.550362
-0.898236
0.955429
-0.492149
0.433028
-0.926267
0.985388
-0.373029
0.312104
-0.949089
1.01001
-0.250204
0.18735
-0.970794
1.03365
-0.122944
0.0604946
-0.987283
1.04973
-0.0205172
0.0213485
1.43772
-1.43507
1.43072
-0.0980416
0.102392
-1.42462
1.41676
-0.176162
0.184023
-1.40712
1.39568
-0.253879
0.265314
-1.38243
1.36734
-0.330948
0.346039
-1.35039
1.33155
-0.406978
0.425814
-1.31081
1.28814
-0.481612
0.504284
-1.26351
1.23692
-0.554493
0.581088
-1.20834
1.17775
-0.625224
0.655811
-1.14515
1.11052
-0.693338
0.727959
-1.07388
1.03523
-0.758271
0.796926
-0.994575
0.951945
-0.819415
0.862046
-0.907367
0.860884
-0.876161
0.922644
-0.812546
0.762417
-0.927862
0.977991
-0.710581
0.657139
-0.973807
1.02725
-0.602221
0.545977
-1.0132
1.06944
-0.488567
0.430131
-1.04535
1.10378
-0.370751
0.310462
-1.07191
1.1322
-0.249287
0.18729
-1.0966
1.1586
-0.123272
0.0633303
-1.11467
1.17461
-0.0221058
0.022814
1.38642
-1.3841
1.38032
-0.10654
0.11032
-1.37501
1.36816
-0.191531
0.198386
-1.35973
1.3497
-0.276262
0.286288
-1.33805
1.32472
-0.360532
0.373855
-1.3097
1.29293
-0.443973
0.460742
-1.27438
1.254
-0.526238
0.546614
-1.23176
1.20761
-0.606962
0.631111
-1.18151
1.15344
-0.68572
0.7138
-1.12334
1.0912
-0.76199
0.794133
-1.05698
1.02069
-0.835121
0.871418
-0.982294
0.941809
-0.904389
0.944873
-0.899243
0.854616
-0.969048
1.01367
-0.807962
0.759331
-1.02828
1.07691
-0.70879
0.656432
-1.08111
1.13347
-0.602376
0.546775
-1.12642
1.18202
-0.489801
0.431627
-1.16337
1.22154
-0.372402
0.312267
-1.19413
1.25426
-0.251331
0.189789
-1.22201
1.28355
-0.125438
0.067923
-1.24187
1.29938
-0.0234444
0.0240174
1.3368
-1.33486
1.33171
-0.113858
0.117009
-1.32727
1.32153
-0.204815
0.210558
-1.31445
1.30598
-0.295723
0.304184
-1.2961
1.28474
-0.386449
0.397804
-1.27187
1.25741
-0.476676
0.491134
-1.24131
1.22351
-0.566092
0.583893
-1.20394
1.18254
-0.654348
0.675746
-1.15925
1.13399
-0.741005
0.76626
-1.10672
1.07736
-0.825497
0.854853
-1.04587
1.01221
-0.907089
0.940754
-0.976326
0.938202
-0.984939
1.02306
-0.897817
0.855167
-1.05814
1.10079
-0.810261
0.763125
-1.12568
1.17282
-0.713808
0.662384
-1.18631
1.23774
-0.608962
0.553689
-1.23851
1.29378
-0.496749
0.438352
-1.2812
1.33959
-0.378726
0.318137
-1.31684
1.37743
-0.256818
0.195223
-1.3484
1.40999
-0.129318
0.0742353
-1.37021
1.42529
-0.0245094
0.0249367
1.28905
-1.28733
1.28486
-0.119877
0.122343
-1.28138
1.27685
-0.2158
0.220328
-1.27124
1.26449
-0.311948
0.318695
-1.25656
1.24737
-0.408289
0.417474
-1.23687
1.22498
-0.504587
0.516479
-1.21161
1.1967
-0.600595
0.615512
-1.18014
1.16184
-0.696008
0.714301
-1.14172
1.11968
-0.790402
0.812445
-1.09562
1.06945
-0.883187
0.909354
-1.04109
1.01045
-0.973564
1.00421
-0.977445
0.94202
-1.06057
1.096
-0.904115
0.863686
-1.14314
1.18357
-0.820707
0.775169
-1.22003
1.26557
-0.727087
0.676509
-1.28969
1.34026
-0.623522
0.568261
-1.35011
1.40537
-0.510917
0.451739
-1.39984
1.45902
-0.391046
0.329276
-1.44143
1.5032
-0.266833
0.204636
-1.47749
1.53969
-0.135731
0.0834585
-1.50199
1.55426
-0.0252814
0.0255551
1.24316
-1.24187
1.24014
-0.124488
0.126225
-1.23767
1.23445
-0.224287
0.227515
-1.23041
1.22551
-0.324642
0.329543
-1.21968
1.21285
-0.425651
0.432479
-1.20494
1.19587
-0.527191
0.536268
-1.18552
1.17381
-0.629118
0.640834
-1.16061
1.14581
-0.731208
0.746009
-1.12928
1.1109
-0.833093
0.851469
-1.09055
1.06807
-0.934198
0.956671
-1.04335
1.01626
-1.03369
1.06079
-0.986657
0.954435
-1.13053
1.16275
-0.919482
0.881698
-1.22348
1.26126
-0.841002
0.797329
-1.31106
1.35473
-0.750645
0.700946
-1.39136
1.44106
-0.648277
0.592744
-1.46184
1.51737
-0.534528
0.47391
-1.52044
1.58106
-0.411306
0.347363
-1.56955
1.63349
-0.282727
0.219137
-1.61151
1.6751
-0.145218
0.0961831
-1.6398
1.68884
-0.0257466
0.0258628
1.19858
-1.19793
1.19695
-0.127609
0.128585
-1.19555
1.19368
-0.230116
0.231983
-1.1913
1.18835
-0.333553
0.336506
-1.18476
1.18044
-0.438171
0.442485
-1.17532
1.16928
-0.543992
0.550027
-1.16223
1.15403
-0.651015
0.659215
-1.14455
1.13366
-0.759147
0.770038
-1.1212
1.10701
-0.868124
0.882311
-1.09093
1.07278
-0.97745
0.995603
-1.05237
1.02953
-1.08633
1.10917
-1.00407
0.975801
-1.19367
1.22194
-0.944544
0.910123
-1.29815
1.33257
-0.872376
0.831155
-1.39807
1.43929
-0.786338
0.737838
-1.49114
1.53964
-0.68562
0.629721
-1.57418
1.63008
-0.570278
0.507574
-1.6443
1.70701
-0.4421
0.374745
-1.70328
1.77064
-0.306493
0.240372
-1.75335
1.81947
-0.158927
0.113577
-1.7873
1.83265
-0.0258996
0.0258595
1.15585
-1.15566
1.15546
-0.129187
0.129394
-1.15513
1.15464
-0.233182
0.233666
-1.15396
1.153
-0.338498
0.339451
-1.15172
1.15001
-0.445557
0.447258
-1.14781
1.14499
-0.554553
0.557373
-1.14144
1.13702
-0.665667
0.67008
-1.13161
1.12502
-0.778986
0.785572
-1.1171
1.10764
-0.894418
0.903869
-1.09647
1.08334
-1.01163
1.02475
-1.06805
1.05034
-1.12994
1.14765
-1.02997
1.00667
-1.24835
1.27165
-0.980174
0.950205
-1.36553
1.3955
-0.916488
0.878754
-1.47967
1.51741
-0.836747
0.790237
-1.58818
1.63468
-0.739044
0.683067
-1.68717
1.74315
-0.622324
0.557023
-1.77263
1.83793
-0.487671
0.415383
-1.84515
1.91744
-0.341641
0.271234
-1.90681
1.97722
-0.179532
0.138129
-1.94937
1.99078
-0.0257453
0.0255554
1.11461
-1.11468
1.11523
-0.129219
0.128674
-1.11595
1.11683
-0.233459
0.232581
-1.11782
1.11885
-0.339403
0.338366
-1.11988
1.12082
-0.447645
0.446709
-1.12158
1.12206
-0.558568
0.558085
-1.12215
1.12171
-0.672566
0.673002
-1.1206
1.11866
-0.789953
0.791901
-1.11569
1.11149
-0.91088
0.915075
-1.10585
1.09851
-1.03526
1.0426
-1.08921
1.07766
-1.16268
1.17424
-1.06354
1.04651
-1.29238
1.3094
-1.02621
1.00225
-1.4232
1.44716
-0.974212
0.941665
-1.55347
1.58602
-0.904159
0.861249
-1.6805
1.72342
-0.812506
0.757566
-1.79989
1.85483
-0.696182
0.628328
-1.90621
1.97407
-0.554346
0.475443
-1.99815
2.07706
-0.393694
0.316
-2.07715
2.15485
-0.210958
0.173475
-2.13392
2.17141
-0.0252992
0.024971
1.07483
-1.07552
1.07678
-0.12775
0.126495
-1.0785
1.08068
-0.231015
0.228842
-1.08326
1.08621
-0.336323
0.333375
-1.08947
1.09297
-0.444432
0.440925
-1.09665
1.10041
-0.555912
0.55215
-1.10416
1.10776
-0.671388
0.667785
-1.11108
1.11398
-0.791436
0.788543
-1.11626
1.11773
-0.916504
0.915034
-1.11816
1.1173
-1.04686
1.04772
-1.11486
1.11051
-1.18246
1.18681
-1.10391
1.09466
-1.32299
1.33225
-1.0823
1.06634
-1.46777
1.48373
-1.04623
1.02136
-1.61564
1.64051
-0.991042
0.954533
-1.76432
1.80083
-0.911044
0.859771
-1.90942
1.96069
-0.799962
0.731038
-2.04436
2.11329
-0.652784
0.566026
-2.16521
2.25197
-0.473159
0.382999
-2.27125
2.36141
-0.260547
0.224625
-2.35248
2.3884
-0.0245866
0.0241365
1.03634
-1.03742
1.03932
-0.12488
0.122982
-1.04195
1.04531
-0.226011
0.222657
-1.04935
1.05406
-0.329453
0.324745
-1.05939
1.0653
-0.436103
0.430193
-1.07173
1.07862
-0.546698
0.539811
-1.08588
1.09342
-0.662086
0.654545
-1.10113
1.10888
-0.783113
0.775368
-1.11651
1.12385
-0.910558
0.90322
-1.13069
1.1368
-1.04509
1.03898
-1.1419
1.1457
-1.18719
1.1834
-1.14781
1.14784
-1.33713
1.3371
-1.14531
1.13966
-1.49503
1.50068
-1.13025
1.11633
-1.66073
1.67465
-1.09702
1.07126
-1.8332
1.85895
-1.03787
0.995444
-2.00928
2.0517
-0.942474
0.877379
-2.18265
2.24775
-0.798694
0.7058
-2.34744
2.44033
-0.59994
0.490546
-2.49841
2.60781
-0.344966
0.303402
-2.62571
2.66727
-0.0236414
0.0230888
0.999313
-1.00092
1.00337
-0.120754
0.1183
-1.0068
1.01118
-0.218698
0.214316
-1.01651
1.02277
-0.319131
0.312873
-1.02993
1.03799
-0.423045
0.414989
-1.0469
1.05663
-0.531307
0.521578
-1.06713
1.07833
-0.644954
0.633751
-1.09017
1.10254
-0.765078
0.752699
-1.11536
1.12848
-0.892772
0.879654
-1.14174
1.15498
-1.02912
1.01589
-1.16797
1.18045
-1.17515
1.16267
-1.19212
1.20262
-1.33185
1.32135
-1.21153
1.21835
-1.50033
1.49352
-1.22244
1.22307
-1.68187
1.68124
-1.21928
1.20993
-1.87761
1.88696
-1.19354
1.16828
-2.08743
2.1127
-1.13186
1.08153
-2.30846
2.35879
-1.01399
0.925523
-2.53739
2.62585
-0.81315
0.681014
-2.76711
2.89925
-0.50751
0.438853
-2.98875
3.05741
-0.0225033
0.0218692
0.963751
-0.965452
0.968364
-0.115555
0.112643
-0.972435
0.977666
-0.209397
0.204167
-0.984056
0.991606
-0.305808
0.298258
-1.00031
1.01018
-0.405818
0.39595
-1.0212
1.03337
-0.510372
0.498204
-1.04667
1.06109
-0.620642
0.606229
-1.07658
1.09312
-0.737901
0.721361
-1.11066
1.12912
-0.863499
0.845037
-1.14842
1.16847
-0.998869
0.978821
-1.18914
1.21026
-1.14551
1.12439
-1.23165
1.25308
-1.30508
1.28365
-1.27428
1.29489
-1.47965
1.45903
-1.3145
1.33257
-1.672
1.65393
-1.3484
1.36109
-1.88589
1.8732
-1.36941
1.3717
-2.12573
2.12344
-1.36569
1.34831
-2.39596
2.41334
-1.31533
1.26069
-2.70485
2.75949
-1.17694
1.04931
-3.0664
3.19403
-0.878375
0.800717
-3.50032
3.57798
0.0527845
-0.109322
0.0565259
-0.0987575
0.142865
-0.0441025
-0.183594
0.225614
-0.0420192
-0.270235
0.315789
-0.0455808
-0.359368
0.39873
-0.0393461
-0.433167
0.461541
-0.0283728
-0.481647
0.489959
-0.00830992
-0.480762
0.445615
0.0351469
-0.371001
0.235587
0.135415
-0.00792556
-0.363097
0.366429
0.843765
-1.46008
0.610006
2.11584
-2.10787
0.378308
1.884
-1.80878
0.0110887
2.2012
-2.4447
-0.0275098
2.49645
-2.53088
-0.00270815
2.57638
-2.68734
0.00068813
2.8034
-2.89075
0.000127519
2.95429
-3.00256
0.035791
3.05235
-3.10335
0.055098
3.14225
-3.05815
0.0171224
3.02696
-3.02923
0.000765382
3.07879
-2.85866
-0.221018
1.36155
0.631655
-1.99127
-2.10895
3.13142
-1.02246
-3.87957
4.45622
-0.576657
-4.91481
5.28444
-0.369632
-5.58303
5.823
-0.239968
-6.01425
6.16496
-0.150711
-6.2821
6.37164
-0.0895455
-6.43885
6.48807
-0.0492284
-6.52297
6.54675
-0.023789
-6.56164
6.56985
-0.00820107
-6.5729
6.57127
0.00162534
-6.56595
6.55811
0.00784275
-6.54793
6.53575
0.0121751
-6.52196
6.50684
0.0151228
-6.49059
6.47341
0.0171783
-6.45548
6.43697
0.0185129
-6.41805
6.3989
0.0191457
-6.3797
6.36064
0.0190583
-6.34191
6.32371
0.0182008
-6.30617
6.28939
0.0167827
-6.27341
6.25826
0.0151514
-6.24395
6.23049
0.0134639
-6.21788
6.20604
0.0118345
-6.19493
6.18443
0.0105023
-6.17437
6.16473
0.00964564
-6.15522
6.14599
0.00922332
-6.13666
6.12757
0.00909523
-6.11834
6.10925
0.00909601
-6.10033
6.09133
0.00900145
-6.08293
6.07428
0.00865568
-6.0662
6.05817
0.00802755
-6.04993
6.04271
0.00721321
-6.0344
6.02757
0.00683203
-6.0203
6.01309
0.00721089
-6.00748
6.0007
0.00677929
-5.99526
5.99033
0.00493274
-5.98428
5.9796
0.00467513
-5.9637
5.95816
0.0055231
0.168485
-0.218097
0.0536051
-0.0982232
0.131549
0.0816228
-0.114602
-0.165352
0.200456
0.0797861
-0.114889
-0.237054
0.273249
0.0854771
-0.121086
-0.310454
0.344964
0.0751007
-0.109206
-0.375418
0.40156
0.0547887
-0.0809652
-0.422154
0.435546
0.0188814
-0.0321949
-0.43955
0.431526
-0.0544582
0.062483
-0.408644
0.368077
-0.213051
0.253619
-0.307619
0.201876
-0.55085
0.6194
-0.0788494
-0.11281
-0.951698
1.11954
0.269546
-0.139513
-0.498801
0.874526
0.00525219
-8.1756e-20
-0.0164683
0.0112161
3.20853e-20
4.00625e-39
6.5024e-05
-6.5024e-05
-2.02056e-22
1.47333e-21
0
-1.31747e-23
1.49529e-07
-0.000342084
0.00026153
-6.63859e-09
0.00454444
-0.0165794
-0.000872422
-2.82684e-08
0.0220905
-0.0158213
-0.00797337
0
0.00108936
2.44806e-20
-0.00108936
-1.06917e-12
-6.24122e-21
-7.44108e-29
1.84463e-11
-1.84463e-11
1.41335e-28
8.76211e-21
2.51263e-11
-2.51263e-11
0.00807104
-0.0989906
0.131251
-3.37441e-12
-0.286862
1.32084
3.39617
-4.40397
-2.27148
3.11644
1.97493
-2.81989
-3.82725
4.41485
1.17029
-1.75788
-4.89975
5.30015
0.758997
-1.1594
-5.62959
5.89844
0.497635
-0.766484
-6.1155
6.28841
0.315452
-0.488366
-6.42395
6.52872
0.18925
-0.294021
-6.60832
6.66755
0.105463
-0.164699
-6.71068
6.74108
0.0523247
-0.0827226
-6.76156
6.77428
0.0198027
-0.0325252
-6.7811
6.78409
-0.000915186
-0.00208068
-6.78282
6.77887
-0.0130417
0.0169911
-6.77267
6.76465
-0.0215802
0.0295974
-6.75515
6.7444
-0.0275219
0.0382778
-6.7326
6.71997
-0.0316327
0.0442669
-6.70663
6.69276
-0.0342901
0.0481675
-6.6785
6.66396
-0.0356392
0.0501784
-6.64927
6.63459
-0.0356508
0.0503326
-6.62005
6.60584
-0.0341792
0.0483876
-6.5921
6.57887
-0.0316183
0.044845
-6.5662
6.5541
-0.0286862
0.0407918
-6.54254
6.53156
-0.025625
0.0366035
-6.52113
6.51126
-0.0226525
0.0325315
-6.50188
6.49291
-0.0202194
0.0291896
-6.48427
6.47585
-0.0186797
0.0271058
-6.46757
6.45934
-0.0179613
0.0261936
-6.4512
6.44303
-0.017728
0.0258983
-6.43495
6.42693
-0.0175996
0.0256244
-6.419
6.41136
-0.0171422
0.0247831
-6.40389
6.39686
-0.0162399
0.023272
-6.38999
6.38336
-0.0152503
0.0218803
-6.37696
6.3704
-0.0143683
0.0209326
-6.36428
6.35788
-0.0138337
0.0202332
-6.35176
6.34585
-0.0136482
0.0195581
-6.33972
6.3343
-0.0124855
0.0179085
-6.32882
6.32345
-0.0104137
0.0157751
-6.31855
6.31319
-0.0102326
0.0156023
-6.30799
6.30292
-0.0107335
0.0158115
0.266549
-0.309118
0.0425628
-0.0847756
0.116141
0.144182
-0.175553
-0.1408
0.160485
0.14455
-0.162174
-0.196332
0.240636
0.151796
-0.189976
-0.273211
0.304496
0.141406
-0.172692
-0.333475
0.359416
0.10675
-0.132691
-0.381642
0.399522
0.0478699
-0.0657485
-0.41249
0.420108
-0.0616252
0.0540077
-0.422968
0.423427
-0.269155
0.268629
-0.426779
0.442268
-0.651527
0.649544
-0.470888
0.498692
-1.19141
1.16361
-0.417067
0.389943
-0.924404
1.0404
-0.32878
0.23793
-0.0944894
0.164965
-0.0117621
-5.08876e-05
-4.13631e-05
-2.21263e-05
3.84067e-21
-1.84291e-21
-5.77515e-26
0
1.85039e-21
1.2179e-09
-1.2179e-09
1.04145e-21
-3.59387e-08
9.41762e-08
2.82683e-08
1.43997e-07
1.25776e-26
-9.58284e-08
-1.82774e-22
9.58284e-08
-1.81382e-08
-5.1113e-11
1.67707e-10
4.32053e-09
4.73565e-29
-9.70732e-24
-7.18192e-11
7.18192e-11
2.05126e-08
1.38911e-09
-1.04483e-09
-6.56523e-08
-6.32775e-11
0.0377217
2.75601e-18
-0.0377217
-1.88487
2.40097
5.11744
-5.63355
-2.92719
3.49171
3.51401
-4.07854
-4.04055
4.54315
2.30524
-2.80785
-4.98736
5.36931
1.55203
-1.93399
-5.69067
5.95615
1.03446
-1.29994
-6.17066
6.34078
0.660814
-0.830932
-6.47324
6.5745
0.397913
-0.49917
-6.65066
6.70694
0.223051
-0.279325
-6.74754
6.77617
0.112561
-0.14119
-6.79566
6.80822
0.0453433
-0.0579018
-6.81558
6.819
0.00499228
-0.00841496
-6.8195
6.8177
-0.0199563
0.0217592
-6.81411
6.80911
-0.0361775
0.0411781
-6.80295
6.79582
-0.0472535
0.0543851
-6.78789
6.77928
-0.0549163
0.0635224
-6.77011
6.76052
-0.0598897
0.0694829
-6.75062
6.74047
-0.0624824
0.0726369
-6.73017
6.71978
-0.062847
0.0732332
-6.70942
6.69929
-0.0605215
0.0706581
-6.6895
6.68011
-0.0561064
0.0654961
-6.67113
6.66246
-0.0511672
0.0598299
-6.6541
6.64606
-0.0461056
0.0541509
-6.63832
6.63088
-0.0411547
0.0485914
-6.62373
6.61677
-0.0371295
0.0440824
-6.60994
6.60314
-0.0347007
0.0415051
-6.59632
6.5894
-0.0337134
0.0406258
-6.58245
6.57545
-0.0334293
0.0404324
-6.56846
6.56151
-0.0330579
0.0400063
-6.55466
6.54805
-0.0318339
0.0384435
-6.54174
6.53588
-0.0296597
0.0355151
-6.53035
6.52507
-0.0277918
0.0330704
-6.51998
6.51481
-0.026728
0.0318925
-6.50983
6.50471
-0.0259205
0.0310316
-6.4996
6.49455
-0.0249843
0.0300346
-6.48933
6.48441
-0.0230526
0.0279702
-6.4796
6.47496
-0.0207591
0.0253987
-6.47055
6.46591
-0.0205722
0.0252091
-6.46114
6.45641
-0.0206796
0.0254076
0.354028
-0.382645
0.0286163
-0.0667691
0.0870106
0.203432
-0.223827
-0.104102
0.14344
0.18486
-0.219417
-0.174374
0.204013
0.221878
-0.251517
-0.233932
0.25989
0.203048
-0.22792
-0.287444
0.319077
0.158446
-0.182394
-0.343346
0.363932
0.0850161
-0.105602
-0.38212
0.398112
-0.0415708
0.0255793
-0.41321
0.430813
-0.257564
0.239947
-0.45664
0.499381
-0.615408
0.572678
-0.563937
0.650828
-1.07469
0.9878
-0.757815
0.754382
-1.08142
1.12333
-0.723343
0.274784
-0.288515
0.247903
-0.16202
0.232988
-0.00251563
-0.153274
-0.468867
0.506094
0.090865
-0.139589
-0.529626
0.456559
-0.0439122
0.0645737
-0.208319
-0.000126657
-1.43966e-07
0.275134
-0.000392271
0.000126118
-0.00186829
0.00221382
7.6517e-06
-1.46485e-05
9.82997e-24
6.99677e-06
0.000261503
-8.62611e-05
6.64433e-07
-0.000130004
1.70497e-22
-5.31437e-37
4.53818e-24
-1.75035e-22
-1.24882e-18
2.02681
0.302781
-2.03381
-3.05594
3.31216
5.99907
-6.25529
-3.62924
4.00392
4.52918
-4.90386
-4.40688
4.80989
3.25401
-3.65702
-5.18776
5.52598
2.29228
-2.6305
-5.81528
6.05437
1.55205
-1.79114
-6.24566
6.39511
0.991177
-1.14062
-6.50891
6.5947
0.592969
-0.678756
-6.65843
6.70562
0.330861
-0.37805
-6.74011
6.76522
0.167606
-0.192714
-6.7833
6.79623
0.0701144
-0.08305
-6.80534
6.81159
0.0127723
-0.0190209
-6.81565
6.81801
-0.021863
0.0195052
-6.81897
6.81879
-0.0440539
0.0442424
-6.81761
6.81554
-0.05914
0.0612041
-6.81272
6.80922
-0.0696526
0.0731517
-6.80517
6.80064
-0.0765624
0.0810995
-6.79576
6.79063
-0.0802528
0.0853841
-6.7853
6.7797
-0.0811815
0.0867757
-6.77397
6.76823
-0.0785244
0.0842619
-6.76275
6.75754
-0.0727212
0.0779263
-6.75255
6.74764
-0.0665519
0.0714674
-6.74276
6.73787
-0.0605442
0.0654312
-6.73302
6.7282
-0.0546402
0.0594602
-6.72343
6.71862
-0.0498893
0.0546929
-6.71374
6.70865
-0.0473785
0.0524665
-6.70335
6.69778
-0.0467841
0.0523519
-6.69203
6.68615
-0.0467919
0.0526731
-6.68024
6.67432
-0.0463619
0.052279
-6.66845
6.66276
-0.0445057
0.0501963
-6.65744
6.65266
-0.0407664
0.0455482
-6.64836
6.64436
-0.0376453
0.0416527
-6.64048
6.63654
-0.036361
0.0402931
-6.63265
6.62866
-0.0355122
0.0395007
-6.62456
6.62031
-0.0346266
0.0388738
-6.61586
6.61148
-0.0325592
0.0369431
-6.60729
6.60343
-0.0296097
0.0334723
-6.59977
6.59593
-0.029417
0.0332597
-6.59168
6.58727
-0.0299183
0.0343292
0.402069
-0.411273
0.00946876
-0.0384083
0.0506362
0.211391
-0.225641
-0.0826699
0.109079
0.258856
-0.286397
-0.133793
0.15335
0.276713
-0.29755
-0.178139
0.210771
0.253647
-0.285112
-0.24678
0.268554
0.210837
-0.232836
-0.29192
0.324554
0.126809
-0.145277
-0.347056
0.366552
-0.00752224
-0.0119317
-0.385756
0.407659
-0.21909
0.19719
-0.437652
0.482908
-0.527082
0.481826
-0.546802
0.623995
-0.906433
0.829243
-0.717066
0.80593
-1.03615
0.947285
-0.816839
0.684141
-0.407108
0.580669
-0.645455
0.418905
0.245759
-0.191605
-0.0101983
0.00623931
0.0222417
-0.016495
-0.00870521
0.0153276
-0.0136033
0.00876871
-0.0806842
0.086405
-0.224121
0.0118513
9.45801e-05
-5.00607e-06
-4.26516e-19
-8.9574e-05
-8.66526e-06
3.59667e-05
-5.80918e-05
3.6561e-05
-4.36632e-05
0.00015642
0.00038922
-0.000569189
-4.27004e-05
4.27004e-05
-1.75226e-22
4.50738e-18
-1.47548
3.76195
4.83347
-7.05187
-3.81654
3.95466
6.43307
-6.5712
-4.1707
4.4464
5.2158
-5.4915
-4.76228
5.09299
4.01633
-4.34703
-5.41222
5.70087
2.94091
-3.22956
-5.94539
6.1427
2.00866
-2.20597
-6.2963
6.41338
1.27332
-1.39039
-6.50093
6.56771
0.753825
-0.820599
-6.61957
6.66066
0.420603
-0.461692
-6.69377
6.72105
0.217419
-0.244699
-6.74375
6.7629
0.0979437
-0.117091
-6.77916
6.79296
0.0282758
-0.0420779
-6.80467
6.81461
-0.013814
0.00386624
-6.82286
6.82963
-0.0411721
0.0344015
-6.83505
6.83928
-0.060185
0.0559569
-6.84242
6.84462
-0.073769
0.0715722
-6.84597
6.84661
-0.0829449
0.0822994
-6.84669
6.84646
-0.0879332
0.0881661
-6.84593
6.84497
-0.0899267
0.0908841
-6.84349
6.84174
-0.0878267
0.0895808
-6.84006
6.83861
-0.0810993
0.0825441
-6.83719
6.8356
-0.0745702
0.076156
-6.83377
6.8316
-0.0688165
0.0709824
-6.82916
6.82649
-0.0630637
0.0657306
-6.82366
6.82059
-0.0584967
0.0615604
-6.81724
6.81353
-0.056751
0.0604674
-6.80941
6.80488
-0.0572933
0.0618275
-6.80002
6.79497
-0.0580303
0.0630818
-6.78991
6.78483
-0.057687
0.0627655
-6.77972
6.77466
-0.055474
0.060532
-6.76995
6.76587
-0.0498753
0.0539531
-6.76246
6.75943
-0.0450818
0.0481028
-6.75646
6.75341
-0.0436946
0.0467442
-6.75034
6.74723
-0.0429759
0.0460824
-6.74394
6.74035
-0.042729
0.0463157
-6.7364
6.73232
-0.0410945
0.0451708
-6.72846
6.7252
-0.0369594
0.0402244
-6.72236
6.71938
-0.0366441
0.0396249
-6.71566
6.71144
-0.0385954
0.0428233
0.41205
-0.409492
-0.00352221
-0.0128356
0.0314823
0.246311
-0.300937
-0.048292
0.0678565
0.308083
-0.324344
-0.088783
0.111496
0.328308
-0.352367
-0.137073
0.164281
0.322746
-0.349959
-0.185441
0.207983
0.251026
-0.301977
-0.242255
0.263644
0.160657
-0.182047
-0.305433
0.328292
0.0318639
-0.0526522
-0.347425
0.366172
-0.176442
0.157475
-0.388356
0.420783
-0.441319
0.408892
-0.392898
0.26654
-0.758484
0.381391
-0.356764
0.549147
-0.536269
0.585651
-0.741174
0.727755
-0.605316
0.618735
-0.487365
0.0269069
0.0549966
-0.000210975
-0.150321
0.257804
0.0903276
-0.0874876
-0.26172
0.0344054
-0.0313618
0.0220805
0.00164543
-0.000119519
0.000278912
0.00026486
3.87624e-06
3.17412e-24
-0.000531267
0.000527391
-1.21019e-26
1.81055e-07
-1.38804e-06
1.20698e-06
-0.000406992
0.000126012
0.000285225
-4.66887e-05
-0.000126012
1.92985
0.372935
-2.30531
-4.1971
4.2076
7.30801
-7.3185
-4.25679
4.36872
6.68949
-6.80142
-4.54309
4.77116
5.73698
-5.96505
-5.03576
5.31564
4.64748
-4.92736
-5.58364
5.81806
3.48938
-3.72381
-6.00793
6.15208
2.37627
-2.52041
-6.26244
6.34883
1.48983
-1.57622
-6.41891
6.48109
0.880851
-0.943027
-6.53758
6.57794
0.504672
-0.546459
-6.58827
6.58107
0.277443
-0.275445
-6.56635
6.55121
0.142334
-0.133688
-6.54324
6.53993
0.0613669
-0.0610996
-6.5466
6.56609
0.0105729
-0.0203266
-6.59221
6.62622
-0.0240777
0.00738544
-6.66694
6.71338
-0.0488284
0.0283552
-6.76122
6.81129
-0.0669516
0.0453676
-6.87988
6.91897
-0.079592
0.059989
-6.92576
6.92862
-0.086533
0.0836684
-6.9313
6.93358
-0.0899913
0.0877168
-6.93512
6.93599
-0.0898142
0.0889476
-6.93664
6.93745
-0.0826225
0.0818112
-6.93821
6.93865
-0.0764954
0.0760516
-6.93868
6.93819
-0.0721352
0.0726333
-6.93713
6.93564
-0.0676561
0.0691455
-6.93377
6.93154
-0.0640363
0.066265
-6.92892
6.92585
-0.0637119
0.0667814
-6.9223
6.9183
-0.065982
0.0699841
-6.9139
6.90923
-0.0678319
0.0725021
-6.9046
6.90009
-0.0674708
0.0719744
-6.89553
6.89087
-0.0653295
0.0699959
-6.88635
6.88246
-0.0578374
0.0617259
-6.87939
6.8768
-0.0508065
0.0534012
-6.87423
6.87152
-0.0495293
0.0522338
-6.86885
6.86629
-0.0488579
0.0514231
-6.86356
6.86043
-0.0496309
0.0527622
-6.85676
6.85268
-0.0491909
0.0532738
-6.84868
6.84559
-0.0433005
0.0463879
-6.8434
6.84125
-0.0421722
0.0443282
-6.8382
6.83414
-0.0469518
0.0510142
0.402315
-0.392804
-0.00951047
0.00807447
-0.00181684
0.319342
-0.326565
-0.00868071
0.0238241
0.339151
-0.355118
-0.0403251
0.0601006
0.373611
-0.393094
-0.0819565
0.106294
0.37549
-0.399842
-0.133381
0.163418
0.333027
-0.363064
-0.19564
0.228484
0.232143
-0.264987
-0.241976
0.26624
0.0704503
-0.0932025
-0.301071
0.319484
-0.140477
0.124047
-0.331739
0.34486
-0.386836
0.373715
-0.340185
0.325205
-0.437975
0.573241
-0.386379
0.491227
-0.671462
0.654815
-0.539479
0.311424
-0.613165
0.418923
-0.0293082
0.0306192
-0.00276142
0.00515469
-0.213455
0.134284
0.0358501
0.0275479
-0.00748605
-0.0017501
-0.00317464
-0.000541071
0.00188869
-0.00228572
-0.00269447
0.00252881
0.00123517
-0.000737301
-0.00431797
0.00329813
0.000123095
0.000996626
-0.00114678
0.00131329
-0.000121488
0.000121488
-8.33877e-22
-1.81068e-17
-2.82432
4.35269
5.85192
-7.41341
-4.38678
4.43262
7.34519
-7.39103
-4.50695
4.62424
6.9113
-7.02858
-4.7841
4.98551
6.17704
-6.37844
-5.21175
5.43964
5.18063
-5.40852
-5.64445
5.80445
3.92371
-4.0837
-5.76498
4.12166
2.63138
-1.03331
-2.15476
0.755343
1.28859
7.95235e-20
-0.162497
-4.3116e-19
0.162497
4.9382e-20
2.41738e-20
-1.83685e-19
0
1.29465e-20
1.78861e-19
-1.85404e-19
0
9.87323e-21
1.92743e-19
-1.93643e-19
0
7.25622e-21
1.89622e-19
-1.81543e-19
0
4.70972e-21
1.70864e-19
-1.59029e-19
0
2.51629e-21
1.44828e-19
-8.25787e-20
0
7.35705e-22
1.00424e-20
-2.27657e-20
0
2.78478e-23
5.29434e-05
0.000548166
0.000553912
6.98802e-20
-0.00491263
0.0147595
-0.0013862
0
-0.0316906
0.0560758
-0.00615477
0
-0.0842275
0.110056
-0.0133971
0
-0.133775
0.160971
-0.0153509
0
-0.191367
0.204191
-0.0193069
0
-0.205036
0.203386
-0.0209435
0
-0.197378
0.188559
-0.0191782
0
-0.182064
0.181265
-0.0169035
0
-0.182096
0.183661
-0.0163639
0
-0.188254
0.19845
-0.0163281
0
-0.216778
0.245799
-0.0165845
0
-0.288457
0.348325
-0.0176882
0
-0.426549
0.519447
-0.0220183
0
-0.62602
0.755847
-0.0247865
0
-0.926144
1.14861
-0.0270263
0
-1.40231
1.6187