/*--------------------------------*- C++ -*----------------------------------*\
| =========                 |                                                 |
| \\      /  F ield         | OpenFOAM: The Open Source CFD Toolbox           |
|  \\    /   O peration     | Version:  v1912                                 |
|   \\  /    A nd           | Website:  www.openfoam.com                      |
|    \\/     M anipulation  |                                                 |
\*---------------------------------------------------------------------------*/
FoamFile
{
    version     2.0;
    format      ascii;
    class       volScalarField;
    location    "26";
    object      epsilon;
}
// * * * * * * * * * * * * * * * * * * * * * * * * * * * * * * * * * * * * * //

dimensions      [0 2 -3 0 0 0 0];


internalField   nonuniform List<scalar> 
20320
(
4.44128e-05
0.000214364
0.000220217
0.000226008
0.000231692
0.000237222
0.000242544
0.000247586
0.000252269
0.000256496
0.000260164
0.000263154
0.000265325
0.000266512
0.000266508
0.000265016
0.000261648
0.00026004
0.000326869
0.000768954
4.40131e-05
4.3927e-05
4.46724e-05
4.64541e-05
4.97873e-05
5.53251e-05
6.38886e-05
7.65269e-05
9.45891e-05
0.000119764
0.000154117
0.000200164
0.000260845
0.000339432
0.000439043
0.000561686
0.00070656
0.000905971
0.00146135
0.00251274
4.4423e-05
4.49262e-05
4.61423e-05
4.81934e-05
5.15123e-05
5.67135e-05
6.46908e-05
7.67638e-05
9.48983e-05
0.000121958
0.000161947
0.000220208
0.000303503
0.000419807
0.000577393
0.000781913
0.00103549
0.00142028
0.0023854
0.00393951
4.501e-05
4.65128e-05
4.88116e-05
5.19672e-05
5.64245e-05
6.28202e-05
7.20936e-05
8.56551e-05
0.00010568
0.000135526
0.000180269
0.000247264
0.000346423
0.000489903
0.000690628
0.000957925
0.00130217
0.00187072
0.00319609
0.00526132
4.57367e-05
4.85777e-05
5.23319e-05
5.69923e-05
6.30131e-05
7.10639e-05
8.21459e-05
9.77546e-05
0.000120195
0.000153082
0.000202117
0.000276103
0.00038776
0.000553513
0.000790817
0.00111162
0.00153705
0.00228261
0.00393012
0.00651776
4.65817e-05
5.1104e-05
5.67262e-05
6.33741e-05
7.14953e-05
8.17814e-05
9.52895e-05
0.000113594
0.000139096
0.000175555
0.000228994
0.000309096
0.000430719
0.000614404
0.000882882
0.00125182
0.00175592
0.00267496
0.00461506
0.00773732
4.75169e-05
5.4034e-05
6.19323e-05
7.10753e-05
8.18864e-05
9.50605e-05
0.000111698
0.000133444
0.000162786
0.000203587
0.000262068
0.000348431
0.000478972
0.000677591
0.000972412
0.00138478
0.00196697
0.00305822
0.0052697
0.00894491
4.85079e-05
5.72867e-05
6.78465e-05
8.00033e-05
9.41412e-05
0.000110938
0.000131521
0.00015759
0.000191704
0.000237816
0.000302298
0.000395714
0.00053534
0.000747604
0.00106546
0.00151736
0.00217703
0.00343943
0.00590831
0.0101611
4.95127e-05
6.07486e-05
7.42956e-05
8.99563e-05
0.000108071
0.00012929
0.000154756
0.000186201
0.000226244
0.000278907
0.000350695
0.000452485
0.000602303
0.000828488
0.00116806
0.00165717
0.00239358
0.00382473
0.00654091
0.0114029
5.04825e-05
6.42681e-05
8.10218e-05
0.000100592
0.000123297
0.00014977
0.000181168
0.000219253
0.000266682
0.000327531
0.000408426
0.000520547
0.000682596
0.000924472
0.00128661
0.00181286
0.00262621
0.00422356
0.00718106
0.0126895
5.13635e-05
6.76583e-05
8.76797e-05
0.000111412
0.000139211
0.000171745
0.000210215
0.000256434
0.000313097
0.000384318
0.000476834
0.000602146
0.000779656
0.00104071
0.00142872
0.00199493
0.00288726
0.00464916
0.00784655
0.0140456
5.21012e-05
7.07065e-05
9.38512e-05
0.000121775
0.000154978
0.000194267
0.000240983
0.000297056
0.000365261
0.000449766
0.000557429
0.000700113
0.000898027
0.00118406
0.00160449
0.00221746
0.00319424
0.00512158
0.00856306
0.0154948
5.26465e-05
7.31966e-05
9.90858e-05
0.000130947
0.000169578
0.000216096
0.000272159
0.000339972
0.000422522
0.00052413
0.000651839
0.000817982
0.00104382
0.00136412
0.00182835
0.00250102
0.00357415
0.00567433
0.00937298
0.0170847
5.29623e-05
7.49369e-05
0.000102957
0.000138183
0.000181896
0.00023576
0.00030203
0.000383481
0.000483606
0.000607142
0.000761549
0.000959915
0.00122503
0.00159437
0.00212151
0.00287729
0.0040708
0.00636425
0.0103471
0.0188986
5.30292e-05
7.57905e-05
0.00010513
0.000142838
0.000190858
0.000251689
0.000328561
0.00042529
0.000546409
0.000697641
0.000887443
0.00113033
0.00145169
0.00189345
0.00251573
0.00339701
0.00475965
0.00729556
0.0116173
0.0210955
5.28495e-05
7.57012e-05
0.000105427
0.000144481
0.000195609
0.000262422
0.000349569
0.000462555
0.000607809
0.000793073
0.001029
0.00133303
0.00173534
0.00228614
0.00305801
0.00414312
0.00577672
0.00867317
0.0134538
0.0239907
5.24462e-05
7.47044e-05
0.000103857
0.000142978
0.000195665
0.000266831
0.000362981
0.000492064
0.000663581
0.000888923
0.00118308
0.00156927
0.00208695
0.00280241
0.00381475
0.00524981
0.00737335
0.0109275
0.0164753
0.0283509
5.18595e-05
7.29202e-05
0.000100624
0.000138533
0.000191021
0.000264353
0.000367171
0.000510592
0.00070854
0.000978259
0.00134235
0.00183468
0.00251187
0.00347136
0.00486913
0.00692082
0.0100093
0.0150173
0.0223172
0.0363439
5.11399e-05
7.05314e-05
9.60817e-05
0.000131645
0.000182179
0.000255143
0.000361334
0.00051548
0.000737152
0.0010519
0.00149415
0.00211536
0.00300153
0.00430613
0.0062992
0.00941873
0.0144529
0.0230767
0.0360264
0.0565606
5.0341e-05
6.77499e-05
9.06673e-05
0.000123019
0.000170063
0.000240097
0.000345747
0.000505289
0.000744575
0.00109946
0.0016205
0.00238471
0.00352262
0.00527676
0.00811685
0.0129468
0.0216679
0.0391149
0.0737599
0.144619
2.47899
6.77237
9.48935
11.4533
12.6007
13.0702
12.7723
11.7184
9.7997
8.82706
48.3653
206.269
504.436
840.039
985.456
1028.21
1016.74
1118.63
1559.61
2450.25
3628.14
3737.26
2929.46
1707.76
1138.23
821.403
621.154
484.042
385.747
313.302
258.873
217.254
184.905
159.477
139.07
122.418
108.68
97.2595
87.7378
79.7893
73.1467
67.5935
62.9334
58.9926
55.6305
52.7215
50.1682
47.899
45.8675
44.0484
42.4286
40.9957
39.7457
38.6716
37.7627
37.0109
36.3984
35.9055
35.5158
35.2277
4.38436
2.52298
3.25359
3.90378
4.39995
4.75469
4.98434
5.16357
5.45793
6.58222
24.2134
106.616
372.933
1074
1303.58
1197.57
866.617
729.786
962.795
1585.28
2701.1
3264.85
1304.67
764.931
514.619
375.091
286.655
225.906
182.047
149.295
124.216
104.631
89.0938
76.6158
66.4717
58.1333
51.2148
45.4311
40.5694
36.466
32.9908
30.0394
27.5241
25.3701
23.5139
21.9029
20.4938
19.252
18.1509
17.1705
16.2964
15.5183
14.8285
14.2192
13.6831
13.2124
12.7993
12.4374
12.1221
11.8475
5.81315
2.64288
3.00194
3.49848
3.93964
4.30494
4.61291
4.92834
5.40551
6.50151
13.0635
42.1987
109.307
422.569
543.773
760.88
868.908
938.776
1053.46
1752.12
3170.11
3375.32
1163.12
649.514
436.284
320.326
246.714
196.007
159.447
132.198
111.302
94.8865
81.7384
71.0422
62.2292
54.8899
48.7229
43.5032
39.0601
35.2613
32.0028
29.1993
26.7805
24.6859
22.8641
21.2711
19.8708
18.6331
17.5341
16.5554
15.6821
14.9026
14.2072
13.5874
13.0351
12.543
12.1042
11.7123
11.3621
11.0507
7.19887
3.05828
3.24062
3.67578
4.11746
4.51312
4.88022
5.28452
5.87102
6.98049
10.5016
23.493
46.0498
111.838
189.439
323.895
484.972
739.185
1006.47
1663.17
2782.99
1777.99
878.58
517.883
354.932
265.049
207.195
167.005
137.972
116.259
99.4616
86.0896
75.2171
66.241
58.738
52.4058
47.0172
42.3995
38.421
34.9795
31.9936
29.3962
27.1316
25.1519
23.4153
21.8857
20.5329
19.332
18.2625
17.3078
16.4546
15.6909
15.0066
14.3924
13.8405
13.3435
12.895
12.4888
12.1204
11.7902
8.62409
3.55623
3.66137
4.08722
4.5593
5.0025
5.42914
5.91731
6.6229
7.87262
10.8113
19.2981
36.4111
70.1158
126.108
225.429
377.736
625.068
1028.18
1778.13
1915
1098.22
631.718
394.538
275.137
207.931
164.883
135.346
114.182
98.2584
85.726
75.543
67.1007
60.0137
54.0012
48.8537
44.4125
40.5557
37.1904
34.2447
31.6608
29.3887
27.3869
25.6194
24.0542
22.6634
21.424
20.3166
19.3257
18.4381
17.6425
16.9278
16.2834
15.7
15.1701
14.6869
14.2442
13.8371
13.4622
13.1241
10.1425
4.11411
4.19691
4.6568
5.18824
5.7034
6.20245
6.77861
7.62582
9.12953
12.3601
20.3579
37.7
72.7084
132.751
266.452
485.576
695.217
1453.52
2321.65
1446.01
821.714
480.254
301.928
209.792
158.648
127.223
106.469
91.8294
80.7533
71.927
64.6519
58.5311
53.3149
48.83
44.9319
41.5138
38.4932
35.817
33.4461
31.3419
29.4686
27.796
26.2986
24.9545
23.7446
22.6539
21.6705
20.7848
19.9878
19.27
18.6215
18.031
17.4892
16.9897
16.5259
16.0919
15.6834
15.3021
14.9588
11.7743
4.74812
4.83769
5.37016
5.99507
6.61157
7.21007
7.88919
8.89994
10.746
14.6556
23.834
44.049
86.4391
167.958
409.07
685.764
1053.95
2419.08
2453.56
1239.32
663.595
376.321
232.442
159.895
121.291
98.8048
84.0717
73.8143
66.1917
60.1993
55.2945
51.1675
47.6264
44.543
41.8265
39.3904
37.1606
35.1466
33.3516
31.7383
30.2729
28.9326
27.7043
26.5773
25.5415
24.591
23.7237
22.9371
22.2253
21.5803
20.992
20.4463
19.9363
19.4573
19.002
18.5636
18.1325
17.7286
17.3815
13.6175
5.4702
5.59544
6.23965
7.00031
7.75802
8.49372
9.31184
10.5139
12.7667
17.5927
28.829
53.8754
107.629
222.456
588.422
941.096
1860.02
4621.74
2180.55
1023.37
521.838
288.43
176.891
122.936
95.8629
79.7316
68.3299
60.6203
55.2098
51.1963
48.0431
45.44
43.206
41.2384
39.4934
37.9532
36.6315
35.4606
34.3258
33.2134
32.1311
31.0761
30.066
29.1091
28.2053
27.3595
26.582
25.8763
25.2333
24.6438
24.0971
23.571
23.0683
22.5898
22.1262
21.6808
21.2396
20.8148
20.4778
15.7275
6.29339
6.49006
7.2956
8.24627
9.20099
10.1274
11.1429
12.5993
15.3341
21.309
35.4074
67.8282
142.339
311.433
670.666
1355.84
3327.28
4093.77
1691.51
770.508
384.82
212.687
133.596
97.4799
78.9281
65.8572
57.1212
51.3094
47.332
44.5138
42.3956
40.6942
39.249
37.9765
36.8483
35.8578
34.9718
34.1717
33.4392
32.718
31.9714
31.2009
30.4288
29.6755
28.9515
28.2687
27.6384
27.0637
26.5359
26.0437
25.5735
25.1083
24.656
24.2265
23.8284
23.483
23.1695
22.8767
22.6729
18.1199
7.23459
7.54289
8.57492
9.79688
11.0309
12.2227
13.5221
15.366
18.7378
26.1618
44.3147
88.3428
195.539
461.021
1018.82
2235.97
5959.9
2749.7
1165.85
533.762
269.321
154.026
103.042
80.5691
66.3119
55.7552
48.7659
44.1597
41.0899
39.0061
37.5363
36.4265
35.521
34.7364
34.0384
33.3991
32.7649
32.1396
31.5742
31.0484
30.5167
29.9641
29.3989
28.8368
28.2909
27.7733
27.2933
26.8527
26.4436
26.0541
25.6709
25.285
24.9068
24.5515
24.2341
23.9603
23.6978
23.4997
23.41
20.7672
8.3108
8.77594
10.1172
11.7236
13.3696
14.948
16.6464
19.0886
23.463
32.8142
56.6661
117.924
273.817
685.048
1676.76
4257.41
4503.85
1793.68
761.973
353.922
185.417
113.781
83.9302
69.002
57.0307
48.0914
42.0036
38.0383
35.4985
33.8847
32.8573
32.1791
31.6926
31.3027
30.9567
30.61
30.2106
29.7657
29.3376
28.9429
28.5574
28.1641
27.7609
27.3555
26.9579
26.5787
26.225
25.8974
25.589
25.2887
24.9861
24.6781
24.3757
24.0944
23.846
23.6267
23.4219
23.282
23.2063
23.6028
9.53511
10.2026
11.9609
14.1049
16.356
18.5263
20.8059
24.1216
30.1737
42.3801
73.6391
159.315
385.579
978.12
2932.25
8925.73
3035.55
1146.86
485.053
232.6
130.579
88.7938
72.457
60.3848
49.9946
42.0306
36.4274
32.7363
30.4237
29.0469
28.282
27.8956
27.7224
27.6501
27.6045
27.527
27.3701
27.1359
26.874
26.6174
26.3648
26.1059
25.8369
25.5609
25.2857
25.0198
24.769
24.5338
24.3081
24.0828
23.851
23.613
23.3788
23.1609
22.9666
22.7906
22.6298
22.5099
22.4194
26.6245
10.9065
11.8302
14.1437
17.0304
20.1667
23.2418
26.3859
30.9169
39.6689
56.3927
96.8771
215.456
521.408
1253.39
3991.58
5099.44
1802.47
693.974
304.674
156.443
97.2132
74.7022
63.7096
53.4289
44.3438
37.0969
31.809
28.2292
25.9681
24.6554
23.9949
23.7608
23.7826
23.9332
24.12
24.2727
24.3432
24.3247
24.2492
24.1477
24.0318
23.9011
23.7543
23.5934
23.4249
23.2566
23.0939
22.9372
22.7819
22.6214
22.4513
22.2739
22.0969
21.9294
21.775
21.6301
21.4946
21.3783
21.2773
29.522
12.4228
13.6963
16.719
20.6158
25.0108
29.458
33.9136
40.0182
52.6241
76.5534
127.504
285.681
599.986
1444.74
4344.19
2613.39
990.382
411.451
196.049
111.274
78.0907
66.2476
56.6736
47.6089
39.5143
32.8842
27.8918
24.406
22.1475
20.8186
20.1623
19.9713
20.0791
20.3533
20.6904
21.0123
21.2674
21.4388
21.5411
21.5965
21.6186
21.6124
21.5798
21.5248
21.4538
21.3742
21.2912
21.205
21.1125
21.0095
20.8937
20.7675
20.6369
20.5078
20.3823
20.2589
20.138
20.0246
19.9251
32.3622
14.1031
15.8628
19.7564
24.9819
31.1438
37.6563
44.1294
52.2117
69.2655
105.064
165.118
349.668
642.663
1454.65
3873.47
1382.6
563.16
256.749
134.552
85.4479
67.9855
59.485
50.7407
42.5294
35.2136
29.1419
24.4679
21.1178
18.8855
17.533
16.8432
16.6332
16.7498
17.0649
17.4742
17.8971
18.2791
18.5945
18.8436
19.0375
19.1861
19.2953
19.369
19.4119
19.4306
19.432
19.421
19.3985
19.3628
19.3112
19.2427
19.1598
19.0668
18.9679
18.8649
18.758
18.6493
18.545
18.4573
36.0464
16.035
18.3825
23.3794
30.3057
38.9157
48.4713
58.0877
68.9213
89.0053
142
216.676
376.696
735.251
1618.79
1828.61
790.696
354.905
174.349
99.6601
70.9441
61.8254
53.6835
45.5502
37.9938
31.3106
25.7452
21.4068
18.2394
16.0797
14.7321
14.0127
13.763
13.8473
14.1489
14.5701
15.0339
15.4853
15.8931
16.247
16.548
16.8002
17.0078
17.174
17.3037
17.4028
17.4772
17.531
17.5656
17.5801
17.5734
17.5455
17.4987
17.4365
17.3622
17.2784
17.1874
17.0939
17.0057
16.9363
40.3788
18.3489
21.3945
27.8219
36.9305
48.8297
62.7846
77.284
92.4967
115.833
173.791
296.403
467.361
961.929
2690.03
1250.81
531.974
245.417
126.492
78.8361
63.1948
56.3472
48.5438
40.9008
33.8791
27.7322
22.6298
18.6335
15.6842
13.6406
12.335
11.6088
11.3243
11.3634
11.6238
12.0191
12.4795
12.953
13.4064
13.8225
14.1948
14.5221
14.8048
15.0451
15.2461
15.4125
15.5487
15.6578
15.7412
15.7986
15.8301
15.8362
15.8194
15.783
15.7305
15.6656
15.5929
15.5188
15.4521
15.4043
45.0079
21.2145
25.2087
33.4599
45.5324
61.803
81.9797
103.998
126.468
155.188
215.461
353.845
585.824
1272.84
2062.03
858.951
373.852
176.092
95.5062
66.0208
58.2522
51.4481
43.9217
36.6661
30.1003
24.4293
19.7588
16.1047
13.3961
11.5013
10.2707
9.56412
9.26089
9.25855
9.46974
9.8204
10.25
10.7121
11.1741
11.6158
12.0258
12.3985
12.7313
13.0239
13.2777
13.4953
13.6794
13.8321
13.9543
14.0463
14.1086
14.1427
14.1511
14.1373
14.1056
14.061
14.0093
13.958
13.9155
13.8903
51.5636
24.9002
30.1977
40.9506
57.3785
79.8495
108.806
142.082
176.654
216.602
285.521
410.134
763.041
1685.88
1430.48
601.547
266.151
127.747
74.5968
58.5133
53.793
46.9522
39.6492
32.7384
26.5929
21.3664
17.1086
13.7954
11.3402
9.61557
8.48423
7.82005
7.51618
7.4838
7.64879
7.94925
8.33443
8.76428
9.20903
9.64795
10.0674
10.459
10.8176
11.1406
11.4275
11.6788
11.8956
12.079
12.2293
12.347
12.4332
12.4897
12.5193
12.5262
12.5151
12.4919
12.4632
12.4363
12.4188
12.4155
58.0715
29.8002
36.7956
50.9718
74.3954
106.824
148.748
199.411
252.824
312.656
410.546
608.217
1109.01
2486.3
1047.67
435.796
188.514
93.0841
60.8166
54.4942
49.4551
42.6512
35.601
29.0455
23.3164
18.5228
14.667
11.6915
9.49523
7.95259
6.93594
6.33067
6.0417
5.99185
6.1186
6.37088
6.707
7.09362
7.50473
7.92096
8.32824
8.71676
9.07983
9.41323
9.71462
9.98289
10.2177
10.419
10.587
10.7221
10.8256
10.8996
10.9474
10.9732
10.9824
10.981
10.9756
10.9733
10.9798
10.9968
58.4916
36.6342
45.7636
63.6183
95.5728
129.615
181.011
248.371
333.637
448.839
617.089
977.391
2065.4
2209.65
786.082
302.555
128.592
68.7399
52.492
50.6629
45.4071
38.5992
31.7653
25.5651
20.2555
15.8904
12.4292
9.78585
7.8478
6.49125
5.59682
5.06054
4.79758
4.74105
4.83835
5.04767
5.3354
5.67433
6.04272
6.42342
6.80321
7.17211
7.52272
7.84981
8.14977
8.42034
8.66011
8.8683
9.0447
9.18977
9.30483
9.39221
9.45526
9.49837
9.5268
9.54646
9.56361
9.58426
9.61287
9.64784
68.6155
45.6843
58.9035
75.7574
96.807
129.307
178.397
248.932
359.668
541.885
844.461
1471.14
3331.46
1405.27
495.433
188.427
84.8385
53.0882
48.516
47.1272
41.5616
34.7441
28.1314
22.2962
17.4117
13.4718
10.3963
8.07582
6.38965
5.21667
4.44577
3.98271
3.75234
3.69691
3.77236
3.9447
4.18712
4.47798
4.79962
5.13757
5.48016
5.81804
6.14383
6.45192
6.73811
6.99936
7.23366
7.43973
7.61707
7.76607
7.88802
7.98517
8.06081
8.11914
8.16507
8.20405
8.2417
8.28302
8.33104
8.38123
109.694
49.5193
68.2148
76.9737
91.067
118.834
162.08
225.163
325.698
506.615
859.65
1612.8
1932.95
706.783
264.006
108.997
57.3108
44.4108
46.3456
43.6519
37.7103
30.9856
24.6704
19.2378
14.7903
11.2718
8.57014
6.55912
5.11356
4.1165
3.46526
3.0751
2.88
2.83039
2.88967
3.03046
3.23166
3.47639
3.7507
4.04287
4.34308
4.64312
4.93618
5.21677
5.48056
5.72429
5.94556
6.14285
6.31552
6.46378
6.58879
6.6926
6.77818
6.84932
6.91043
6.96626
7.02166
7.08073
7.14509
7.20751
131.491
53.2321
61.6928
71.7236
84.2031
108.238
145.352
198.457
277.387
405.486
641.368
1063.06
695.419
309.616
133.394
64.44
42.366
40.8799
44.0453
40.2314
33.9393
27.3451
21.3897
16.3984
12.3993
9.29549
6.95195
5.23274
4.01234
3.17951
2.64032
2.31931
2.15905
2.11747
2.16445
2.27824
2.44249
2.64428
2.87297
3.11943
3.3757
3.63492
3.89122
4.13957
4.3759
4.59696
4.80037
4.98451
5.14859
5.2927
5.41772
5.52542
5.61831
5.69963
5.77314
5.84291
5.91297
5.98653
6.06387
6.13549
123.76
53.6459
54.1862
63.7105
77.0017
99.3861
132.195
178.322
241.803
327.127
459.519
505.652
285.341
144.675
71.9174
42.2393
35.4293
40.705
41.4764
36.6892
30.2101
23.8499
18.3144
13.7935
10.2466
7.54467
5.53929
4.09083
3.07698
2.39393
1.95671
1.69886
1.57093
1.53774
1.5749
1.66537
1.79681
1.95965
2.14598
2.34892
2.56237
2.78082
2.99941
3.21386
3.42055
3.61653
3.79951
3.96794
4.12094
4.25845
4.38108
4.49019
4.58783
4.6766
4.7596
4.84017
4.92159
5.00624
5.09311
5.17079
104.77
50.095
49.0863
56.7184
69.8894
90.6059
122.527
166.02
220.318
284.441
344.081
252.62
144.784
77.8133
43.7032
31.8446
33.3518
40.3959
38.6623
33.045
26.5501
20.5348
15.4729
11.4383
8.33687
6.0175
4.32586
3.1243
2.29657
1.7474
1.40077
1.19879
1.09948
1.07391
1.10273
1.17299
1.27563
1.40383
1.55195
1.71507
1.88865
2.0685
2.25075
2.43193
2.60901
2.77943
2.94114
3.09268
3.23319
3.3624
3.4807
3.58905
3.68897
3.78249
3.87205
3.96029
4.04978
4.14202
4.23492
4.31563
85.4074
44.4933
44.5041
51.0899
63.224
83.1667
115.893
158.747
207.329
254.683
246.973
148.583
84.056
46.771
30.2135
27.6277
34.4254
38.8655
35.372
29.3194
23.0149
17.4412
12.8884
9.34182
6.66876
4.70642
3.3011
2.32114
1.65847
1.22688
0.959055
0.805338
0.73045
0.711151
0.73257
0.785291
0.862912
0.960923
1.07546
1.20321
1.34095
1.48563
1.63435
1.7844
1.93333
2.07902
2.21974
2.35416
2.48145
2.60122
2.71362
2.81925
2.91919
3.01491
3.10824
3.20115
3.29546
3.39188
3.4874
3.56831
64.9176
38.944
40.0256
46.4813
57.9924
77.6473
109.777
151.533
194.177
223.059
159.956
92.9082
51.8083
30.5805
23.9053
26.982
36.0546
36.7175
31.8944
25.6454
19.6713
14.6038
10.5753
7.50413
5.23407
3.59905
2.45087
1.66706
1.14908
0.819595
0.619022
0.505481
0.450686
0.436393
0.451426
0.489094
0.545297
0.617277
0.702729
0.799786
0.906068
1.01962
1.13828
1.26004
1.38302
1.50555
1.62618
1.7438
1.85758
1.96711
2.07234
2.17355
2.27147
2.36708
2.4616
2.55638
2.65251
2.74991
2.84485
2.92344
52.4381
34.3345
36.0689
42.9267
54.8384
74.5649
105.272
145.218
179.528
174.005
104.209
58.8389
32.9204
22.0545
21.6462
28.7488
35.9196
33.711
28.202
22.0792
16.5641
12.043
8.53621
5.91743
4.0191
2.67924
1.75883
1.14904
0.756362
0.511933
0.366615
0.286211
0.248007
0.237869
0.247658
0.272945
0.311361
0.361489
0.422263
0.492663
0.571559
0.657731
0.74984
0.846303
0.945782
1.04693
1.14864
1.24998
1.35023
1.44893
1.54591
1.64128
1.73538
1.82881
1.92226
2.01643
2.11167
2.20718
2.29873
2.37284
52.6977
30.2549
32.8777
40.5397
53.7177
74.5631
105.33
143.629
163.705
117.648
67.7017
37.1247
21.9339
18.1238
21.957
31.7705
34.2868
30.3286
24.4852
18.6962
13.7248
9.76669
6.76427
4.56701
3.0063
1.92903
1.21413
0.752423
0.463115
0.288975
0.189499
0.136749
0.112507
0.106019
0.111654
0.126858
0.150632
0.182645
0.222725
0.270653
0.326026
0.388269
0.456623
0.530224
0.608185
0.689593
0.773505
0.859148
0.945888
1.03331
1.12117
1.20941
1.29814
1.38759
1.47799
1.56941
1.6615
1.7527
1.83847
1.9064
54.8704
27.197
30.7368
39.371
54.367
78.3682
111.516
144.43
134.505
78.9318
43.1396
23.4405
16.1236
17.1168
24.0956
32.8737
31.7965
26.7542
20.907
15.5726
11.1788
7.77391
5.24693
3.43495
2.17607
1.33797
0.796851
0.457801
0.25407
0.138387
0.0773072
0.047831
0.0354188
0.0321996
0.0347285
0.041949
0.0538923
0.0710091
0.0938126
0.122699
0.157865
0.199277
0.246701
0.299734
0.357875
0.420572
0.487254
0.557414
0.630569
0.706294
0.78424
0.864225
0.946187
1.03005
1.11565
1.2025
1.28955
1.37453
1.45263
1.51302
48.113
25.0913
29.4218
39.2855
56.5118
85.7701
124.356
144.245
92.7305
50.9447
26.4002
15.4347
13.7496
18.0812
27.6814
31.8483
28.4523
23.0169
17.509
12.7395
8.93449
6.05701
3.96713
2.50127
1.51791
0.883546
0.486551
0.249096
0.116376
0.0493131
0.0198494
0.0087912
0.00517355
0.00435848
0.00494688
0.00680623
0.0103465
0.0162686
0.0254136
0.0386215
0.0566021
0.0798497
0.108625
0.142976
0.182797
0.227871
0.277933
0.33267
0.391782
0.454972
0.521997
0.592547
0.666452
0.743217
0.822381
0.903001
0.983411
1.06067
1.12966
1.18122
39.9117
22.9876
28.4999
40.3293
60.2708
95.8174
135.959
112.332
60.7105
30.5209
15.7933
11.5668
13.6461
20.5086
29.9688
29.3301
24.7976
19.4036
14.3903
10.2239
6.99081
4.60227
2.90688
1.75392
1.00981
0.544243
0.266402
0.112837
0.0384236
0.00977127
0.00201311
0.000505767
0.000228471
0.000179729
0.000206071
0.000312394
0.000583546
0.00122723
0.00265655
0.00554738
0.0107953
0.0193634
0.0321098
0.0496847
0.0725058
0.100796
0.134626
0.173975
0.218737
0.26875
0.323791
0.383572
0.447722
0.515717
0.58671
0.65945
0.731672
0.799854
0.858361
0.899169
31.4181
20.8133
27.8704
43.3003
69.0247
108.616
130.364
71.4903
35.2206
16.8204
10.2555
10.4921
15.109
24.1666
28.895
26.1441
21.199
16.088
11.6189
8.0396
5.33836
3.39198
2.04803
1.17501
0.628473
0.302044
0.122091
0.0366705
0.00669124
0.0007136
0.000109769
5.81416e-05
5.10665e-05
4.93329e-05
4.8947e-05
4.97619e-05
5.31479e-05
6.39846e-05
9.88797e-05
0.000212776
0.000568885
0.00156391
0.00393917
0.00873849
0.0170924
0.0299937
0.0481813
0.0721385
0.102121
0.138197
0.180263
0.228037
0.281054
0.338609
0.399632
0.4625
0.524628
0.581973
0.628015
0.653365
23.8481
18.6723
27.6812
48.7954
88.2148
130.263
83.4453
40.2147
18.1454
9.5355
8.28266
11.1833
17.7897
26.7155
26.6443
22.7306
17.7795
13.1011
9.19751
6.17504
3.95838
2.40484
1.38022
0.738569
0.354349
0.141666
0.0406586
0.00629586
0.000462645
7.34118e-05
5.2197e-05
4.95641e-05
4.84258e-05
4.75841e-05
4.69117e-05
4.6388e-05
4.60203e-05
4.58645e-05
4.61103e-05
4.73587e-05
5.18412e-05
6.87657e-05
0.000136161
0.000396925
0.00127716
0.00369496
0.00902788
0.0187512
0.0340437
0.0556219
0.0837569
0.118325
0.158857
0.204519
0.254013
0.305382
0.355626
0.40004
0.430752
0.432749
18.5788
17.1744
29.5911
61.895
112.69
101.271
45.8055
19.5187
9.14911
6.75871
8.37054
13.08
21.5622
26.0724
23.7394
19.296
14.5908
10.435
7.10419
4.60566
2.82699
1.62835
0.875323
0.422979
0.170756
0.0493307
0.00737053
0.000452501
6.96434e-05
5.30689e-05
5.07756e-05
4.94324e-05
4.8315e-05
4.73908e-05
4.6633e-05
4.60289e-05
4.55775e-05
4.52772e-05
4.51183e-05
4.50926e-05
4.52264e-05
4.56356e-05
4.6725e-05
5.02094e-05
6.45708e-05
0.000133058
0.000456383
0.00172539
0.00545014
0.0135851
0.0276407
0.048251
0.0752724
0.107916
0.144762
0.183581
0.220971
0.25158
0.26645
0.248487
21.76
18.9357
40.8134
108.902
111.835
49.0934
20.1482
8.73655
5.65046
6.38927
9.66907
15.9898
24.2717
24.0861
20.4795
15.9559
11.6706
8.08688
5.31901
3.30727
1.92174
1.04018
0.50849
0.209442
0.0626349
0.00977764
0.000566187
7.3689e-05
5.54647e-05
5.28469e-05
5.11329e-05
4.9693e-05
4.84606e-05
4.74206e-05
4.65611e-05
4.58648e-05
4.53196e-05
4.49131e-05
4.46375e-05
4.44999e-05
4.45186e-05
4.47026e-05
4.50451e-05
4.55621e-05
4.64075e-05
4.81796e-05
5.38029e-05
8.1351e-05
0.000244436
0.00110333
0.00425686
0.0119056
0.0253663
0.0445823
0.0683861
0.0945805
0.119672
0.138228
0.141648
0.116242
44.3922
34.3584
89.1552
132.863
52.1806
19.7411
7.96516
4.69184
4.96712
7.28808
11.8797
19.9107
23.5692
21.1943
17.0875
12.8118
9.05741
6.06111
3.82843
2.25825
1.23268
0.611095
0.258075
0.0809317
0.0137694
0.000826469
8.35176e-05
5.92475e-05
5.60078e-05
5.38287e-05
5.1951e-05
5.0309e-05
4.89097e-05
4.77133e-05
4.6709e-05
4.58786e-05
4.52067e-05
4.46815e-05
4.4298e-05
4.40593e-05
4.39694e-05
4.40258e-05
4.42282e-05
4.45988e-05
4.51908e-05
4.60726e-05
4.73537e-05
4.94115e-05
5.40626e-05
7.32228e-05
0.000193996
0.000921021
0.0037986
0.0106832
0.0219681
0.0362836
0.0507685
0.060946
0.0603811
0.0413893
107.129
129.454
127.237
44.7477
15.6517
6.21375
3.67756
3.85363
5.64996
9.04079
14.9829
21.8079
21.2649
17.9092
13.8087
9.96797
6.79084
4.36436
2.62167
1.44914
0.729485
0.316428
0.10465
0.019826
0.00133284
0.000101472
6.44355e-05
6.04538e-05
5.78137e-05
5.5448e-05
5.33279e-05
5.14513e-05
4.98174e-05
4.84068e-05
4.72026e-05
4.61893e-05
4.53519e-05
4.4677e-05
4.41547e-05
4.37812e-05
4.35553e-05
4.34755e-05
4.35445e-05
4.3778e-05
4.4207e-05
4.48737e-05
4.58485e-05
4.72638e-05
4.93088e-05
5.23284e-05
5.77345e-05
7.37993e-05
0.000159004
0.000645506
0.0024858
0.00648694
0.0118536
0.0160915
0.0157953
0.0086392
34.8859
52.6002
19.2225
7.66771
3.78508
2.69612
2.99305
4.43771
7.20096
11.5708
18.7025
20.546
18.4101
14.6717
10.8193
7.49469
4.89386
2.99632
1.68668
0.863016
0.383986
0.133537
0.028451
0.00230085
0.000135873
7.01184e-05
6.54472e-05
6.27535e-05
6.01558e-05
5.76681e-05
5.53526e-05
5.32467e-05
5.13541e-05
4.96873e-05
4.82315e-05
4.69795e-05
4.59188e-05
4.50363e-05
4.43211e-05
4.37677e-05
4.33722e-05
4.31296e-05
4.30382e-05
4.31067e-05
4.33571e-05
4.38194e-05
4.45408e-05
4.56044e-05
4.71234e-05
4.92556e-05
5.2265e-05
5.65187e-05
6.29184e-05
7.46983e-05
0.000106088
0.000210655
0.00047214
0.000777845
0.00070609
0.000258843
4.95126e-05
6.47852e-05
8.48293e-05
0.000113434
0.000155849
0.00022072
0.000321846
0.000480354
0.000728008
0.00111163
0.00170068
0.0026042
0.00401048
0.00628088
0.0101688
0.0173301
0.0318357
0.0663499
0.17058
0.740959
4.86733e-05
6.17873e-05
7.88949e-05
0.000103495
0.000140539
0.0001985
0.00029149
0.000442246
0.000686952
0.00108214
0.00171608
0.00273197
0.00438119
0.00715367
0.0121086
0.0217379
0.0425664
0.0950095
0.254898
1.05725
4.78505e-05
5.88272e-05
7.30516e-05
9.36167e-05
0.000124944
0.000174854
0.000256838
0.000393621
0.000623252
0.00100845
0.00165199
0.0027261
0.00453661
0.00767731
0.0134251
0.0247754
0.0492433
0.107347
0.26234
0.649179
4.70733e-05
5.60191e-05
6.75404e-05
8.4267e-05
0.000109965
0.000151456
0.000220815
0.000339086
0.000543016
0.000896016
0.00150656
0.00256201
0.00439771
0.00765364
0.0136573
0.025374
0.0496841
0.102749
0.219814
0.461656
4.63638e-05
5.34508e-05
6.25423e-05
7.57982e-05
9.62986e-05
0.000129713
0.000186206
0.000283873
0.00045527
0.000758592
0.00129693
0.00225309
0.00395669
0.00702438
0.0126758
0.0234591
0.0447881
0.0876019
0.17115
0.329463
4.57373e-05
5.11782e-05
5.8163e-05
6.84137e-05
8.43761e-05
0.000110588
0.000155165
0.000232642
0.000369577
0.000614485
0.00105535
0.00185129
0.0032912
0.00590721
0.0107056
0.0196448
0.0365309
0.0682594
0.125652
0.222661
4.52022e-05
4.92292e-05
5.44408e-05
6.218e-05
7.43606e-05
9.45387e-05
0.000128941
0.000188577
0.000293552
0.000480836
0.000818098
0.00142871
0.00253713
0.00455165
0.00821692
0.0148951
0.0270359
0.0487377
0.085823
0.14432
4.47619e-05
4.76074e-05
5.13614e-05
5.70554e-05
6.62046e-05
8.16014e-05
0.000107905
0.000153069
0.000231383
0.000368897
0.000613027
0.00104963
0.00183328
0.00323996
0.00575705
0.0102322
0.0180955
0.0315895
0.0537145
0.0874099
4.44171e-05
4.62985e-05
4.8866e-05
5.29272e-05
5.97374e-05
7.15306e-05
9.17724e-05
0.000126022
0.000183882
0.000282553
0.000452957
0.00075003
0.00126976
0.00217702
0.00374959
0.0064448
0.0109897
0.0184637
0.0302607
0.0477445
4.41684e-05
4.52702e-05
4.68584e-05
4.96399e-05
5.47208e-05
6.39855e-05
8.00776e-05
0.000106616
0.000149514
0.000219559
0.000336243
0.000533364
0.000867071
0.00142723
0.00235263
0.00385189
0.00623234
0.00992631
0.0154831
0.0234889
4.40359e-05
4.44687e-05
4.52309e-05
4.71322e-05
5.1241e-05
5.93911e-05
7.37522e-05
9.66105e-05
0.000131876
0.000187902
0.000280738
0.000438284
0.000706937
0.00116212
0.00192353
0.00318424
0.00526859
0.00875352
0.0147977
0.0262575
4.89009e-05
4.60059e-05
5.43104e-05
8.15613e-05
0.000155228
0.000353714
0.000821326
0.00168947
0.00300551
0.00477826
0.00705454
0.009946
0.0136807
0.0187574
0.0259824
0.0362903
0.0513094
0.0733804
0.104617
0.150726
0.0279999
0.00356087
0.0124195
0.0245547
0.0361959
0.0454199
0.0520057
0.0565589
0.0601776
0.0640945
0.0691105
0.0759027
0.0852243
0.0999816
0.122084
0.152691
0.19267
0.242056
0.303875
0.411146
1.18027
0.440034
0.338137
0.269413
0.226548
0.198975
0.180089
0.168284
0.163769
0.16553
0.170735
0.177227
0.187995
0.227105
0.282622
0.35492
0.443871
0.531913
0.626464
0.823758
0.340428
0.320847
0.282673
0.279786
0.275773
0.265622
0.255268
0.249277
0.247953
0.249315
0.250729
0.245703
0.252673
0.281361
0.307529
0.346506
0.402797
0.461386
0.531371
0.644765
0.127237
0.091687
0.0858428
0.100323
0.115043
0.125631
0.133126
0.138817
0.143242
0.147264
0.151753
0.158845
0.175489
0.193411
0.202589
0.20902
0.21762
0.229357
0.252786
0.293948
0.0666746
0.0380746
0.031923
0.0374893
0.045747
0.0536283
0.0604015
0.0660387
0.0707834
0.0751348
0.0798332
0.0863086
0.0959478
0.105231
0.109869
0.110487
0.109438
0.108934
0.112103
0.120218
0.0338967
0.0159483
0.011954
0.0142945
0.0181678
0.0224451
0.0265262
0.0302746
0.0337187
0.03701
0.0404184
0.0442896
0.0485682
0.0520574
0.0534613
0.0527293
0.0506698
0.0483092
0.046647
0.045965
0.0154846
0.00493002
0.00337916
0.00451526
0.00626861
0.00832705
0.0104901
0.0126055
0.0146361
0.0165804
0.0184568
0.0202509
0.0217954
0.0227191
0.0227078
0.0217703
0.0201819
0.0183061
0.0164469
0.0146928
0.00640489
0.000972556
0.000564083
0.000906839
0.0014762
0.00221972
0.00308727
0.00400637
0.00491675
0.00577818
0.00654707
0.00716621
0.00755246
0.00761206
0.00729728
0.00664718
0.00577032
0.0047973
0.00383592
0.00294398
0.00279013
0.000360873
9.74144e-05
0.000125688
0.000204885
0.000334312
0.000513916
0.000732162
0.000964241
0.00118573
0.00136949
0.00148853
0.00151993
0.00145227
0.00129376
0.00107328
0.00083102
0.000604497
0.000417772
0.000278857
0.00230384
0.000337584
5.71423e-05
4.77904e-05
5.20791e-05
6.09547e-05
7.46744e-05
9.30217e-05
0.000114083
0.0001346
0.000150502