/*--------------------------------*- C++ -*----------------------------------*\
| =========                 |                                                 |
| \\      /  F ield         | OpenFOAM: The Open Source CFD Toolbox           |
|  \\    /   O peration     | Version:  v1912                                 |
|   \\  /    A nd           | Website:  www.openfoam.com                      |
|    \\/     M anipulation  |                                                 |
\*---------------------------------------------------------------------------*/
FoamFile
{
    version     2.0;
    format      ascii;
    class       volScalarField;
    location    "26";
    object      k;
}
// * * * * * * * * * * * * * * * * * * * * * * * * * * * * * * * * * * * * * //

dimensions      [0 2 -2 0 0 0 0];


internalField   nonuniform List<scalar> 
20320
(
0.00413917
0.00425424
0.00433133
0.00440694
0.00448051
0.00455153
0.00461935
0.00468315
0.00474201
0.00479484
0.00484045
0.00487745
0.00490425
0.00491886
0.00491881
0.00490044
0.00485883
0.0048388
0.00563469
0.00996474
0.00415079
0.00414923
0.00419454
0.0042915
0.00446002
0.00472021
0.0050905
0.00558714
0.00622456
0.00701455
0.00796593
0.00908629
0.0103801
0.0118469
0.0134732
0.0152195
0.016974
0.0188749
0.0234987
0.0274618
0.00417734
0.00421774
0.00430441
0.00444431
0.00466223
0.00498978
0.00546668
0.00614133
0.00707086
0.00831693
0.00993704
0.0119741
0.0144455
0.0173336
0.02057
0.0239855
0.027226
0.0305492
0.0375352
0.0405253
0.00421509
0.00432003
0.004475
0.00468215
0.00496602
0.00535903
0.00590465
0.00666081
0.00770513
0.00913779
0.0110779
0.0136486
0.0169451
0.0209924
0.0256943
0.0307275
0.0354642
0.0403887
0.0493835
0.0514037
0.00426139
0.00445105
0.00469481
0.0049895
0.00535854
0.00583416
0.00646083
0.00729873
0.00843105
0.00997255
0.0120774
0.0149371
0.0187495
0.0236445
0.0295576
0.0360192
0.0421523
0.0487347
0.0595828
0.0607976
0.00431464
0.00460821
0.00496159
0.00536631
0.00584368
0.00642485
0.0071543
0.00809275
0.00932445
0.0109678
0.0131908
0.0162241
0.0203487
0.0258194
0.0326657
0.0403334
0.0477649
0.0560268
0.0685956
0.069187
0.00437284
0.00478643
0.00526773
0.00580339
0.00641164
0.0071215
0.00797673
0.00903779
0.0103886
0.0121477
0.0144876
0.017658
0.0219935
0.0278551
0.0353901
0.0440359
0.0526611
0.0626035
0.076776
0.0769256
0.0044337
0.00497946
0.00560377
0.00628916
0.00704998
0.00791217
0.00891792
0.0101265
0.0116206
0.0135176
0.0159905
0.0192985
0.023808
0.0299574
0.0380039
0.0474297
0.0571372
0.068727
0.0843976
0.0842606
0.00449455
0.00517972
0.00595747
0.00680779
0.00774082
0.00877888
0.00996178
0.0113467
0.013014
0.0150787
0.0177126
0.0211794
0.0258648
0.0322602
0.0407117
0.0507717
0.061455
0.0746133
0.0916636
0.0913877
0.00455248
0.00537818
0.00631364
0.00733881
0.00846021
0.00969661
0.0110851
0.0126798
0.014558
0.0168305
0.0196666
0.0233315
0.0282235
0.0348698
0.0436838
0.0542944
0.0658697
0.0804889
0.0987862
0.0984822
0.00460444
0.00556474
0.00665464
0.00785757
0.00917817
0.0106329
0.0122564
0.0140998
0.0162357
0.0187697
0.0218662
0.0257902
0.0309481
0.0378928
0.047087
0.0582301
0.0706471
0.0866022
0.106001
0.10573
0.00464746
0.00572884
0.0069613
0.00833631
0.00985973
0.0115482
0.0134359
0.0155714
0.0180226
0.020888
0.0243256
0.0285977
0.0341167
0.0414549
0.0511127
0.0628455
0.0761043
0.093266
0.113603
0.113314
0.00467898
0.0058604
0.0072147
0.00874645
0.0104672
0.012398
0.0145761
0.0170501
0.0198843
0.0231702
0.0270576
0.0318043
0.0378278
0.0457181
0.056007
0.0684875
0.0826718
0.100939
0.122033
0.121542
0.00469712
0.00595102
0.00739816
0.00906126
0.0109628
0.0131345
0.0156223
0.0184802
0.0217728
0.0255874
0.030066
0.0354623
0.0422001
0.0508912
0.0621008
0.07564
0.0909824
0.110334
0.131979
0.130914
0.00470095
0.00599497
0.00749934
0.00925901
0.0113131
0.0137109
0.0165156
0.019795
0.0236231
0.02809
0.0333358
0.0396149
0.0473659
0.0572366
0.0698444
0.0850097
0.102034
0.122665
0.144648
0.142329
0.00469063
0.00599012
0.0075121
0.00932606
0.0114925
0.0140859
0.0171966
0.0209187
0.0253499
0.0305984
0.0368169
0.0442757
0.0534496
0.0650603
0.0798343
0.097637
0.11746
0.140136
0.16237
0.157472
0.0046674
0.00593829
0.00743751
0.00925896
0.0114876
0.0142292
0.0176115
0.0217705
0.0268476
0.032994
0.0404029
0.049393
0.0605213
0.0746637
0.0927955
0.114999
0.139947
0.166936
0.190089
0.180176
0.00463339
0.00584495
0.00728373
0.00906527
0.0112992
0.0141261
0.0177195
0.0222726
0.027995
0.0351143
0.0439084
0.0548001
0.0685107
0.0862186
0.109439
0.138965
0.173686
0.211174
0.239471
0.220452
0.00459129
0.00571845
0.00706489
0.00876276
0.0109435
0.0137818
0.0175008
0.0223625
0.0286682
0.0367608
0.0470586
0.0601678
0.0770955
0.0995505
0.130088
0.171294
0.22423
0.287538
0.340331
0.312466
0.00454407
0.00556873
0.00679896
0.00837683
0.0104499
0.013222
0.016963
0.0220072
0.0287632
0.0377227
0.0495028
0.064981
0.0855906
0.113842
0.153985
0.212137
0.295867
0.415611
0.561367
0.609719
1.24357
1.68855
2.1142
2.39641
2.55375
2.61656
2.57632
2.43218
2.15776
2.01523
6.29658
16.5137
29.8869
42.0162
46.7133
48.0933
47.6837
50.8234
63.493
85.8314
111.347
113.625
96.7699
67.4902
51.4762
41.4055
34.3658
29.1005
25.0128
21.774
19.1725
17.0581
15.3198
13.8811
12.6703
11.6376
10.7494
9.98238
9.31918
8.74654
8.25343
7.82939
7.46436
7.149
6.87436
6.6324
6.4165
6.22162
6.04457
5.88379
5.73858
5.60877
5.49413
5.39445
5.30957
5.23872
5.18067
5.13374
5.09648
5.06882
1.82399
4.41616
5.56956
6.31989
6.78872
7.0437
7.10564
6.95986
6.59888
5.98932
8.12417
23.6627
66.4051
143.792
176.309
182.383
163.304
153.276
180.589
248.494
349.428
388.066
222.626
157.827
120.785
97.2908
80.8347
68.5406
59.0151
51.4686
45.3884
40.4167
36.2932
32.8263
29.8802
27.3542
25.1754
23.2904
21.6589
20.2495
19.0352
17.9905
17.091
16.314
15.6384
15.045
14.5181
14.046
13.6213
13.2399
12.8999
12.5996
12.3374
12.112
11.9222
11.7656
11.6391
11.5388
11.461
11.4055
2.20819
5.54744
7.00428
7.97425
8.62015
9.02001
9.21874
9.23776
9.1176
8.86558
9.30595
16.0961
34.9403
85.2029
110.371
145.192
176.438
208.037
229.256
311.944
440.637
446.723
237.147
168.51
131.93
108.444
91.5938
78.7822
68.7582
60.7584
54.2549
48.875
44.3545
40.5013
37.1832
34.304
31.794
29.6015
27.6872
26.0197
24.5719
23.3176
22.2308
21.2873
20.464
19.7397
19.0969
18.5223
18.0072
17.5466
17.1372
16.7764
16.461
16.1886
15.9571
15.7641
15.6058
15.4775
15.3754
15.2993
2.55434
6.48952
8.15939
9.28895
10.0799
10.6071
10.9358
11.1181
11.2307
11.3745
12.012
15.7773
26.3123
47.3298
69.5293
99.6568
135.641
190.1
240.711
327.63
438.607
322.636
209.862
153.813
123.375
103.865
89.5964
78.5495
69.8092
62.751
56.9173
51.9956
47.7784
44.1212
40.9237
38.1144
35.6394
33.4581
31.5392
29.8568
28.3882
27.1096
25.9966
25.0261
24.1762
23.4263
22.7593
22.163
21.6293
21.1536
20.7326
20.363
20.0401
19.7603
19.5212
19.3199
19.1527
19.0149
18.9024
18.8165
2.8897
7.38823
9.25016
10.5247
11.4479
12.0953
12.5442
12.8821
13.2202
13.752
15.0178
18.8822
28.1329
44.2232
64.8794
93.3615
129.862
180.35
250.063
344.432
355.447
247.263
174.346
131.607
107.483
92.3454
81.401
72.9629
66.2692
60.7705
56.1034
52.0575
48.5086
45.3736
42.5907
40.1151
37.911
35.951
34.2143
32.6832
31.3407
30.1669
29.1398
28.2392
27.4456
26.7414
26.1119
25.5473
25.0423
24.5937
24.1988
23.854
23.5532
23.2915
23.0664
22.8747
22.713
22.577
22.4631
22.3746
3.22946
8.284
10.347
11.7699
12.8222
13.5917
14.1573
14.6389
15.1962
16.1089
18.0539
22.7142
32.3092
48.963
71.1527
108.06
156.33
195.103
300.07
389.913
290.091
202.624
145.166
110.898
91.5986
79.9651
71.9316
65.911
61.1451
57.1559
53.692
50.6269
47.8909
45.4379
43.2319
41.2463
39.4588
37.8505
36.4135
35.1408
34.0197
33.0335
32.1627
31.3906
30.7023
30.0844
29.5264
29.0233
28.5732
28.1752
27.8274
27.5258
27.2628
27.0323
26.8321
26.6588
26.5081
26.3758
26.2627
26.1759
3.57876
9.20101
11.4886
13.0726
14.2606
15.1556
15.8444
16.463
17.2294
18.5154
21.1128
26.7337
37.4217
55.6534
82.2476
138.607
190.756
242.158
388.756
387.402
252.357
171.329
122.228
94.1392
78.8779
70.1384
64.3508
59.9422
56.4731
53.6149
51.1648
49.0118
47.0907
45.3597
43.7898
42.3633
41.0615
39.8583
38.7715
37.8112
36.9604
36.2008
35.5153
34.8933
34.3266
33.8063
33.3282
32.8935
32.5055
32.165
31.8699
31.6159
31.3919
31.1931
31.0185
30.863
30.7209
30.5812
30.4607
30.3838
3.95602
10.1738
12.7059
14.4703
15.8098
16.8406
17.6618
18.4258
19.3926
21.0366
24.2659
30.9019
43.0814
63.427
96.0936
171.098
223.994
324.872
547.409
346.572
216.771
144.258
103.317
81.281
70.0325
63.9992
59.5995
55.8299
53.0066
50.8696
49.176
47.7644
46.5353
45.4312
44.4243
43.5157
42.7171
42.051
41.4744
40.9186
40.3793
39.8612
39.3572
38.876
38.421
37.9893
37.584
37.2155
36.8916
36.6099
36.3674
36.1585
35.9647
35.7889
35.6348
35.4947
35.3717
35.2489
35.1323
35.0834
4.36844
11.2173
14.0302
16.003
17.517
18.7034
19.6726
20.6014
21.7818
23.7741
27.65
35.4248
49.6352
74.0202
114.848
182.177
269.232
446.586
505.135
289.951
178.928
119.422
87.8326
72.0488
64.8059
60.5052
56.3093
53.0397
50.6749
48.9721
47.7253
46.7588
45.9553
45.2496
44.6144
44.0532
43.5782
43.1711
42.8148
42.503
42.2031
41.888
41.5544
41.2143
40.8791
40.5541
40.2479
39.9721
39.7339
39.531
39.358
39.2056
39.0589
38.9251
38.8148
38.7362
38.7091
38.7085
38.7168
38.7919
4.81619
12.344
15.4813
17.7061
19.4374
20.8124
21.953
23.078
24.5263
26.896
31.4636
40.679
57.8936
88.2726
142.035
226.7
353.436
624.893
389.754
228.432
142.958
98.3655
76.1838
66.2003
61.9456
57.979
53.9641
50.9131
48.7545
47.277
46.2794
45.5917
45.0832
44.673
44.322
44.0218
43.7626
43.5047
43.2469
43.0303
42.8455
42.6576
42.4521
42.2321
42.0069
41.7851
41.5765
41.3917
41.2366
41.1089
41.002
40.9056
40.8111
40.7277
40.6702
40.6525
40.6791
40.7109
40.7942
40.9643
5.29145
13.5624
17.0741
19.6074
21.6197
23.247
24.6035
25.963
27.7684
30.6518
36.0086
47.0692
68.4485
106.932
177.401
298.151
511.32
527.068
296.712
175.896
113.513
82.5139
68.4561
63.2449
60.25
56.039
51.9715
48.8238
46.6464
45.2401
44.3847
43.895
43.6252
43.4743
43.3833
43.3218
43.2605
43.157
43.0131
42.8797
42.7729
42.6731
42.5642
42.442
42.3109
42.1784
42.0543
41.9477
41.8634
41.7994
41.7485
41.7021
41.6566
41.6217
41.6119
41.6378
41.6932
41.7567
41.8758
42.0376
5.78206
14.8776
18.8107
21.7274
24.1072
26.0811
27.7404
29.3957
31.6627
35.3262
41.7269
54.929
81.8508
131.02
218.348
412.784
785.877
408.05
224.521
135.398
91.8785
71.8454
64.0902
62.0545
58.7799
54.3068
50.0428
46.6606
44.2997
42.8153
41.9876
41.6128
41.5242
41.5978
41.7486
41.9209
42.0681
42.1479
42.1595
42.1452
42.1337
42.1232
42.1039
42.0703
42.0241
41.9717
41.9222
41.8837
41.8606
41.8508
41.848
41.8458
41.8438
41.8507
41.8779
41.9313
42.0024
42.083
42.197
42.3159
6.28548
16.2785
20.6866
24.0828
26.9454
29.4011
31.4908
33.5337
36.3692
41.1812
49.0994
64.6678
98.6336
158.854
256.779
499.136
573.497
298.156
167.693
105.881
77.2081
65.4251
62.3032
60.8012
57.1648
52.5533
48.0991
44.4594
41.8436
40.1764
39.267
38.9099
38.9236
39.1619
39.5141
39.899
40.2538
40.5329
40.728
40.8681
40.9819
41.0791
41.158
41.2162
41.2553
41.2816
41.3038
41.3299
41.3637
41.4035
41.4445
41.4823
41.518
41.5583
41.6113
41.6787
41.7539
41.8327
41.9224
42.0008
6.75629
17.752
22.7266
26.7049
30.196
33.3002
35.9992
38.5608
42.0275
48.3319
58.4811
76.3367
118.32
177.589
286.651
547.984
388.794
212.482
126.583
85.7809
68.0096
62.1659
61.6287
59.3408
55.3636
50.6371
46.054
42.2117
39.3561
37.4736
36.4168
35.9971
36.0314
36.3602
36.8527
37.4069
37.9449
38.4142
38.7969
39.107
39.3667
39.5891
39.7785
39.9361
40.0658
40.1744
40.2708
40.3627
40.4534
40.5421
40.6251
40.6999
40.7678
40.8339
40.9027
40.9747
41.0452
41.1119
41.1763
41.2277
7.20753
19.3109
24.9769
29.6376
33.919
37.8872
41.4454
44.7126
48.8067
56.6442
70.2263
89.3822
135.75
191.027
298.92
516.884
271.08
156.063
99.3437
72.8791
62.7895
61.2036
60.6525
57.6374
53.3366
48.5093
43.8554
39.8867
36.8519
34.778
33.5591
33.0329
33.0264
33.3772
33.9444
34.612
35.2909
35.9204
36.4723
36.9464
37.3555
37.7105
38.0178
38.2816
38.5073
38.7027
38.8767
39.0363
39.1853
39.323
39.4473
39.5567
39.6526
39.7384
39.8171
39.8889
39.9518
40.0057
40.0533
40.0922
7.77069
21.032
27.4733
32.9622
38.2087
43.3143
48.0533
52.3089
57.0464
65.5743
83.9413
104.99
142.818
207.826
320.605
336.552
197.055
120.432
81.699
64.9829
60.3588
61.0107
59.3126
55.6897
51.098
46.1799
41.4948
37.4666
34.3226
32.1087
30.7495
30.1081
30.0274
30.351
30.9364
31.6622
32.4329
33.1811
33.8693
34.4855
35.0316
35.514
35.9382
36.3089
36.6325
36.9168
37.17
37.3987
37.6062
37.7928
37.9571
38.0989
38.2194
38.3214
38.4074
38.4788
38.5367
38.5842
38.6267
38.6653
8.41074
23.0092
30.3151
36.8255
43.252
49.7957
56.1234
61.7872
67.3608
76.0724
95.3243
126.255
160.032
237.32
418.367
262.283
153.544
97.0434
70.1781
60.5069
59.9258
60.2763
57.6511
53.5102
48.6644
43.671
38.9853
34.9511
31.7619
29.4657
28.005
27.2635
27.1
27.3688
27.9325
28.671
29.4874
30.3107
31.0966
31.8232
32.4837
33.0781
33.609
34.0803
34.4976
34.8678
35.1982
35.494
35.7584
35.9919
36.1945
36.3664
36.5094
36.6264
36.7207
36.7955
36.8552
36.9059
36.9548
37.0025
9.07497
25.3358
33.7122
41.4422
49.386
57.7074
66.1119
73.7908
80.6514
89.3724
107.651
141.45
181.518
275.708
360.622
205.844
122.67
80.622
62.7488
58.4128
60.0978
59.1378
55.7126
51.1103
46.0477
41.0037
36.3475
32.3513
29.1715
26.8468
25.3282
24.5135
24.2752
24.4795
24.9982
25.7168
26.5413
27.4005
28.2459
29.0489
29.7954
30.4795
31.1001
31.659
32.1598
32.6078
33.0084
33.3659
33.6826
33.9597
34.1977
34.3978
34.5626
34.6958
34.8019
34.8866
34.9567
35.0206
35.0855
35.1493
9.97284
28.1219
37.8719
47.1587
57.1729
67.8054
78.8727
89.3336
98.3224
107.689
124.298
152.242
208.019
321.39
282.859
162.96
99.4079
68.9062
58.2485
58.0382
59.7618
57.5984
53.4736
48.4829
43.2557
38.1977
33.6045
29.6864
26.5616
24.2553
22.7199
21.8619
21.5654
21.7078
22.1711
22.8496
23.6548
24.5177
25.3888
26.2355
27.0384
27.7869
28.4761
29.1046
29.6739
30.1871
30.6474
31.0579
31.4204
31.736
32.0062
32.2331
32.4201
32.5721
32.6952
32.797
32.8863
32.9721
33.0608
33.1457
10.8361
31.4562
42.9608
54.2662
67.3698
81.3684
95.8711
110.289
122.468
133.53
151.132
185.578
251.804
390.848
227.566
131.32
81.7854
60.8002
55.9062
58.7237
58.7539
55.5918
50.9069
45.6263
40.3021
35.2772
30.7843
26.981
23.9501
21.701
20.1843
19.3119
18.9765
19.0657
19.4722
20.0998
20.8671
21.7095
22.5785
23.44
24.2713
25.0584
25.7929
26.4708
27.0908
27.6537
28.1609
28.6139
29.0141
29.3627
29.6618
29.9144
30.1248
30.2991
30.4449
30.5709
30.6868
30.8015
30.9195
31.0287
10.9504
35.2753
49.2187
62.68
79.2604
92.7484
109.413
127.56
146.449
167.382
192.26
239.965
355.226
357.242
186.868
105.467
68.324
55.502
55.1601
58.6093
57.2353
53.2106
48.0546
42.5685
37.2153
32.2731
27.9189
24.2637
21.359
19.1988
17.7299
16.8676
16.5116
16.5588
16.9118
17.4839
18.2018
19.0062
19.8515
20.7036
21.5385
22.34
23.0973
23.8038
24.4559
25.0523
25.5925
26.077
26.5066
26.8827
27.2077
27.4853
27.7208
27.921
28.0943
28.2503
28.3986
28.5473
28.6981
28.8335
12.207
38.4793
57.2499
70.61
81.8019
94.97
111.605
131.708
157.844
192.902
238.79
313.962
484.467
276.248
143.959
83.1741
58.3841
52.3724
55.6914
57.7967
55.2226
50.4863
44.9635
39.3543
34.0373
29.2259
25.0459
21.5677
18.8152
16.7682
15.3696
14.537
14.176
14.192
14.4966
15.0124
15.6741
16.4285
17.2336
18.057
18.8748
19.6695
20.4289
21.1446
21.8112
22.4253
22.9855
23.4911
23.9424
24.3408
24.6891
24.9914
25.2534
25.4826
25.6875
25.8777
26.0623
26.2479
26.4333
26.5953
16.7503
41.6022
62.746
72.5873
80.8481
93.0959
109.536
130.272
158.076
198.467
259.797
357.636
370.331
191.59
105.111
65.7365
51.5986
50.9254
56.2211
56.2627
52.6483
47.4065
41.6638
36.0288
30.8141
26.1788
22.2042
18.9263
16.3456
14.4296
13.1176
12.329
11.9752
11.9688
12.2303
12.6909
13.2929
13.9894
14.7425
15.5226
16.3066
17.0772
17.8212
18.5292
19.1947
19.813
20.3816
20.899
21.3652
21.7817
22.1511
22.4777
22.7674
23.0276
23.2667
23.4935
23.7164
23.9401
24.1603
24.348
18.9814
45.4047
60.1444
70.6885
79.0135
90.961
107.042
127.466
153.81
189.129
239.856
303.232
216.431
127.001
76.6924
53.5673
47.3867
50.8951
55.6962
54.138
49.6691
44.0506
38.2116
32.6443
27.5951
23.1765
19.433
16.3728
13.9775
12.2043
10.9894
10.2547
9.91652
9.89465
10.1176
10.5246
11.0655
11.6992
12.3925
13.1187
13.8566
14.5893
15.3042
15.9911
16.6427
17.2539
17.8213
18.3431
18.8187
19.2496
19.6381
19.9885
20.3063
20.5985
20.8727
21.1372
21.3986
21.6598
21.9134
22.1247
18.3026
46.1973
56.6988
66.8469
76.4718
88.976
104.892
124.848
148.985
176.196
208.762
207.418
137.53
87.4347
57.8846
45.6178
45.2193
51.974
54.2748
51.4397
46.3467
40.5038
34.6784
29.2591
24.4292
20.2605
16.768
13.9374
11.7355
10.1117
9.00028
8.32521
8.00807
7.97541
8.16338
8.51882
8.99837
9.56682
10.1954
10.8608
11.5439
12.2293
12.9047
13.5602
14.1884
14.7839
15.3427
15.8629
16.3435
16.7856
17.1914
17.5645
17.91
18.2339
18.543
18.8442
19.1427
19.4393
19.7233
19.9549
16.4408
44.3199
54.0626
63.1928
73.3646
85.9982
102.674
122.674
144.28
165.234
178.617
140.597
94.9752
63.0057
45.5924
40.81
44.8184
52.2302
52.2067
48.2977
42.7742
36.8502
31.1365
25.9312
21.363
17.4688
14.2401
11.6457
9.64095
8.16971
7.16474
6.55251
6.25957
6.21913
6.37473
6.6804
7.09925
7.60159
8.16305
8.76362
9.38666
10.0183
10.6473
11.2643
11.8622
12.4355
12.9803
13.4941
13.9761
14.4266
14.8474
15.2416
15.6133
15.9676
16.3099
16.6456
16.9782
17.3065
17.6164
17.8642
14.4038
40.9486
51.1626
59.9014
69.8527
82.6135
100.231
120.114
138.978
153.171
144.118
100.786
67.9057
46.8284
37.8076
38.516
46.0571
51.1917
49.4629
44.8087
39.0529
33.1724
27.6508
22.7109
18.435
14.8316
11.8738
9.51811
7.71157
6.39392
5.49675
4.94939
4.68261
4.6363
4.76122
5.01867
5.37764
5.81401
6.30733
6.84112
7.40103
7.97512
8.55328
9.12715
9.68994
10.2364
10.7628
11.2665
11.7464
12.2024
12.6357
13.0486
13.4442
13.8263
14.1989
14.5656
14.9281
15.2828
15.6131
15.872
12.0459
37.313
47.8855
56.7641
66.5541
79.3205
96.5784
115.342
130.817
136.991
106.813
72.7895
48.9839
36.1481
33.5088
38.3349
47.4713
49.4685
46.3448
41.1304
35.282
29.5424
24.2755
19.638
15.6746
12.3712
9.68686
7.56998
5.96234
4.80016
4.01196
3.52946
3.29008
3.24004
3.33656
3.547
3.84674
4.21673
4.64098
5.10694
5.60178
6.11594
6.64037
7.16767
7.69181
8.20786
8.71217
9.20226
9.67657
10.1348
10.5774
11.0058
11.422
11.8284
12.2274
12.6206
13.0076
13.3824
13.7263
13.9908
10.4818
33.7391
44.6256
53.8628
63.9249
76.4965
92.2619
108.93
119.715
112.114
77.7539
51.9029
35.7717
29.7931
31.9634
39.9542
47.461
46.9286
42.8566
37.3378
31.5333
26.0147
21.0499
16.7412
13.1024
10.1028
7.69143
5.81925
4.4134
3.40328
2.72213
2.30626
2.09758
2.04726
2.11818
2.28379
2.52534
2.82882
3.1829
3.57779
4.00464
4.45558
4.9234
5.40102
5.88318
6.36517
6.84369
7.31625
7.78116
8.23764
8.68557
9.12546
9.5581
9.98446
10.4051
10.8195
11.2247
11.6125
11.9625
12.2266
10.5472
30.8726
41.6811
51.3331
61.9125
74.3995
88.7757
102.765
106.395
82.5025
55.3073
36.5478
27.3348
26.8622
32.519
42.5775
46.217
43.921
39.1434
33.5075
27.8608
22.6291
18.0014
14.0386
10.731
8.03587
5.91201
4.2823
3.07183
2.21374
1.64464
1.30325
1.13293
1.08777
1.13564
1.25665
1.43864
1.67344
1.95436
2.27532
2.63022
3.01317
3.4184
3.84065
4.27536
4.71854
5.1666
5.61693
6.06758
6.51746
6.9658
7.41215
7.85618
8.29724
8.73397
9.16342
9.58006
9.97315
10.3213
10.5787
10.8934
29.1028
39.443
49.2479
60.2775
73.2287
86.7134
96.242
87.2344
59.1128
38.2328
26.073
22.9014
26.4568
34.6567
43.6824
44.1798
40.5763
35.346
29.7236
24.3142
19.4147
15.1487
11.5415
8.56724
6.19633
4.35434
2.9609
1.94715
1.25059
0.809646
0.560805
0.443573
0.411697
0.438468
0.512251
0.629174
0.788122
0.98805
1.22702
1.50206
1.80938
2.14482
2.50414
2.88343
3.27923
3.68857
4.10911
4.53882
4.97587
5.41845
5.8651
6.31428
6.76373
7.21001
7.64775
8.06847
8.45874
8.79623
9.03982
10.0264
27.5724
37.5962
47.462
58.7237
72.4256
85.6049
88.1402
63.1184
40.514
25.8081
19.9898
21.4971
27.8336
37.9963
43.0685
41.2877
36.8784
31.4986
26.033
20.9288
16.3943
12.5036
9.2561
6.63618
4.58542
3.01773
1.86182
1.05681
0.545504
0.26393
0.135265
0.0869439
0.0752214
0.0835859
0.109558
0.156702
0.230722
0.337107
0.479659
0.659859
0.877008
1.12889
1.41244
1.72446
2.06183
2.42187
2.80206
3.20025
3.61428
4.04202
4.48062
4.92736
5.37736
5.82537
6.26339
6.68003
7.0587
7.37565
7.59573
8.89248
25.6689
35.6133
45.7438
57.0155
70.9623
81.8081
68.1477
43.0615
26.1495
17.9492
17.5256
22.1642
30.4826
40.2511
41.111
37.905
33.0448
27.6963
22.4848
17.7335
13.5848
10.0767
7.20397
4.94222
3.20137
1.90714
0.999992
0.42996
0.140293
0.0380556
0.0136463
0.00854176
0.00756169
0.00803441
0.0100192
0.0149365
0.0260287
0.049077
0.0922
0.164079
0.271516
0.418082
0.604368
0.828984
1.08963
1.38368
1.70859
2.06171
2.44022
2.84086
3.25973
3.6921
4.13199
4.57142
5.00005
5.40283
5.75961
6.04312
6.22212
7.61577
23.396
33.2809
44.0613
55.9162
68.294
70.4439
44.9647
26.4942
16.4739
14.3689
17.5714
24.2214
34.1029
39.6803
38.3657
34.3096
29.2408
24.0283
19.1241
14.7519
10.9989
7.87866
5.39991
3.48235
2.04728
1.03477
0.400823
0.0982973
0.0166478
0.00619241
0.00511275
0.00491097
0.00483405
0.0047972
0.00479631
0.00485923
0.00508598
0.00581008
0.00807975
0.0147755
0.0321535
0.0701994
0.140157
0.250752
0.406401
0.607802
0.853389
1.14026
1.46461
1.82175
2.20593
2.61031
3.02657
3.44432
3.85017
4.226
4.54704
4.77829
4.87599
6.36555
20.8282
30.584
42.062
55.6121
65.3556
45.8251
26.3833
15.2259
11.8606
13.8849
19.1637
27.2829
36.688
37.9343
35.1577
30.6117
25.5206
20.5319
15.9753
11.9985
8.64484
5.94043
3.84011
2.25898
1.13408
0.424027
0.0905224
0.0122574
0.00551381
0.00502175
0.00490497
0.00483158
0.00477349
0.00472632
0.00468905
0.00466184
0.00464675
0.00464988
0.00468584
0.00480208
0.00519362
0.00663833
0.0118587
0.0281247
0.0687547
0.149483
0.281807
0.469759
0.711205
1.00026
1.32873
1.68684
2.06326
2.44438
2.81328
3.14764
3.41626
3.57126
3.52482
5.4092
18.2743
28.2275
40.9582
53.147
46.4287
25.7341
13.9884
9.85818
10.9832
15.1374
21.7577
31.1532
36.4829
35.3841
31.6517
26.87
21.9033
17.2187
13.048
9.48183
6.55031
4.26061
2.52715
1.28248
0.48413
0.100644
0.0119728
0.00551561
0.00510866
0.00498829
0.00489887
0.00482242
0.00475852
0.00470569
0.00466328
0.00463139
0.00461001
0.00459853
0.00459625
0.00460426
0.00462711
0.0046765
0.00479262
0.00516578
0.00672377
0.0134468
0.0373989
0.100108
0.221133
0.40624
0.648699
0.935762
1.25195
1.57954
1.89727
2.17778
2.38259
2.45098
2.26678
6.02475
17.5976
28.6234
46.0897
43.5642
23.7259
12.4556
8.18014
8.73519
12.013
17.3591
25.1325
33.9493
34.929
32.2432
27.9471
23.1371
18.4141
14.1018
10.3517
7.21286
4.73133
2.84129
1.4708
0.574315
0.124704
0.0136627
0.00570357
0.0052594
0.0051188
0.00500721
0.00491127
0.00482812
0.00475716
0.00469796
0.00464959
0.00461144
0.00458282
0.00456332
0.00455352
0.00455473
0.0045676
0.00459156
0.00462716
0.00468173
0.00477632
0.00498572
0.00572421
0.00943275
0.026882
0.0832604
0.201999
0.384042
0.613415
0.867807
1.12114
1.3413
1.48477
1.48595
1.23444
9.75101
21.427
36.3067
42.3072
21.377
10.6245
6.69117
6.98861
9.64973
13.9827
20.2845
29.2205
33.6782
32.315
28.6738
24.1403
19.474
15.0914
11.2048
7.90046
5.23262
3.18869
1.69139
0.690982
0.162791
0.017416
0.00603351
0.00547648
0.00530841
0.00517168
0.00505102
0.00494391
0.00485142
0.00477137
0.00470342
0.0046467
0.00460042
0.00456399
0.00453724
0.00452054
0.00451426
0.0045183
0.00453268
0.00455895
0.00460078
0.00466267
0.00475085
0.00488229
0.00511353
0.00573233
0.00867941
0.024047
0.0768301
0.185406
0.339817
0.512681
0.669082
0.765704
0.745046
0.531417
17.6452
36.6544
34.2303
16.0313
7.81642
5.22652
5.65113
7.85846
11.4825
16.5891
23.866
31.3394
31.7529
29.0133
24.8831
20.3493
15.9563
11.9865
8.56187
5.7363
3.54979
1.93255
0.830266
0.216478
0.0242484
0.00651575
0.00575262
0.00556277
0.00540448
0.00525873
0.0051259
0.00500651
0.0049011
0.00480892
0.00472929
0.00466158
0.00460511
0.00455923
0.00452351
0.00449789
0.00448243
0.00447716
0.00448236
0.00449917
0.00452979
0.00457713
0.0046459
0.00474483
0.00488557
0.00508526
0.005395
0.00602984
0.00834548
0.01925
0.0546933
0.121125
0.19905
0.252956
0.242877
0.140543
8.38944
13.1087
7.07912
4.61609
4.07182
4.7584
6.5604
9.57916
13.9567
19.7856
27.7842
30.4519
28.9835
25.398
21.0547
16.6822
12.6579
9.15444
6.21572
3.90421
2.17802
0.981778
0.285871
0.0362109
0.00717179
0.00600998
0.00582963
0.00567806
0.00552586
0.00537699
0.00523591
0.00510552
0.00498659
0.00488046
0.00478662
0.00470503
0.00463522
0.00457663
0.00452883
0.00449168
0.00446514
0.00444904
0.00444341
0.00444896
0.00446731
0.00450061
0.00455209
0.00462734
0.00473376
0.0048812
0.00508551
0.00536596
0.0057608
0.00637004
0.00754765
0.0105144
0.0167645
0.023237
0.0213597
0.0110439
0.00449455
0.00540609
0.00650525
0.00793692
0.00985751
0.0124906
0.0161433
0.021215
0.0282218
0.037821
0.0508685
0.0685839
0.0929353
0.127429
0.178508
0.257457
0.383597
0.596039
0.97931
1.74411
0.00444379
0.00523822
0.0061985
0.00746653
0.00919966
0.0116303
0.0150876
0.0200186
0.02703
0.0369356
0.0508381
0.0703243
0.0979249
0.13813
0.19947
0.298241
0.465178
0.761155
1.30008
2.38204
0.00439346
0.00506885
0.00588737
0.00698223
0.00850405
0.0106819
0.0138488
0.0184727
0.0252159
0.0350088
0.0491596
0.0695776
0.0992648
0.143412
0.211741
0.322842
0.510458
0.830783
1.36804
1.98641
0.00434537
0.00490465
0.0055848
0.00650613
0.00780678
0.0097018
0.0125095
0.0166879
0.022906
0.0321389
0.0458043
0.0660033
0.0959965
0.141206
0.211306
0.323953
0.509183
0.80983
1.2585
1.79853
0.00430101
0.00475127
0.00530187
0.00605766
0.0071407
0.0087447
0.0111585
0.0148022
0.0203015
0.0285915
0.0410674
0.0598292
0.08811
0.131086
0.19745
0.302073
0.468616
0.726582
1.09293
1.55829
0.00426147
0.00461285
0.0050466
0.00565116
0.00653143
0.00785633
0.00987632
0.0129549
0.0176362
0.0247426
0.035519
0.0518604
0.076678
0.114508
0.172556
0.262316
0.40091
0.608643
0.898675
1.26154
0.00422742
0.00449201
0.00482368
0.00529513
0.00599521
0.00706852
0.00872469
0.0112622
0.0151244
0.0209797
0.0298398
0.043245
0.0635538
0.0943769
0.141222
0.212363
0.319481
0.476296
0.692591
0.96398
0.0041992
0.00438988
0.00463475
0.00499242
0.00553895
0.00639825
0.00774112
0.0098013
0.0129197
0.0176045
0.0246152
0.03509
0.050741
0.0741349
0.109067
0.161
0.237336
0.346739
0.49619
0.68579
0.00417697
0.00430635
0.00447842
0.00474118
0.00516252
0.00584975
0.00694009
0.00860862
0.0111013
0.0147829
0.0201955
0.0281302
0.0397236
0.0565945
0.0810219
0.116142
0.166063
0.235599
0.329049
0.447873
0.00416087
0.00424
0.00435037
0.00453591
0.00486022
0.00541998
0.00632599
0.00769278
0.00967418
0.0125196
0.0166151
0.0225089
0.0309278
0.0428008
0.0592916
0.0818596
0.11235
0.152976
0.206025
0.273328
0.00415191
0.00418751
0.00424327
0.0043686
0.00462027
0.00508111
0.00581765
0.00685983
0.00826226
0.0101801
0.0129031
0.0168632
0.0226541
0.0310765
0.0432141
0.0606596
0.0859229
0.123148
0.179863
0.272005
0.00417469
0.00415458
0.00419519
0.00437438
0.00487057
0.00628278
0.00983965
0.0168239
0.0278919
0.0432988
0.0634436
0.089107
0.121883
0.165215
0.2241
0.303088
0.408855
0.549159
0.727997
0.962825
0.0629349
0.0149266
0.0476404
0.0985413
0.154223
0.206367
0.253025
0.295404
0.336573
0.380527
0.430128
0.488516
0.560462
0.660211
0.792988
0.958713
1.15477
1.37661
1.63514
2.02549
1.65839
0.87968
0.808423
0.753774
0.728464
0.724234
0.733106
0.756252
0.797397
0.854462
0.918741
0.985165
1.07057
1.26215
1.50649
1.79475
2.11482
2.41276
2.72533
3.286
0.824722
0.893287
0.908168
0.967381
1.01711
1.05023
1.08116
1.12237
1.1758
1.23457
1.2888
1.32129
1.39818
1.55002
1.69469
1.87542
2.09505
2.30535
2.54431
2.88805
0.465614
0.4781
0.510372
0.594842
0.678939
0.749837
0.811247
0.867267
0.918818
0.96777
1.01756
1.07867
1.17843
1.28237
1.35181
1.40695
1.46274
1.52305
1.62224
1.77526
0.281024
0.277573
0.289115
0.343167
0.408409
0.470676
0.526803
0.576864
0.621945
0.664471
0.708474
0.761283
0.828601
0.891824
0.930041
0.94528
0.947616
0.947979
0.962157
0.994677
0.150002
0.140627
0.144818
0.180705
0.225193
0.271112
0.314239
0.353905
0.390499
0.425149
0.459634
0.4959
0.532952
0.562811
0.577203
0.575336
0.561774
0.543006
0.525625
0.511378
0.0695836
0.0501434
0.0528682
0.0748911
0.102388
0.132137
0.161911
0.190116
0.216465
0.240961
0.263695
0.284374
0.301392
0.31154
0.312094
0.30289
0.286025
0.264569
0.241298
0.217234
0.029788
0.0120609
0.0126999
0.0205453
0.032127
0.0463359
0.0620355
0.0779279
0.0930545
0.106842
0.118703
0.12791
0.133461
0.134254
0.129689
0.120144
0.106856
0.0914609
0.0754732
0.0599167
0.0141944
0.00573298
0.00488603
0.00574139
0.00768222
0.0108191
0.0150527
0.0200228
0.0251364
0.0298669
0.0336869
0.0361088
0.0367401
0.035392
0.0322099
0.0277049
0.0226246
0.0177231
0.0135501
0.0103577
0.0120897
0.00557443
0.00429006
0.00416301
0.00425943
0.0045044
0.00489289
0.00541366
0.00601125
0.00659528
0.00705712
0.00730339
0.00728905
0.00703649
0.00662884
0.00617557
0.00576875
0.00545628
0.00524295
0.00510861
0.0153336
0.00538145
0.00424876
0.0040721
0.0040457
0.0040561
0.00407986
0.00411384
0.00415687
0.00420657
0.00425956
0.00431301
0.00436556
0.00441699
0.00446691
0.00451391
0.00455567
0.0045899
0.00461513
0.00463076
0.0104288
0.00476675
0.00418591
0.0040968
0.00408286
0.0040817
0.00408328
0.00408694
0.00409379
0.00410521
0.00412239
0.00414604
0.00417595
0.00421055
0.004247
0.00428182
0.00431188
0.0043354
0.00435219
0.00436308
1.03216
1.80055
2.30769
2.83698
3.33454
3.73139
3.97254
4.08088
4.07323
3.99697
3.93121
3.83871
3.74096
3.66573
3.65523
2.23446
5.62359
7.27254
8.45742
9.50807
10.0173
10.1077
9.89008
9.44933
8.85993
8.18303
7.47232
6.76314
6.06752
5.36849
2.95049
3.35331
4.80502
6.6373
8.07964
8.48468
8.10703
7.41257
6.62239
5.84097
5.11968
4.48359
3.94523
3.51559
3.21647
2.552
3.05907
3.26057
3.39695
3.42206
3.3763
3.31862
3.21162
3.06447
2.90029
2.74071
2.60717
2.52592
2.53293
2.6781
2.05768
2.55546
2.87819
3.0202
3.03996
2.99086
2.90641
2.80188
2.68477
2.56657
2.46928
2.42748
2.48888
2.71215
3.1625
1.66491
2.05854
2.37315
2.58371
2.69568
2.72234
2.68419
2.60144
2.50141
2.42169
2.41265
2.53594
2.8582
3.44259
4.34581
1.28212
1.60648
1.88218
2.08847
2.21483
2.2682
2.26656
2.23977
2.23655
2.32195
2.56935
3.05076
3.82802
4.94242
6.41994
0.916778
1.16635
1.39172
1.56823
1.68477
1.76203
1.83324
1.95439
2.19676
2.63555
3.33797
4.35466
5.71449
7.4328
9.539
0.596338