/*--------------------------------*- C++ -*----------------------------------*\
| =========                 |                                                 |
| \\      /  F ield         | OpenFOAM: The Open Source CFD Toolbox           |
|  \\    /   O peration     | Version:  v1912                                 |
|   \\  /    A nd           | Website:  www.openfoam.com                      |
|    \\/     M anipulation  |                                                 |
\*---------------------------------------------------------------------------*/
FoamFile
{
    version     2.0;
    format      ascii;
    class       volScalarField;
    location    "26";
    object      nut;
}
// * * * * * * * * * * * * * * * * * * * * * * * * * * * * * * * * * * * * * //

dimensions      [0 2 -1 0 0 0 0];


internalField   nonuniform List<scalar> 
20320
(
0.0347185
0.00759862
0.00766715
0.00773378
0.00779807
0.00785963
0.00791797
0.00797246
0.00802241
0.00806697
0.00810524
0.00813616
0.00815848
0.00817063
0.00817059
0.00815532
0.00812062
0.00810358
0.00874196
0.0116218
0.0352307
0.0352733
0.0354464
0.0356811
0.0359583
0.0362446
0.036504
0.0367119
0.0368654
0.0369755
0.0370566
0.037122
0.0371762
0.0372137
0.0372116
0.037115
0.0366997
0.0353913
0.0340075
0.0270117
0.0353537
0.035637
0.0361386
0.0368862
0.0379768
0.0395111
0.0415764
0.0442192
0.0474164
0.0510454
0.0548763
0.0585994
0.0618793
0.0644126
0.0659537
0.0662191
0.0644269
0.0591383
0.0531566
0.0375191
0.0355261
0.0361113
0.0369238
0.0379668
0.0393361
0.0411449
0.0435245
0.0466169
0.0505604
0.05545
0.0612681
0.067804
0.0745975
0.0809576
0.0860346
0.0887084
0.086927
0.0784789
0.0686732
0.0451997
0.0357339
0.0367054
0.0379065
0.0393133
0.0410113
0.0431073
0.0457334
0.0490456
0.0532255
0.0584697
0.064951
0.0727288
0.0815946
0.0909026
0.0994272
0.10504
0.10404
0.0936455
0.0812978
0.0510407
0.035968
0.0373984
0.0390572
0.0408961
0.0429871
0.0454269
0.0483427
0.0518897
0.0562566
0.0616692
0.0683843
0.0766425
0.086521
0.0976521
0.108773
0.116959
0.116938
0.105613
0.0917609
0.0556802
0.0362178
0.0381591
0.0403248
0.0426469
0.0451824
0.0480159
0.0512678
0.0550892
0.0596676
0.0652352
0.0720808
0.0805395
0.0908909
0.103058
0.115919
0.12603
0.126889
0.115338
0.100672
0.0595399
0.0364722
0.0389541
0.0416559
0.0444959
0.0475159
0.0507873
0.0544218
0.0585642
0.0633969
0.069151
0.0761259
0.0847045
0.0952921
0.108038
0.122001
0.13343
0.134964
0.123598
0.108502
0.0628856
0.0367196
0.0397483
0.0429935
0.0463685
0.0499007
0.0536481
0.0577124
0.0622295
0.0673736
0.0733687
0.0805155
0.0892204
0.0999643
0.113055
0.127707
0.139997
0.142007
0.131001
0.115611
0.0659175
0.0369485
0.0405058
0.0442793
0.0481873
0.052246
0.0565011
0.0610431
0.0659968
0.0715242
0.0778369
0.0852292
0.0941171
0.105027
0.118372
0.133487
0.146349
0.148691
0.13805
0.122306
0.0687884
0.0371484
0.0411919
0.0454562
0.0498757
0.0544604
0.0592463
0.0643135
0.0697734
0.0757718
0.0825023
0.0902448
0.0994143
0.110562
0.124173
0.139669
0.152971
0.155577
0.145186
0.128878
0.0716307
0.03731
0.041775
0.0464711
0.051361
0.0564549
0.0617839
0.0674202
0.0734615
0.0800339
0.0873072
0.0955391
0.105133
0.116651
0.130624
0.146542
0.160301
0.16319
0.152857
0.135641
0.0745803
0.0374261
0.0422286
0.047279
0.0525789
0.0581472
0.0640176
0.070259
0.0769579
0.0842195
0.0921857
0.101083
0.111294
0.123379
0.137901
0.154408
0.16879
0.172101
0.161601
0.142994
0.077819
0.037492
0.0425334
0.0478448
0.0534767
0.0594655
0.0658569
0.0727251
0.0801512
0.0882227
0.0970524
0.106831
0.117908
0.130835
0.146197
0.163603
0.178963
0.183011
0.172152
0.151506
0.0816183
0.0375058
0.0426777
0.048146
0.0540166
0.0603523
0.0672218
0.0747161
0.0829215
0.0919173
0.101792
0.1127
0.124955
0.139091
0.155717
0.174519
0.191462
0.196859
0.18562
0.162091
0.0864253
0.0374684
0.0426591
0.0481744
0.0541788
0.0607692
0.0680478
0.0761364
0.0851426
0.0951538
0.106249
0.118555
0.132353
0.148165
0.166637
0.187578
0.207082
0.214953
0.203782
0.176363
0.0930268
0.0373834
0.0424835
0.047936
0.0539631
0.0606997
0.0682914
0.0769045
0.0866875
0.0977599
0.110217
0.124181
0.139918
0.15796
0.179031
0.203156
0.226718
0.239059
0.22952
0.197389
0.103055
0.0372573
0.0421654
0.0474513
0.053389
0.0601528
0.0679365
0.0769624
0.0874398
0.0995492
0.113438
0.129262
0.147314
0.168175
0.192728
0.221379
0.251127
0.27125
0.26726
0.231266
0.120348
0.0370982
0.0417269
0.0467534
0.0524953
0.0591633
0.0669995
0.0762873
0.0873117
0.100343
0.115622
0.133391
0.154023
0.17822
0.20713
0.241787
0.280371
0.313094
0.322447
0.289352
0.155358
0.0369157
0.0411951
0.0458857
0.051337
0.0577907
0.0655316
0.0749011
0.0862647
0.100002
0.116485
0.136098
0.15936
0.187167
0.221044
0.262912
0.312835
0.363596
0.397442
0.384518
0.231353
0.0561443
0.0378903
0.0423933
0.0451268
0.0465807
0.0471433
0.0467706
0.0454321
0.0427598
0.0414071
0.0737766
0.118986
0.159366
0.189137
0.19929
0.202457
0.201267
0.207818
0.232636
0.270598
0.307547
0.310914
0.287698
0.240048
0.20952
0.187846
0.171118
0.157457
0.14597
0.136193
0.127795
0.120541
0.114235
0.108741
0.103892
0.0995688
0.0956891
0.0922102
0.0890863
0.0862919
0.0838139
0.0816194
0.0796796
0.0779714
0.0764528
0.0750924
0.0738601
0.0727315
0.0716916
0.0707337
0.0698542
0.0690621
0.0683517
0.0677245
0.0671889
0.0667365
0.0663639
0.0660616
0.0658206
0.0656406
0.0682938
0.695696
0.858069
0.920822
0.942694
0.939122
0.911678
0.844293
0.718051
0.490485
0.245327
0.472662
1.06418
1.73263
2.14613
2.49984
2.76956
2.89732
3.04853
3.50565
4.06835
4.15135
3.41898
2.93078
2.55142
2.27117
2.05154
1.87158
1.7218
1.59691
1.49264
1.40509
1.33059
1.26581
1.20885
1.15841
1.11378
1.07459
1.04068
1.01201
0.98847
0.969703
0.955138
0.944155
0.936056
0.930091
0.925629
0.922295
0.919985
0.91882
0.919014
0.920678
0.923829
0.928537
0.934905
0.942949
0.952573
0.963461
0.975237
0.988196
0.0754921
1.04797
1.47085
1.63585
1.69752
1.70094
1.6581
1.55839
1.3841
1.08803
0.59663
0.552563
1.00519
1.54616
2.01619
2.4935
3.22442
4.14917
4.49018
4.99841
5.51227
5.32113
4.35162
3.93465
3.59053
3.30414
3.06041
2.84988
2.66854
2.51322
2.38023
2.26575
2.16617
2.07809
1.99959
1.92948
1.86723
1.81279
1.76631
1.72802
1.69798
1.67586
1.66087
1.65209
1.64842
1.64867
1.65179
1.6571
1.66438
1.67374
1.68546
1.69972
1.71651
1.7359
1.75808
1.78312
1.81084
1.84079
1.87256
1.90631
0.0815712
1.23934
1.84897
2.11265
2.22087
2.24369
2.20549
2.10521
1.9335
1.66809
1.23657
0.953602
1.35311
1.80269
2.29673
2.75964
3.41435
4.40002
5.18121
5.80863
6.2213
5.26914
4.5116
4.11146
3.8597
3.66315
3.48694
3.32505
3.17891
3.04829
2.9314
2.82634
2.73143
2.64491
2.5661
2.49483
2.43135
2.37621
2.33009
2.29359
2.26702
2.25007
2.24181
2.24109
2.24656
2.25678
2.27045
2.28677
2.30552
2.32685
2.35107
2.37836
2.40858
2.44172
2.47801
2.51756
2.56025
2.60561
2.65314
2.7027
0.0871434
1.38145
2.10328
2.43911
2.58701
2.63203
2.60853
2.52401
2.37503
2.16198
1.87748
1.66277
1.95632
2.51031
3.0041
3.47992
4.01808
4.68327
5.4736
6.00463
5.93778
5.01042
4.33056
3.95105
3.77895
3.69108
3.61681
3.54
3.46152
3.38267
3.30452
3.22861
3.15612
3.08745
3.02322
2.96456
2.91252
2.86822
2.83287
2.80736
2.79215
2.78691
2.79045
2.80142
2.81838
2.83978
2.8643
2.89123
2.9205
2.95238
2.98724
3.02528
3.06618
3.10984
3.15655
3.20646
3.25952
3.31535
3.37338
3.43306
0.0925459
1.50123
2.29586
2.6773
2.85201
2.9151
2.90833
2.84525
2.72537
2.55815
2.37335
2.2809
2.49203
2.96752
3.43232
3.94415
4.52972
4.92777
5.57529
5.89359
5.23769
4.49681
3.94915
3.66594
3.59941
3.6275
3.66031
3.67227
3.66425
3.64086
3.6072
3.56799
3.52664
3.48522
3.44481
3.40767
3.37549
3.34966
3.33179
3.32293
3.32337
3.33267
3.3494
3.37216
3.39967
3.43051
3.46355
3.49837
3.5352
3.57448
3.61663
3.66191
3.70991
3.76043
3.81389
3.87042
3.92999
3.99222
4.05668
4.12239
0.0978977
1.60469
2.45551
2.86403
3.05298
3.12669
3.13368
3.09191
3.00191
2.87121
2.73737
2.69876
2.86124
3.2249
3.62483
4.22683
4.77558
5.00746
5.62272
5.50515
4.62477
3.9811
3.57293
3.43138
3.50201
3.65028
3.77201
3.84643
3.88853
3.90849
3.91376
3.90987
3.90049
3.88808
3.87445
3.86162
3.85231
3.84768
3.84932
3.85804
3.87375
3.89606
3.92361
3.95531
3.99017
4.02709
4.06527
4.10469
4.14589
4.18948
4.23589
4.28548
4.33772
4.39252
4.45043
4.51149
4.57561
4.64187
4.71029
4.78011
0.103434
1.70297
2.59667
3.02023
3.2135
3.2901
3.30534
3.28141
3.21922
3.1197
3.01234
2.98114
3.1005
3.36406
3.73584
4.47759
4.79822
5.10682
5.83527
4.95751
4.13249
3.58913
3.33079
3.36136
3.59057
3.8454
4.00957
4.1055
4.17143
4.21836
4.25119
4.27386
4.28913
4.29938
4.30708
4.31529
4.3271
4.3445
4.36574
4.38999
4.41822
4.45058
4.48605
4.52409
4.56405
4.60505
4.64666
4.68925
4.73363
4.78042
4.83014
4.88314
4.93873
4.99718
5.05917
5.12463
5.19372
5.26488
5.33684
5.40959
0.109204
1.79943
2.72974
3.15925
3.34893
3.42174
3.43928
3.42799
3.38909
3.31735
3.22901
3.18979
3.26898
3.46432
3.81175
4.45374
4.81158
5.39465
5.60963
4.47316
3.73959
3.33542
3.26448
3.49705
3.87754
4.17442
4.3331
4.43248
4.50434
4.56022
4.60517
4.6414
4.67069
4.69509
4.71712
4.74001
4.76648
4.79635
4.82795
4.86211
4.8994
4.93925
4.98093
5.02404
5.06813
5.11258
5.15731
5.20288
5.25023
5.30011
5.3531
5.4094
5.46846
5.53069
5.59689
5.66737
5.74269
5.82022
5.89722
5.97332
0.115211
1.89559
2.85971
3.29047
3.47081
3.53409
3.54864
3.54484
3.52328
3.47455
3.40558
3.36074
3.41455
3.58643
3.93834
4.53991
5.02802
5.89678
4.97209
4.02819
3.446
3.23338
3.39135
3.82781
4.28642
4.56239
4.70075
4.78394
4.84447
4.89561
4.94179
4.98381
5.02176
5.05647
5.08974
5.12401
5.16076
5.19884
5.23736
5.27787
5.32124
5.36657
5.41301
5.46005
5.50728
5.55441
5.6016
5.64954
5.69927
5.75168
5.80732
5.86633
5.92838
5.99384
6.06342
6.13751
6.21572
6.29444
6.37346
6.45139
0.121343
1.99194
2.98969
3.41998
3.58822
3.63797
3.64464
3.64443
3.63556
3.60389
3.55626
3.51878
3.57576
3.75838
4.13462
4.77139
5.52692
5.55127
4.41741
3.65437
3.2766
3.30482
3.70679
4.28919
4.73472
4.9558
5.05483
5.10762
5.14822
5.18895
5.23246
5.27767
5.32284
5.36723
5.41134
5.45633
5.50254
5.54862
5.59408
5.64056
5.68902
5.73894
5.78942
5.83984
5.88983
5.93932
5.98866
6.03871
6.09054
6.1451
6.20294
6.26412
6.32847
6.39624
6.46787
6.5434
6.62172
6.69994
6.77872
6.85348
0.12748
2.08921
3.12135
3.55217
3.70823
3.74296
3.73835
3.73788
3.74052
3.72228
3.69755
3.68755
3.78471
4.00688
4.38682
5.22983
6.22742
4.93664
3.95591
3.40153
3.26634
3.55767
4.16335
4.78309
5.14959
5.30919
5.3624
5.37916
5.39529
5.42287
5.46242
5.51042
5.56301
5.61762
5.67322
5.7296
5.78614
5.84144
5.89508
5.94849
6.00255
6.05706
6.1115
6.1653
6.21817
6.27019
6.32189
6.37418
6.42819
6.48483
6.5446
6.60754
6.6735
6.74257
6.81486
6.89005
6.96682
7.04327
7.11922
7.18829
0.133548
2.18669
3.25558
3.69058
3.83695
3.85775
3.84007
3.83559
3.85048
3.84761
3.84745
3.88506
4.06381
4.35575
4.73454
5.61739
5.80474
4.43876
3.64697
3.31163
3.42936
3.96283
4.6766
5.2223
5.50458
5.60544
5.61278
5.59268
5.58216
5.59428
5.62843
5.67865
5.73863
5.80379
5.87145
5.94004
6.00811
6.07407
6.13735
6.19891
6.25968
6.31972
6.37871
6.43631
6.49251
6.54754
6.60203
6.65694
6.71337
6.77216
6.83372
6.89805
6.96497
7.0344
7.1062
7.17981
7.25401
7.32733
7.39884
7.46176
0.13916
2.28306
3.39397
3.83897
3.98053
3.99033
3.95935
3.94603
3.97239
3.99509
4.02077
4.11324
4.41041
4.73077
5.1187
6.22113
5.2057
4.10284
3.50488
3.378
3.74102
4.45398
5.15987
5.59203
5.79432
5.84016
5.80485
5.74952
5.71176
5.70648
5.73316
5.78411
5.85059
5.92584
6.00548
6.08664
6.16703
6.24472
6.31883
6.38976
6.4583
6.52479
6.58925
6.65162
6.71199
6.77076
6.82863
6.88658
6.9457
7.00671
7.06995
7.13534
7.20268
7.27174
7.34223
7.41345
7.4843
7.55375
7.62032
7.6775
0.14447
2.37976
3.53947
4.00148
4.1448
4.14816
4.10542
4.07732
4.10614
4.16905
4.22461
4.35462
4.74317
5.11033
5.52833
6.20768
4.78345
3.89234
3.45951
3.55269
4.15255
4.95884
5.56587
5.89244
6.02009
6.01426
5.93978
5.85197
5.78781
5.76398
5.78107
5.83061
5.90187
5.98597
6.07679
6.17019
6.26302
6.35289
6.43847
6.51964
6.59693
6.67083
6.74162
6.80952
6.87483
6.93809
7.00007
7.06171
7.12392
7.18732
7.25218
7.31841
7.38575
7.45392
7.5225
7.59088
7.65824
7.72369
7.78559
7.83781
0.150765
2.48276
3.69538
4.18255
4.33553
4.33891
4.2875
4.23946
4.24958
4.34804
4.46586
4.57854
4.87322
5.28696
5.7147
5.57476
4.41984
3.67801
3.44553
3.81346
4.62177
5.4186
5.89787
6.12776
6.18498
6.12995
6.01914
5.90174
5.81292
5.77046
5.77635
5.82223
5.89608
5.98719
6.08777
6.19241
6.29711
6.39891
6.49601
6.5878
6.6745
6.75658
6.83451
6.90872
6.97969
7.04808
7.11469
7.1804
7.24602
7.31203
7.37861
7.44562
7.51283
7.57995
7.6466
7.7123
7.77644
7.8383
7.89628
7.94451
0.157673
2.5968
3.86598
4.38686
4.55899
4.57028
4.5152
4.4458
4.41501
4.4964
4.70568
4.8401
4.93176
5.26948
5.85599
4.94983
3.98857
3.45358
3.50414
4.17952
5.11433
5.80315
6.16203
6.30063
6.29119
6.18932
6.04454
5.90022
5.78889
5.72851
5.72233
5.7626
5.83673
5.93263
6.04105
6.15537
6.27073
6.3836
6.49168
6.59394
6.69027
6.78103
6.86673
6.94793
7.02524
7.09936
7.17113
7.24136
7.31072
7.3796
7.44808
7.51607
7.58334
7.64965
7.71475
7.7783
7.83992
7.89906
7.9542
7.99951
0.164681
2.72319
4.05758
4.61957
4.82092
4.84949
4.79838
4.71218
4.629
4.63223
4.84074
5.08905
5.06191
5.37488
5.67613
4.43968
3.62256
3.32209
3.71041
4.65134
5.58018
6.11791
6.36018
6.41202
6.33998
6.19409
6.01771
5.84888
5.71717
5.64003
5.6215
5.65466
5.72685
5.82513
5.93909
6.06105
6.18535
6.30791
6.42598
6.53813
6.64392
6.74354
6.83743
6.92618
7.01043
7.09093
7.16843
7.24368
7.31724
7.38938
7.4602
7.52959
7.59741
7.66352
7.72779
7.7901
7.85028
7.90797
7.96158
8.00508
0.173595
2.85845
4.27467
4.88772
5.12713
5.18203
5.14567
5.05515
4.92519
4.81867
4.87005
5.08611
5.10389
5.51421
5.03386
3.97315
3.34161
3.34509
4.09348
5.18102
5.97536
6.35928
6.49063
6.46192
6.33233
6.14592
5.9405
5.74942
5.59928
5.50655
5.47573
5.5006
5.5688
5.66699
5.78395
5.91118
6.04235
6.17287
6.29961
6.42078
6.53561
6.64405
6.7464
6.84316
6.93494
7.02241
7.10628
7.18715
7.26548
7.3415
7.41528
7.48678
7.55595
7.62279
7.68733
7.74967
7.80987
7.86762
7.92118
7.96401
0.181979
2.98838
4.51432
5.19961
5.4907
5.57812
5.56116
5.48985
5.33912
5.13258
5.00719
5.09606
5.14555
5.52973
4.44868
3.56138
3.19339
3.57418
4.62531
5.69533
6.2821
6.52127
6.5514
6.45053
6.26955
6.04679
5.81513
5.60387
5.43689
5.32957
5.28648
5.30203
5.36431
5.45993
5.57725
5.70722
5.84301
5.97963
6.11361
6.24281
6.36615
6.48326
6.59424
6.69941
6.79926
6.89435
6.98524
7.07243
7.15626
7.23694
7.31454
7.38911
7.46074
7.52956
7.59582
7.6598
7.72173
7.78128
7.83633
7.8796
0.184504
3.05701
4.76411
5.558
5.9159
5.9731
5.95222
5.89617
5.78547
5.61782
5.39105
5.30239
5.49855
5.1981
3.998
3.30883
3.2672
4.03321
5.21674
6.1022
6.49302
6.60178
6.54274
6.37928
6.15378
5.89915
5.64411
5.41451
5.23188
5.1105
5.05491
5.06003
5.11447
5.20509
5.32017
5.45038
5.58862
5.72955
5.86942
6.00574
6.13707
6.26271
6.38247
6.49643
6.60488
6.70821
6.80683
6.9011
6.99128
7.07756
7.16007
7.23894
7.31441
7.38678
7.45647
7.52396
7.58953
7.65269
7.71071
7.75544
0.19545
2.91695
5.00785
5.92311
6.22103
6.27759
6.2838
6.27175
6.23447
6.18026
6.0771
6.03035
6.34069
4.88742
3.76472
3.30427
3.61608
4.64996
5.75353
6.37935
6.60364
6.6025
6.46803
6.25167
5.9884
5.70629
5.43048
5.18397
4.98634
4.8509
4.78212
4.77542
4.82003
4.9033
5.01372
5.14195
5.2807
5.42445
5.5691
5.71182
5.85077
5.98487
6.11356
6.23666
6.35422
6.4664
6.57346
6.67564
6.77313
6.86613
6.95482
7.03946
7.1204
7.19813
7.27322
7.34622
7.41738
7.48587
7.54822
7.59527
0.230199
3.14558
5.19441
6.16058
6.45983
6.56394
6.6623
6.78342
6.90492
6.99749
7.06623
7.1375
6.38561
4.67416
3.76641
3.56812
4.18102
5.25561
6.13807
6.5265
6.61533
6.52768
6.3326
6.07277
5.77783
5.47204
5.17755
4.91503
4.70241
4.55223
4.46902
4.44874
4.48143
4.55512
4.65876
4.78318
4.92103
5.06653
5.21524
5.36391
5.51026
5.65281
5.79063
5.9232
6.05031
6.17196
6.28819
6.39916
6.50503
6.60601
6.70235
6.79441
6.88267
6.96774
7.05027
7.13081
7.20942
7.28479
7.35259
7.40258
0.246605
3.48555
5.27714
6.27015
6.67293
6.87974
7.09459
7.36823
7.67586
7.93928
8.07304
7.78454
6.06226
4.6885
3.96834
4.00762
4.77022
5.70275
6.33862
6.55665
6.54204
6.38655
6.14369
5.84866
5.52721
5.20074
4.88897
4.61062
4.38234
4.21608
4.1166
4.08062
4.09918
4.16127
4.25645
4.37579
4.51184
4.65849
4.8109
4.96533
5.11904
5.2701
5.41722
5.55957
5.69669
5.82836
5.95453
6.07524
6.19064
6.30098
6.40657
6.50785
6.6054
6.69985
6.79187
6.88187
6.96957
7.05306
7.12707
7.18038
0.243607
3.58047
5.33951
6.31239
6.8351
7.16906
7.49056
7.86684
8.26164
8.54123
8.53577
7.65744
5.96584
4.75573
4.1931
4.43399
5.19429
5.97265
6.39202
6.49082
6.39924
6.19082
5.90974
5.58588
5.24183
4.8967
4.56827
4.27363
4.02831
3.84399
3.72588
3.67177
3.67401
3.72276
3.80829
3.92184
4.05572
4.20338
4.35942
4.51959
4.68068
4.84033
4.99691
5.14931
5.29683
5.43911
5.57597
5.70743
5.83361
5.95478
6.07132
6.18371
6.29253
6.39838
6.5018
6.60293
6.70104
6.7935
6.87412
6.93085
0.232193
3.52894
5.3589
6.33656
6.93114
7.34623
7.74335
8.15803
8.5037
8.63868
8.34506
7.04247
5.60716
4.59143
4.2807
4.70697
5.42046
6.07783
6.34466
6.35315
6.20213
5.95158
5.63912
5.29084
4.92678
4.56409
4.21887
3.9068
3.64252
3.43767
3.2982
3.22341
3.20732
3.24141
3.31663
3.42416
3.55586
3.70457
3.86428
4.03021
4.19868
4.36695
4.53307
4.69571
4.854
5.00744
5.15579
5.29902
5.43727
5.57081
5.70003
5.8254
5.94742
6.06655
6.18306
6.2967
6.40614
6.50801
6.59527
6.65528
0.218626
3.39177
5.29355
6.32093
6.94587
7.38577
7.8017
8.17947
8.38444
8.29083
7.56882
6.15276
4.93726
4.21972
4.25795
4.83259
5.54569
6.06844
6.22505
6.16328
5.96401
5.67832
5.33901
4.96912
4.58651
4.20656
3.84382
3.51271
3.22716
2.99899
2.83537
2.73759
2.70164
2.72034
2.78503
2.88662
3.01619
3.16596
3.32921
3.50071
3.67634
3.85306
4.02868
4.20165
4.37099
4.5361
4.69669
4.85272
5.00432
5.15174
5.29533
5.43547
5.5725
5.70659
5.83762
5.96479
6.08609
6.19739
6.29096
6.35395
0.201169
3.21752
5.156
6.23894
6.87419
7.29267
7.64699
7.90147
7.9318
7.57191
6.41935
5.13247
4.16822
3.84563
4.22733
4.90182
5.62528
5.99828
6.06081
5.93689
5.69526
5.37857
5.01514
4.62525
4.22472
3.82721
3.44578
3.09373
2.78436
2.53019
2.34019
2.21797
2.16163
2.16504
2.21949
2.31511
2.44228
2.59247
2.75851
2.93488
3.11698
3.30164
3.4864
3.66957
3.85008
4.02724
4.20074
4.37053
4.53667
4.69939
4.85895
5.0155
5.16914
5.31964
5.46629
5.60764
5.74094
5.86132
5.96061
6.02609
0.188566
2.98386
4.96911
6.08265
6.70654
7.06303
7.27734
7.3539
7.18463
6.50133
5.22132
4.12061
3.4983
3.62224
4.24783
4.99744
5.64398
5.87956
5.86134
5.6827
5.40272
5.05761
4.67174
4.26269
3.84428
3.42858
3.02714
2.65242
2.31771
2.03622
1.81907
1.67252
1.59666
1.58581
1.63049
1.7198
1.8434
1.99232
2.15926
2.33841
2.52527
2.71646
2.9094
3.10219
3.29364
3.48294
3.66978
3.85404
4.03576
4.21503
4.39192
4.56635
4.73795
4.90596
5.06902
5.22485
5.36989
5.49864
5.60275
5.67007
0.189989
2.83527
4.75576
5.85
6.42218
6.68127
6.73407
6.61749
6.22336
5.20705
4.06639
3.23818
3.06591
3.58323
4.33456
5.13545
5.60686
5.72446
5.63191
5.40471
5.09009
4.71876
4.31157
3.88379
3.4474
3.0128
2.59088
2.19348
1.83378
1.52628
1.28463
1.11783
1.02676
1.00446
1.03956
1.12035
1.2366
1.37992
1.54341
1.72152
1.90974
2.10454
2.3032
2.50376
2.70491
2.90579
3.10591
3.305
3.50295
3.69971
3.89504
4.08843
4.279
4.46529
4.64511
4.81528
4.97141
5.10739
5.21498
5.28314
0.194641
2.80279
4.55537
5.54423
6.01476
6.15836
6.06843
5.77184
5.09189
3.98431
3.04957
2.6101
2.92756
3.68039
4.4862
5.22406
5.52474
5.53855
5.37812
5.10602
4.75957
4.36378
3.93631
3.49016
3.03565
2.58265
2.14146
1.72351
1.34303
1.01713
0.763154
0.591776
0.499964
0.473748
0.498233
0.562971
0.661086
0.787255
0.936569
1.10434
1.28626
1.47858
1.67823
1.88288
2.09088
2.30116
2.51306
2.72622
2.94033
3.15497
3.36933
3.58234
3.79239
3.9972
4.19362
4.37749
4.54347
4.6849
4.79379
4.86091
0.188049
2.72689
4.32377
5.16062
5.49199
5.50416
5.30364
4.8472
3.86663
2.89971
2.27064
2.33004
3.02491
3.85615
4.69392
5.24173
5.39221
5.31789
5.09994
4.78786
4.41225
3.99366
3.54679
3.08274
2.61116
2.14176
1.68452
1.25243
0.863722
0.543096
0.315843
0.187311
0.131502
0.11684
0.127109
0.158718
0.213598
0.29449
0.40245
0.53614
0.692329
0.866915
1.05588
1.2558
1.46413
1.67904
1.89934
2.12415
2.35269
2.58405
2.81691
3.04927
3.27871
3.50159
3.71378
3.90997
4.08379
4.22779
4.33408
4.39594
0.178315
2.57968
4.0052
4.66966
4.85424
4.72992
4.43024
3.72085
2.74889
2.01638
1.83594
2.38988
3.23995
4.07767
4.86551
5.18613
5.21466
5.06487
4.79748
4.45045
4.04861
3.60893
3.14379
2.66303
2.17695
1.69481
1.22876
0.797601
0.433013
0.181286
0.0647461
0.0331376
0.0287412
0.0286327
0.0281926
0.0289207
0.0344083
0.0496844
0.0815982
0.137917
0.224445
0.34265
0.489923
0.661641
0.853027
1.06013
1.27993
1.51019
1.74894
1.99412
2.24325
2.49321
2.7402
2.97955
3.20569
3.412
3.59061
3.73265
3.82908
3.87505
0.166146
2.36692
3.57675
4.03522
4.07675
3.86469
3.42588
2.54529
1.79369
1.45211
1.81189
2.64846
3.49466
4.33121
4.9042
5.06705
4.99758
4.7832
4.47221
4.09422
3.66885
3.20986
2.72778
2.23344
1.7366
1.24889
0.789302
0.394304
0.129963
0.0349545
0.03144
0.0404636
0.0425052
0.0426313
0.0423148
0.0416063
0.0399844
0.0363844
0.0307256
0.0276131
0.0345386
0.0594958
0.112591
0.202319
0.331076
0.495591
0.690061
0.908592
1.14587
1.39698
1.65697
1.92054
2.18191
2.4347
2.6717
2.88463
3.06373
3.19741
3.27202
3.27501
0.152919
2.09097
3.04122
3.2632
3.15529
2.95111
2.2649
1.55781
1.14985
1.32774
2.09487
2.95549
3.76577
4.53446
4.86076
4.8941
4.74347
4.47421
4.12505
3.71965
3.27324
2.79686
2.30107
1.79696
1.29609
0.817086
0.397995
0.117138
0.0292274
0.0372717
0.0434818
0.0436866
0.0433855
0.0430977
0.0428556
0.0426586
0.0425019
0.0423706
0.0422015
0.0417271
0.0400338
0.035303
0.0291278
0.0318869
0.0557408
0.115143
0.222762
0.381169
0.583384
0.818439
1.0751
1.34288
1.61208
1.87334
2.11701
2.33253
2.50738
2.62568
2.66476
2.58393
0.14174
1.75002
2.4234
2.43932
2.25588
1.91572
1.30119
0.90225
0.956
1.60633
2.46372
3.25731
4.05093
4.59452
4.74667
4.67272
4.45347
4.13777
3.75602
3.32687
2.86222
2.37147
1.86646
1.3589
0.866894
0.427611
0.123685
0.028511
0.0393143
0.0442604
0.0441053
0.0436942
0.0433203
0.0430024
0.0427362
0.0425202
0.0423559
0.0422441
0.042182
0.0421642
0.0421861
0.0422239
0.0421245
0.0411722
0.0371945
0.0305794
0.0356574
0.072958
0.165489
0.323957
0.537351
0.784914
1.04698
1.30716
1.55115
1.76471
1.93167
2.03079
2.02911
1.86105
0.150128
1.47187
1.80668
1.75555
1.5273
1.03197
0.693006
0.689326
1.21536
2.03281
2.80487
3.55525
4.2737
4.55877
4.56877
4.40549
4.12827
3.77364
3.36482
2.91607
2.43649
1.93687
1.42886
0.929575
0.473944
0.143143
0.0296726
0.0397313
0.0448847
0.0446231
0.0441299
0.0436852
0.0432921
0.0429508
0.0426617
0.0424221
0.0422308
0.0420858
0.041986
0.041935
0.0419398
0.0420035
0.0421226
0.042293
0.0425076
0.0426153
0.0415808
0.0362502
0.0327607
0.0589467
0.146565
0.308452
0.523289
0.759607
0.991109
1.19608
1.35301
1.43538
1.40295
1.17983
0.192768
1.20263
1.33067
1.21246
0.788181
0.514618
0.505885
0.936873
1.68721
2.41441
3.1172
3.85951
4.33108
4.43437
4.33047
4.09373
3.76832
3.38182
2.95142
2.48757
1.99909
1.49747
0.997661
0.530954
0.173215
0.0330301
0.0392287
0.0455592
0.0452817
0.044719
0.0441985
0.0437258
0.0433097
0.0429426
0.0426256
0.0423567
0.0421342
0.0419569
0.0418256
0.0417432
0.0417125
0.0417336
0.0418074
0.041942
0.0421557
0.0424687
0.0428974
0.0434172
0.0435299
0.0403886
0.0349487
0.0565062
0.139856
0.289591
0.473087
0.651969
0.79361
0.865802
0.827386
0.614079
0.261571
0.934069
0.828803
0.516905
0.351316
0.395653
0.781544
1.44227
2.10025
2.73956
3.4214
4.05332
4.26722
4.23019
4.03551
3.73884
3.37431
2.96285
2.51653
2.0436
1.55465
1.06225
0.592842
0.212734
0.0397036
0.0376553
0.046222
0.0460682
0.0454694
0.0448868
0.0443433
0.0438445
0.0433958
0.0429962
0.0426451
0.0423417
0.0420849
0.0418737
0.0417077
0.0415883
0.0415173
0.0414958
0.0415262
0.0416152
0.0417742
0.0420181
0.0423699
0.0428703
0.0435661
0.0444766
0.0453722
0.0443407
0.0394218
0.0516659
0.108304
0.203551
0.300826
0.357878
0.336114
0.205774
0.181576
0.294019
0.234634
0.250106
0.394225
0.755834
1.29416
1.86097
2.43455
3.04494
3.71482
4.06203
4.10666
3.95695
3.68757
3.34192
2.94655
2.5172
2.06155
1.58961
1.11186
0.649634
0.258514
0.05129
0.0340695
0.0463613
0.0467341
0.0462385
0.0456841
0.0451217
0.0445747
0.0440585
0.0435787
0.0431438
0.0427533
0.0424091
0.0421107
0.0418574
0.0416489
0.0414865
0.0413716
0.0413048
0.0412877
0.0413251
0.0414262
0.0416023
0.0418702
0.0422571
0.0427975
0.0435351
0.0445349
0.0458506
0.0474713
0.0488896
0.0483282
0.0472327
0.0535741
0.0624754
0.0581533
0.042408
0.0367197
0.0406007
0.0448978
0.0499807
0.0561143
0.0636167
0.0728754
0.0843276
0.0984637
0.115811
0.136936
0.16256
0.193824
0.232679
0.282027
0.344231
0.415986
0.481894
0.506005
0.369485
0.036514
0.0399678
0.0438295
0.0484796
0.0541989
0.0613284
0.0702848
0.0815544
0.0957209
0.113462
0.135545
0.162921
0.196987
0.240043
0.295737
0.368264
0.457525
0.548809
0.596778
0.483016
0.0363052
0.0393082
0.0427027
0.0468681
0.0520929
0.0587302
0.0672057
0.0780233
0.0918182
0.109381
0.13166
0.159823
0.195479
0.241105
0.300562
0.378619
0.476228
0.578668
0.642061
0.547036
0.0361012
0.0386475
0.0415617
0.0452096
0.0498808
0.0559321
0.0637818
0.0739156
0.0869617
0.10375
0.125334
0.153036
0.188593
0.234468
0.29424
0.372237
0.469648
0.57445
0.648479
0.630609
0.0359091
0.0380108
0.0404508
0.0435706
0.0476545
0.0530577
0.0601809
0.0694657
0.0814758
0.0969855
0.117036
0.142985
0.176588
0.220166
0.27681
0.350071
0.44128
0.542373
0.628129
0.663331
0.0357348
0.0374194
0.0394089
0.0420121
0.045503
0.0502314
0.0565769
0.0649268
0.0757441
0.0896651
0.107589
0.13075
0.160779
0.199771
0.250318
0.315243
0.395983
0.488434
0.578466
0.643279
0.0355822
0.0368894
0.0384659
0.0405831
0.0435019
0.0475652
0.0531313
0.0605347
0.070132
0.0823845
0.0979553
0.117807
0.143279
0.176119
0.218443
0.272495
0.339775
0.41892
0.503029
0.579497
0.0354542
0.0364312
0.0376408
0.0393159
0.041707
0.0451509
0.0499814
0.0564837
0.0649258
0.0756113
0.088955
0.105577
0.126395
0.152668
0.185966
0.227997
0.280157
0.342535
0.412521
0.484244
0.0353522
0.0360492
0.0369389
0.0382241
0.0401531
0.0430552
0.0472346
0.0529253
0.0603184
0.0696086
0.0810393
0.094953
0.111845
0.132412
0.157566
0.188369
0.225843
0.270564
0.322021
0.37812
0.0352775
0.0357406
0.0363502
0.0373027
0.038851
0.0413196
0.0449768
0.0499556
0.0563363
0.0642494
0.0738914
0.0854924
0.0992854
0.115518
0.134485
0.15657
0.18228
0.212179
0.246731
0.286251
0.0352315
0.0354894
0.0358268
0.0364426
0.0374938
0.0391235
0.0413013
0.0438375
0.0465881
0.0496379
0.0533738
0.0583937
0.0653366
0.0747919
0.0873766
0.104001
0.126115
0.155924
0.196757
0.253597
0.0320756
0.0337662
0.029165
0.021115
0.0137541
0.0100437
0.0106093
0.0150781
0.023296
0.0353122
0.051351
0.0718485
0.0977282
0.130969
0.17396
0.227819
0.293214
0.369878
0.455933
0.553541
0.0127312
0.00563128
0.0164471
0.0355914
0.05914
0.0843874
0.110795
0.138859
0.16942
0.203326
0.240931
0.282971
0.33172
0.392363
0.463573
0.541759
0.622898
0.704613
0.791877
0.898058
0.209717
0.158273
0.173951
0.189804
0.210813
0.237248
0.268589
0.305867
0.349429
0.396964
0.444945
0.492869
0.548692
0.631304
0.722717
0.816803
0.90684
0.984988
1.06705
1.17972
0.179818
0.223834
0.262597
0.301031
0.337619
0.373723
0.412125
0.454809
0.501808
0.550204
0.596222
0.639481
0.696324
0.768514
0.840497
0.913542
0.980716
1.0367
1.09644
1.16427
0.153348
0.224374
0.273095
0.317429
0.360614
0.402792
0.444922
0.487647
0.530432
0.572387
0.614086
0.659251
0.712199
0.765224
0.811812
0.85234
0.884863
0.91025
0.93696
0.964929
0.106603
0.182121
0.235657
0.282714
0.328148
0.371786
0.413515
0.453514
0.49183
0.528876
0.565858
0.604339
0.644018
0.680232
0.708551
0.727867
0.738479
0.742468
0.743222
0.740689
0.0597421
0.111601
0.157897
0.205595
0.251218
0.294725
0.335033
0.372339
0.407016
0.439546
0.470423
0.499721
0.526341
0.547628
0.560867
0.564981
0.560553
0.549316
0.533053
0.512035
0.0281421
0.0459009
0.074443
0.111794
0.150513
0.188712
0.224913
0.25806
0.288134
0.315168
0.33907
0.3594
0.375094
0.384484
0.386045
0.379272
0.364828
0.34413
0.318614
0.289064
0.0124684
0.0134613
0.0257335
0.0418927
0.0629271
0.0870523
0.112189
0.13642
0.158504
0.1778
0.193694
0.205475
0.212258
0.213104
0.207438
0.195438
0.178091
0.156934
0.133647
0.10975
0.00649907
0.00819691
0.0220562
0.0236039
0.0259242
0.0315118
0.0396809
0.0492815
0.0589743
0.0677076
0.074577
0.0788338
0.0799283
0.077626
0.0721715
0.0643638
0.055436
0.0467657
0.0395538
0.034625
0.00570981
0.00828442
0.0289876
0.0326376
0.0313532
0.0299577
0.0288537
0.0283557
0.0285069
0.0290846
0.029782
0.0303481
0.0306812
0.0308653
0.0311336
0.0317493
0.0328412
0.0342973
0.0358224
0.0371233
0.00722511
0.010346
0.0324579
0.0350437
0.0348493
0.0347053
0.0345546
0.0343978
0.0342737
0.0342326
0.0343187
0.0345566
0.0349408
0.0354341
0.0359753
0.036497
0.0369449
0.0372899
0.0375277
0.0376697
0.0078253
0.0195392
0.0350004
0.0351821
0.0351095
0.0350966
0.0350964
0.0351048
0.0351279
0.0351737
0.0352492
0.0353583
0.035499
0.0356624
0.0358332
0.0359942
0.0361306
0.0362348
0.0363066
0.0363502
0.0570361
0.0753322
0.0852842
0.0945605
0.102518
0.108447
0.111896
0.113411
0.113304
0.112238
0.111311
0.109994
0.108585
0.107487
0.107332
0.228727
0.28573
0.453846
0.617242
0.72138
0.767263
0.784113
0.782629
0.768612
0.746015
0.717565
0.68578
0.652607
0.619347
0.586818
0.422432
0.281381
0.33006
0.445122
0.555404
0.615407
0.630717
0.623002
0.60502
0.583825
0.563248
0.545801
0.534247
0.533321
0.552283
0.517447
0.41987
0.363575
0.351197
0.359046
0.375951
0.398602
0.421645
0.444013
0.466252
0.489849
0.518301
0.558507
0.621479
0.720474
0.610295
0.541643
0.498308
0.478041
0.475877
0.485761
0.502282
0.523528
0.54747
0.574253
0.608142
0.658156
0.735824
0.848409
0.993622
0.660659
0.64112
0.620804
0.613823
0.620703
0.634206
0.64841
0.663562
0.68272
0.713457
0.766959
0.85195
0.967501
1.10795
1.27539
0.636567
0.669106
0.686629
0.701743
0.718755
0.732615
0.744872
0.762464
0.796521
0.857464
0.947236
1.06216
1.20484
1.38154
1.59389
0.552594
0.610993
0.656059
0.691101
0.71786
0.742236
0.775207
0.827772
0.904188
1.00383
1.13156
1.29516
1.49529
1.72638
1.9823
0.437912
0.497202
0.550321
0.599302
0.653462
0.720715
0.804902
0.909552
1.04156
1.20584
1.40173
1.6266
1.87617
2.14285
2.39365
0.333722