/*--------------------------------*- C++ -*----------------------------------*\
| =========                 |                                                 |
| \\      /  F ield         | OpenFOAM: The Open Source CFD Toolbox           |
|  \\    /   O peration     | Version:  v1912                                 |
|   \\  /    A nd           | Website:  www.openfoam.com                      |
|    \\/     M anipulation  |                                                 |
\*---------------------------------------------------------------------------*/
FoamFile
{
    version     2.0;
    format      ascii;
    class       volScalarField;
    location    "26";
    object      p;
}
// * * * * * * * * * * * * * * * * * * * * * * * * * * * * * * * * * * * * * //

dimensions      [1 -1 -2 0 0 0 0];


internalField   nonuniform List<scalar> 
20320
(
419482
429737
429764
429817
429889
429978
430080
430196
430320
430451
430585
430719
430849
430974
431090
431195
431285
431361
431419
431457
399559
409473
409508
409563
409636
409726
409830
409945
410070
410201
410335
410470
410601
410726
410841
410945
411033
411104
411156
411188
380235
389837
389873
389929
390002
390092
390196
390312
390437
390567
390701
390835
390965
391089
391203
391305
391392
391463
391513
391546
361510
370813
370849
370903
370976
371065
371169
371284
371408
371538
371670
371803
371931
372053
372165
372265
372351
372422
372473
372509
343372
352383
352418
352472
352544
352631
352733
352847
352969
353097
353228
353358
353484
353604
353713
353811
353895
353966
354018
354056
325807
334533
334567
334620
334690
334776
334875
334986
335105
335231
335359
335486
335610
335726
335832
335927
336009
336079
336131
336170
308803
317250
317283
317333
317401
317483
317579
317686
317802
317923
318047
318170
318289
318401
318504
318595
318674
318741
318792
318831
292348
300521
300552
300600
300664
300743
300834
300935
301045
301160
301277
301394
301508
301614
301710
301796
301871
301934
301983
302021
276429
284334
284363
284408
284467
284540
284624
284718
284820
284926
285034
285142
285246
285343
285431
285509
285577
285635
285679
285716
261034
268678
268704
268744
268798
268863
268938
269022
269113
269207
269302
269397
269487
269571
269646
269712
269769
269818
269856
269889
246154
253540
253563
253598
253643
253699
253763
253834
253910
253988
254066
254141
254212
254276
254331
254378
254419
254455
254483
254508
231780
238913
238931
238959
238996
239040
239090
239144
239200
239257
239311
239360
239403
239438
239465
239484
239499
239513
239524
239535
217898
224784
224797
224818
224843
224874
224906
224940
224972
225001
225024
225038
225042
225036
225019
224995
224970
224950
224934
224921
204501
211143
211151
211162
211176
211190
211202
211212
211215
211209
211191
211159
211111
211046
210967
210877
210790
210713
210652
210597
191579
197982
197984
197986
197985
197981
197971
197952
197921
197874
197807
197716
197598
197453
197283
197095
196907
196739
196600
196471
179122
185291
185286
185278
185263
185239
185205
185155
185085
184990
184864
184700
184494
184242
183944
183610
183263
182937
182659
182396
167117
173059
173048
173028
172999
172955
172895
172812
172701
172553
172361
172113
171799
171409
170939
170391
169791
169191
168653
168128
155558
161276
161258
161228
161184
161121
161034
160919
160765
160563
160299
159958
159521
158967
158274
157430
156440
155360
154299
153211
144429
149930
149907
149867
149809
149727
149616
149469
149274
149019
148685
148249
147682
146946
145993
144769
143223
141335
139184
136701
133719
139010
138981
138933
138862
138763
138631
138455
138224
137920
137522
136999
136308
135393
134172
132528
130290
127215
122937
116694
112151
114695
113951
112741
111129
109262
107358
105820
105428
106497
100807
77397.3
69148.5
66907.4
66041
65956.7
65972.4
65801.8
65173.6
65135.8
65728.8
96547.6
291179
293765
231273
172554
125638
90983.4
67171.3
51691.5
42017
36156.6
32702.6
30703.4
29651.1
29126.3
28927.4
28911.9
28991.2
29110.7
29239
29358.7
29460.1
29544.5
29620
29696.6
29781.8
29883.5
30012.2
30170.9
30355.5
30557.5
30758.8
30944.7
31111.3
31250.4
31344.8
31389.2
31400.1
31369.7
107066
109440
108657
107479
105971
104249
102513
101100
100554
101046
96964.5
74924.5
68722.9
65369
64557.2
63704.9
63241.5
62939
62929.7
63079.3
63479.8
67135.8
198648
237781
203039
155869
114118
82160.4
59881.5
45313.8
36192.7
30673.5
27460.7
25557
24563.2
24087.7
23921.6
23929.9
24025.3
24152.6
24279.1
24390.9
24480.2
24549.3
24609.3
24671.9
24747.4
24843.8
24970.4
25129.7
25314.7
25517.3
25721.5
25910.1
26077.7
26217
26311.2
26358.2
26370.1
26327.9
102177
104397
103601
102447
100889
99246.1
97598.1
96149.3
95155.2
94505.8
91332.4
77096.7
66925.6
65487.2
64723.2
63823
63385.1
63006.8
62937.1
63047.9
63346.6
65158.2
177777
196461
175535
137594
100655
71502.5
51122.8
37883.7
29658.8
24706.4
21802.3
20168.7
19309.4
18914.9
18797.5
18835.7
18949
19084.6
19210.7
19318.2
19398.2
19454.5
19501.3
19552.5
19618.6
19708.4
19831.6
19990.4
20175.8
20381.8
20593.6
20788.3
20958.3
21096.5
21194.3
21253
21266.9
21198.6
97354.9
99409.1
98878.5
97515.9
95924.9
94287.8
92655.9
91130.9
89772.6
88372.3
85366.8
77806.4
67863.6
65064.9
63150
62969
63111.2
63003.6
62907
62965
63103.2
68544.5
147906
160620
146760
116021
83691.7
57805.4
40031.3
28796
21983.8
17968.7
15663.8
14394.7
13754.4
13492.3
13455.6
13544.1
13689.6
13844.2
13976
14089.2
14167.6
14215
14252.5
14296.5
14355.2
14438
14556.8
14717.2
14905.9
15120.8
15347.6
15550.2
15725.2
15867.2
15972.4
16047.5
16071.3
15981.3
92577.9
94593
93991.2
92667.7
91210.1
89431.6
87711.9
86148
84580.6
82817.7
79804.9
75010.9
68000.3
63480.1
62541.1
61689.2
62676.7
62708.6
62828.5
62863.3
63079.2
79147.8
115007
126029
115914
90509.9
62568.3
40611
26344.4
17889.8
13060.2
10373.1
8922.54
8198.5
7880.23
7817.27
7905.8
8073.71
8271.15
8459.17
8599.8
8730.17
8814.44
8854.01
8883.18
8924.57
8977.61
9051.22
9162.93
9326.67
9518.69
9747.33
10001.2
10210.7
10391.9
10539.3
10652.2
10751.9
10803
10694.1
87855.8
89796.9
89000.9
87799.1
86351
84791.2
83011.4
81219.9
79564.7
77817.4
75202.7
72112.4
64913.2
65489.2
61991.3
61786.3
62143.8
62504.1
62720.6
62819.5
63296.2
73558.6
87761.1
93999.8
84257.5
61692.8
37184.9
19027
9234.43
4780.71
2802.88
2025.17
1757.28
1719.13
1827.79
2005.23
2224.87
2464.36
2727.25
2968.75
3096.44
3267.65
3364.1
3382.49
3392.23
3433.21
3474.91
3525.2
3619.97
3801.01
3993.23
4253.27
4574.08
4779.44
4969.16
5119.46
5235.17
5384.54
5492.67
5349.41
83159.8
84732.5
84013.6
82820.4
81404.6
79871.5
78264.2
76380.5
74623.9
73055.6
71871.7
68519.9
62456.3
64642.3
57490.2
61542.7
62046.1
62395.1
62543.3
62799.2
61116
61036.4
65540.9
65484.1
53411.1
29861
6332.53
527.252
46.4749
18.5886
0.987736
-10.7727
-18.8546
-24.5339
-28.4206
-31.8635
-34.1194
-34.5424
-28.7088
-17.8684
-6.25693
6.82278
9.08899
8.64874
8.59946
11.3724
16.0167
26.6801
48.1943
83.2697
130.47
203.253
302.099
370.821
464.644
497.342
488.517
588.094
734.46
582.606
78489.1
79750.1
79013.5
77827.1
76424.2
74897.9
73295.5
71607.4
69792.4
68197.7
67167.1
65207.7
64197.2
63546.3
55476.7
60951.8
61733.9
62219.3
62641.6
61281.3
53608.2
49336.3
46952
40970.6
23954.6
2050.26
80.744
55.497
34.8043
16.7407
1.91089
-9.98672
-19.1465
-26.0761
-31.3071
-35.4356
-38.8017
-41.9375
-42.5409
-42.1177
-42.0293
-41.966
-41.8265
-41.5632
-41.2177
-40.8463
-40.4265
-39.9472
-39.4011
-38.8457
-38.2806
-37.751
-37.3472
-36.7776
-36.1581
-35.4592
-35.0977
-37.1608
-32.1389
-29.1798
73807.3
75001.6
73995.4
72824.6
71409.1
69879.1
68350.1
66659.4
64987.4
63272.9
62324.9
61460.7
62131.2
58216.7
56496.3
59918.6
60892.9
60951.1
60100.1
54713.2
45764.9
38497.8
31270.7
20040.2
1665.77
60.219
55.6811
36.1027
18.0898
2.84796
-9.63949
-19.6477
-27.4527
-33.4426
-37.9953
-41.5149
-44.4968
-47.0179
-48.1821
-48.3162
-48.2502
-48.1183
-47.9004
-47.5927
-47.2017
-46.7693
-46.2947
-45.7755
-45.2128
-44.6444
-44.0807
-43.5452
-43.0838
-42.5367
-41.9311
-41.2613
-40.729
-40.7505
-38.2815
-35.8551
69132.8
70241.8
68974.1
67849.8
66370.1
64971.8
63596.3
61815.7
60074.1
58695.2
57390
57024.2
56723.9
54809.6
54706.6
57312.5
58291.8
61352
58920
47747.8
38125.4
28482.9
17943.1
3054.91
51.1346
38.0574
29.6287
14.5832
1.16723
-10.7709
-20.8532
-29.1178
-35.7137
-40.8807
-44.8769
-47.9901
-50.5323
-52.625
-53.864
-54.2979
-54.3515
-54.2394
-54.0253
-53.7316
-53.3657
-52.9534
-52.4962
-51.99
-51.4383
-50.8636
-50.2855
-49.7229
-49.1946
-48.6241
-48.0052
-47.3416
-46.7298
-46.2089
-44.462
-42.5739
64456
65237.1
64007.8
62865.7
61635.6
60726.9
58821.8
56958.7
55295.5
54006
52230.6
51436
51675.4
53096.2
52877.5
56579.2
57458.6
58254.3
51394.6
41217.8
30531.6
19240.2
6004.3
49.3857
8.06614
10.8746
3.99834
-5.61712
-15.4499
-24.5614
-32.4785
-39.1068
-44.5059
-48.8128
-52.1911
-54.8366
-56.9662
-58.6894
-59.8475
-60.3986
-60.5453
-60.4767
-60.2835
-60.003
-59.6556
-59.2603
-58.8155
-58.3181
-57.7734
-57.1985
-56.6102
-56.0251
-55.4545
-54.8582
-54.2241
-53.5511
-52.8745
-52.1356
-50.7829
-49.2968
59434.7
60109.7
59204
58013.7
57324.4
55810.5
54035.5
52223.9
50566.4
49210.4
47089.8
46681.7
46421.1
52093.6
51991.4
54795.7
57024.5
57042.1
44938
34562.1
23040.6
10380.8
271.137
-19.6119
-11.9314
-13.2795
-17.5272
-24.0003
-31.1216
-37.9456
-44.0285
-49.228
-53.5426
-57.0365
-59.8072
-61.9892
-63.7329
-65.1286
-66.1272
-66.6789
-66.8734
-66.8433
-66.671
-66.4043
-66.0714
-65.6867
-65.2493
-64.7579
-64.2184
-63.6441
-63.0496
-62.4482
-61.8504
-61.2334
-60.5852
-59.9007
-59.1856
-58.3819
-57.2599
-56.05
54165.9
54932.5
54228.2
53221
52293.1
51209
50000.4
48112.6
46197.3
44922
42674.7
42598.9
42682.6
48039.6
50860.1
52887.3
53730.1
48738.6
38767.5
27784.1
15669.3
2474.2
-31.4335
-32.4177
-31.5577
-32.8583
-35.8833
-40.4278
-45.5801
-50.6422
-55.2515
-59.2628
-62.6422
-65.4101
-67.6224
-69.3717
-70.7626
-71.8665
-72.6796
-73.1674
-73.3649
-73.3515
-73.1935
-72.9378
-72.6137
-72.2335
-71.7987
-71.3111
-70.7759
-70.2041
-69.6069
-68.9966
-68.3823
-67.7515
-67.0939
-66.4019
-65.6718
-64.8619
-63.8808
-62.8523
48997.2
49896.7
48784
48129
47452.6
47017.5
45325.7
43450.1
41596.9
41180.4
39003.8
35974
38136.7
41634.3
50512.5
50706.4
52431.3
41990.3
32274
21008.5
8228.51
73.2642
-45.7758
-46.7318
-47.9327
-49.3235
-51.7181
-55.0345
-58.7939
-62.5416
-66.0069
-69.0646
-71.6691
-73.8182
-75.5436
-76.9096
-77.9898
-78.8382
-79.4686
-79.8621
-80.0273
-80.0083
-79.8524
-79.6002
-79.2781
-78.898
-78.4629
-77.9775
-77.4468
-76.879
-76.2825
-75.6703
-75.0484
-74.4099
-73.7484
-73.0548
-72.3224
-71.5267
-70.6339
-69.7166
44045.3
44712.9
43531.9
42876.1
42908.7
42006.5
40694.6
38864.4
36616
36467.2
35242.8
30144.6
36543.7
37303.8
47664.7
49407.6
42944.4
35466.6
25740.3
14362.8
1746.16
-58.602
-58.4614
-60.4362
-62.031
-63.5506
-65.5535
-68.0678
-70.8566
-73.6437
-76.2443
-78.5563
-80.5386
-82.1802
-83.4997
-84.5407
-85.3561
-85.9869
-86.4499
-86.7386
-86.8505
-86.8075
-86.6418
-86.3854
-86.0601
-85.6771
-85.2414
-84.7582
-84.2322
-83.6695
-83.078
-82.4689
-81.8457
-81.2061
-80.545
-79.8547
-79.127
-78.3498
-77.5108
-76.6534
38738.7
39432.4
38551.9
37663.5
37816.4
36999.5
36156.1
34637
32234.4
30123.6
29302.9
30473.9
35901.3
36966.5
35497.2
32482.5
37247.6
29164.3
19471.5
7722.27
40.9864
-67.761
-70.4058
-72.8092
-74.5299
-76.0842
-77.8204
-79.8007
-81.9162
-84.012
-85.968
-87.7095
-89.2057
-90.444
-91.4363
-92.2119
-92.8092
-93.2595
-93.5776
-93.7638
-93.8137
-93.7364
-93.5528
-93.2869
-92.9551
-92.5678
-92.132
-91.6522
-91.131
-90.5754
-89.9918
-89.3887
-88.7699
-88.1344
-87.4786
-86.7959
-86.0772
-85.3157
-84.5074
-83.6753
33324.6
34321.4
33653.2
32696
32295.8
31830.1
31603.7
30744.6
28921.9
26334.5
25083.7
23878
26750.1
32237.4
39088.5
38736.2
31042.9
23287.9
13516.1
1868.75
-80.6257
-79.2215
-81.838
-84.0802
-85.8108
-87.3372
-88.8741
-90.4865
-92.1339
-93.7351
-95.2169
-96.5311
-97.6561
-98.5813
-99.3171
-99.8831
-100.306
-100.611
-100.81
-100.905
-100.894
-100.78
-100.575
-100.297
-99.9582
-99.5667
-99.1312
-98.6558
-98.1408
-97.5939
-97.0203
-96.4265
-95.8166
-95.1906
-94.5448
-93.8724
-93.1649
-92.4165
-91.6234
-90.7954
28142.2
29235.5
27925.7
27802.7
26754.3
26420.5
26757.3
27391.6
26112.3
23771
22695.5
22747
23411.3
29546.3
31448.6
33017.9
25606.7
17756
7687.73
44.6518
-85.81
-89.6512
-92.3868
-94.4723
-96.1594
-97.6219
-98.9977
-100.347
-101.664
-102.911
-104.048
-105.047
-105.894
-106.584
-107.124
-107.529
-107.819
-108.011
-108.117
-108.137
-108.072
-107.924
-107.699
-107.409
-107.063
-106.669
-106.235
-105.765
-105.258
-104.721
-104.161
-103.579
-102.983
-102.371
-101.739
-101.079
-100.385
-99.6469
-98.8614
-98.025
23179.2
23922.7
23618.2
23573.1
20957
18535
17735.2
19398
22711.7
21106.9
21699.9
22685.6
22919.1
20639
27100.7
26819.1
20529.4
12571.2
2492.67
-71.9663
-96.5155
-99.5511
-102.19
-104.184
-105.804
-107.179
-108.415
-109.566
-110.644
-111.636
-112.526
-113.296
-113.941
-114.457
-114.853
-115.14
-115.331
-115.441
-115.477
-115.44
-115.332
-115.156
-114.914
-114.615
-114.263
-113.869
-113.439
-112.975
-112.478
-111.956
-111.41
-110.845
-110.266
-109.672
-109.057
-108.414
-107.733
-107.006
-106.224
-105.375
18546.4
20605.5
19930.1
18191.4
16222.8
15855.7
15878.3
15925
16072.4
18204.4
16282.6
22370.8
20726.9
25448.6
22420.7
21473.5
15604.6
7650.59
141.092
-108.631
-105.841
-109.187
-111.524
-113.398
-114.919
-116.192
-117.298
-118.292
-119.194
-120.004
-120.715
-121.324
-121.824
-122.218
-122.511
-122.715
-122.838
-122.89
-122.877
-122.8
-122.663
-122.466
-122.212
-121.906
-121.553
-121.162
-120.738
-120.283
-119.8
-119.294
-118.766
-118.222
-117.664
-117.09
-116.497
-115.873
-115.208
-114.492
-113.713
-112.851
16004.5
16396.6
16044.7
15819.3
15826
15837.5
15856.4
15888.9
15919.3
15965.4
16717.1
15744.6
17227.9
23071.2
21152.1
16731.4
11039.5
3165.12
-67.2036
-115.713
-116.12
-118.493
-120.539
-122.252
-123.646
-124.802
-125.788
-126.654
-127.423
-128.099
-128.686
-129.18
-129.58
-129.89
-130.115
-130.264
-130.342
-130.357
-130.312
-130.212
-130.057
-129.848
-129.587
-129.281
-128.931
-128.546
-128.131
-127.688
-127.221
-126.735
-126.228
-125.707
-125.174
-124.625
-124.056
-123.455
-122.81
-122.106
-121.332
-120.461
15866.7
15806.5
15761.8
15768.5
15802.4
15820.3
15838.8
15865.4
15905.7
15950.7
16094.5
16608.1
17413.3
20748
17491.1
12733.7
6908.69
298.59
-131.855
-121.941
-125.337
-127.451
-129.291
-130.829
-132.084
-133.119
-133.995
-134.754
-135.419
-135.997
-136.495
-136.911
-137.244
-137.499
-137.681
-137.796
-137.848
-137.843
-137.783
-137.673
-137.511
-137.298
-137.038
-136.736
-136.392
-136.017
-135.615
-135.188
-134.741
-134.276
-133.794
-133.299
-132.793
-132.273
-131.732
-131.157
-130.534
-129.848
-129.082
-128.207
15733
15747.9
15760.3
15760.2
15779.8
15798.1
15814
15835.2
15867.8
15926
16058.9
16315.6
17008.8
15931.5
13877.7
9148.89
3141.62
-105.406
-127.565
-132.312
-134.427
-136.229
-137.849
-139.205
-140.314
-141.233
-142.009
-142.679
-143.262
-143.768
-144.202
-144.564
-144.853
-145.075
-145.232
-145.329
-145.37
-145.358
-145.296
-145.185
-145.026
-144.817
-144.565
-144.271
-143.939
-143.578
-143.192
-142.785
-142.359
-141.918
-141.463
-140.998
-140.523
-140.035
-139.523
-138.978
-138.381
-137.716
-136.964
-136.093
15710.3
15702.3
15731.5
15744.5
15760.4
15777.3
15788.8
15803.4
15824.9
15871.2
15950.8
16050.7
15929.1
12337.7
10177
5813.14
478.762
-120.61
-140.678
-141.702
-143.328
-144.872
-146.265
-147.437
-148.407
-149.218
-149.906
-150.501
-151.019
-151.469
-151.857
-152.182
-152.443
-152.645
-152.79
-152.881
-152.922
-152.914
-152.858
-152.755
-152.606
-152.409
-152.169
-151.889
-151.573
-151.229
-150.862
-150.477
-150.075
-149.66
-149.235
-148.802
-148.361
-147.906
-147.429
-146.917
-146.349
-145.709
-144.976
-144.116
15707
15697.9
15710.2
15724.2
15740.4
15760.6
15766.6
15775.9
15791.3
15824.5
15868.5
15981
13464.5
9919.81
7197.61
2824.9
-271.495
-155.868
-149.521
-150.843
-152.096
-153.398
-154.576
-155.577
-156.421
-157.136
-157.748
-158.28
-158.746
-159.154
-159.507
-159.804
-160.048
-160.24
-160.381
-160.474
-160.522
-160.525
-160.481
-160.393
-160.258
-160.078
-159.855
-159.593
-159.297
-158.973
-158.629
-158.268
-157.892
-157.505
-157.111
-156.71
-156.305
-155.887
-155.447
-154.971
-154.437
-153.826
-153.118
-152.276
15698
15693.8
15696.4
15704.4
15718.3
15736.1
15738.3
15747.9
15762.5
15787.6
15825.3
15548.2
10338.5
8023.93
4788.25
402.516
-157.86
-152.538
-158.621
-159.631
-160.733
-161.825
-162.813
-163.668
-164.403
-165.037
-165.586
-166.066
-166.491
-166.864
-167.19
-167.469
-167.701
-167.888
-168.03
-168.131
-168.19
-168.207
-168.179
-168.108
-167.992
-167.831
-167.629
-167.39
-167.116
-166.815
-166.495
-166.159
-165.811
-165.454
-165.092
-164.725
-164.356
-163.975
-163.573
-163.137
-162.641
-162.065
-161.387
-160.572
15684.9
15686
15684.7
15686.7
15695.5
15705.3
15701.7
15719.1
15734.6
15754.5
15803.7
13626.4
8845.67
6337.55
2645.2
-655.375
-179.524
-166.484
-167.593
-168.354
-169.265
-170.18
-171.013
-171.75
-172.397
-172.964
-173.462
-173.902
-174.293
-174.639
-174.944
-175.208
-175.432
-175.616
-175.762
-175.872
-175.943
-175.975
-175.965
-175.913
-175.817
-175.677
-175.499
-175.284
-175.035
-174.759
-174.464
-174.155
-173.834
-173.508
-173.179
-172.846
-172.512
-172.17
-171.807
-171.411
-170.957
-170.421
-169.781
-169.002
15672.8
15675.1
15673.4
15672
15673.3
15674.2
15680.6
15695.4
15709.2
15733.8
15525.9
10268.1
7765.57
4723.4
650.69
-242.509
-168.52
-176.127
-176.328
-176.958
-177.728
-178.499
-179.213
-179.86
-180.439
-180.955
-181.415
-181.823
-182.187
-182.511
-182.799
-183.051
-183.269
-183.452
-183.602
-183.72
-183.802
-183.848
-183.855
-183.822
-183.745
-183.629
-183.474
-183.284
-183.061
-182.812
-182.543
-182.26
-181.969
-181.673
-181.375
-181.076
-180.777
-180.472
-180.149
-179.794
-179.383
-178.893
-178.298
-177.564
15661.5
15665.7
15662.5
15661.1
15661.1
15661.9
15665.6
15676.4
15687.3
15727.5
13760.4
9108.06
6562.96
3041.06
-598.011
-171.726
-183.73
-184.471
-184.876
-185.479
-186.154
-186.82
-187.449
-188.031
-188.561
-189.039
-189.47
-189.855
-190.198
-190.505
-190.78
-191.024
-191.236
-191.418
-191.57
-191.693
-191.784
-191.841
-191.862
-191.846
-191.788
-191.693
-191.562
-191.396
-191.2
-190.978
-190.736
-190.481
-190.218
-189.951
-189.683
-189.415
-189.151
-188.881
-188.595
-188.281
-187.915
-187.474
-186.935
-186.257
15639.2
15651.1
15650.7
15649.7
15649.4
15649.8
15653
15661.7
15674.3
15464.4
10699
8222.27
5177.22
1259.7
-442.123
-199.45
-193.212
-193.139
-193.465
-194
-194.595
-195.187
-195.755
-196.291
-196.786
-197.237
-197.648
-198.015
-198.344
-198.641
-198.906
-199.142
-199.351
-199.531
-199.683
-199.808
-199.903
-199.967
-200
-199.997
-199.956
-199.88
-199.771
-199.63
-199.459
-199.264
-199.049
-198.821
-198.585
-198.346
-198.105
-197.867
-197.634
-197.396
-197.145
-196.87
-196.549
-196.163
-195.689
-195.083
15623.9
15633.8
15637.3
15637.9
15637.8
15638.7
15641.9
15654.5
15673
13466.2
9622.88
7048.47
3585.49
-265.039
-193.403
-197.051
-201.58
-201.646
-202.049
-202.554
-203.095
-203.636
-204.164
-204.667
-205.137
-205.57
-205.964
-206.319
-206.639
-206.929
-207.187
-207.418
-207.624
-207.801
-207.951
-208.076
-208.173
-208.241
-208.28
-208.288
-208.261
-208.202
-208.112
-207.993
-207.846
-207.676
-207.488
-207.286
-207.076
-206.862
-206.646
-206.434
-206.228
-206.019
-205.798
-205.558
-205.281
-204.952
-204.555
-204.043
15614.6
15620.6
15624.4
15626.1
15626.8
15628.8
15631.8
15639.7
15305.1
11026.2
8663.09
5585.5
1791.83
-609.529
-222.459
-208.573
-210.027
-210.304
-210.709
-211.185
-211.69
-212.2
-212.7
-213.18
-213.632
-214.051
-214.433
-214.778
-215.091
-215.374
-215.628
-215.855
-216.056
-216.231
-216.379
-216.503
-216.6
-216.67
-216.714
-216.731
-216.715
-216.669
-216.596
-216.497
-216.371
-216.225
-216.061
-215.884
-215.698
-215.506
-215.313
-215.123
-214.939
-214.753
-214.557
-214.347
-214.109
-213.836
-213.525
-213.138
15603.7
15609.6
15612.4
15614.8
15616.2
15618.9
15625.5
15642
12664.9
10066
7337.28
3879.08
4.78917
-203.069
-215.059
-218.969
-218.89
-219.113
-219.486
-219.933
-220.411
-220.899
-221.38
-221.843
-222.281
-222.688
-223.061
-223.397
-223.702
-223.979
-224.227
-224.447
-224.643
-224.817
-224.966
-225.092
-225.191
-225.263
-225.31
-225.33
-225.323
-225.289
-225.23
-225.148
-225.041
-224.915
-224.773
-224.618
-224.453
-224.281
-224.107
-223.936
-223.769
-223.6
-223.424
-223.235
-223.028
-222.801
-222.574
-222.357
15592.3
15598.4
15600.9
15604.4
15606.6
15609.2
15633.7
14519.1
11254.8
8844.68
5692.61
1979.92
-642.009
-239.014
-227.663
-228.054
-227.858
-228.047
-228.396
-228.821
-229.281
-229.753
-230.219
-230.668
-231.094
-231.491
-231.854
-232.182
-232.478
-232.746
-232.987
-233.206
-233.401
-233.574
-233.723
-233.848
-233.948
-234.023
-234.076
-234.103
-234.101
-234.074
-234.025
-233.954
-233.863
-233.754
-233.631
-233.495
-233.348
-233.194
-233.037
-232.88
-232.725
-232.568
-232.404
-232.23
-232.039
-231.837
-231.662
-231.646
15581.4
15587.4
15589.6
15594.5
15599
15590.4
15349.4
12318.2
10090.4
7242.59
3817.62
91.7676
-197.568
-232.769
-237.386
-236.979
-236.907
-237.109
-237.455
-237.87
-238.318
-238.776
-239.23
-239.666
-240.08
-240.466
-240.818
-241.136
-241.423
-241.683
-241.923
-242.141
-242.335
-242.506
-242.654
-242.779
-242.881
-242.959
-243.015
-243.046
-243.05
-243.032
-242.995
-242.934
-242.85
-242.751
-242.64
-242.519
-242.388
-242.25
-242.106
-241.96
-241.813
-241.665
-241.509
-241.34
-241.154
-240.948
-240.742
-240.582
15571.3
15577.2
15578.5
15583.1
15593.4
15565.6
13261
11098.1
8518.56
5362.99
1806.55
-606.548
-255.476
-245.584
-246.256
-246.023
-246.081
-246.328
-246.684
-247.097
-247.535
-247.979
-248.419
-248.844
-249.246
-249.618
-249.958
-250.265
-250.543
-250.801
-251.039
-251.255
-251.447
-251.617
-251.764
-251.89
-251.992
-252.072
-252.131
-252.165
-252.176
-252.165
-252.136
-252.084
-252.011
-251.921
-251.818
-251.703
-251.58
-251.452
-251.32
-251.182
-251.042
-250.899
-250.747
-250.581
-250.393
-250.172
-249.907
-249.552
15554.7
15566.7
15567.6
15572.7
15565.7
14038.8
11889.2
9518.53
6638.29
3337.52
-84.1369
-198.225
-250.554
-255.472
-255.291
-255.266
-255.433
-255.73
-256.103
-256.513
-256.939
-257.368
-257.793
-258.205
-258.594
-258.95
-259.275
-259.573
-259.848
-260.101
-260.336
-260.549
-260.739
-260.907
-261.055
-261.181
-261.283
-261.364
-261.426
-261.463
-261.479
-261.475
-261.452
-261.408
-261.344
-261.264
-261.169
-261.061
-260.944
-260.819
-260.687
-260.553
-260.418
-260.279
-260.128
-259.964
-259.779
-259.555
-259.273
-258.875
15535.6
15553
15555.6
15555.3
14298.7
12388
10237.9
7633.64
4596.49
1262.08
-511.975
-273.872
-263.741
-264.765
-264.637
-264.746
-264.999
-265.337
-265.721
-266.127
-266.541
-266.953
-267.361
-267.756
-268.127
-268.467
-268.779
-269.071
-269.341
-269.589
-269.82
-270.029
-270.216
-270.384
-270.531
-270.657
-270.76
-270.842
-270.904
-270.944
-270.965
-270.967
-270.949
-270.911
-270.855
-270.783
-270.697
-270.597
-270.486
-270.367
-270.239
-270.103
-269.962
-269.82
-269.67
-269.51
-269.333
-269.127
-268.884
-268.59
15482.3
15542.3
15525.3
14286.7
12682.5
10655.6
8318.93
5561.66
2490.03
-384.991
-232.895
-273.345
-274.831
-274.348
-274.283
-274.475
-274.787
-275.151
-275.54
-275.94
-276.34
-276.736
-277.125
-277.499
-277.849
-278.173
-278.476
-278.76
-279.023
-279.267
-279.493
-279.697
-279.882
-280.048
-280.195
-280.32
-280.423
-280.506
-280.569
-280.611
-280.636
-280.642
-280.628
-280.595
-280.546
-280.483
-280.404
-280.311
-280.208
-280.095
-279.974
-279.845
-279.709
-279.563
-279.404
-279.241
-279.072
-278.895
-278.715
-278.561
13467.9
15164.2
14201.7
12816.8
10923.8
8831.65
6374.68
3552.16
419.526
-286.724
-287.5
-285.811
-284.647
-284.207
-284.242
-284.49
-284.823
-285.191
-285.573
-285.959
-286.342
-286.721
-287.089
-287.438
-287.767
-288.078
-288.371
-288.645
-288.901
-289.14
-289.36
-289.559
-289.74
-289.904
-290.049
-290.172
-290.274
-290.358
-290.422
-290.467
-290.494
-290.502
-290.492
-290.465
-290.422
-290.364
-290.292
-290.208
-290.112
-290.007
-289.894
-289.773
-289.647
-289.51
-289.363
-289.208
-289.048
-288.89
-288.743
-288.625
123418
128504
128471
128415
128333
128220
128069
127869
127607
127264
126813
126217
125426
124364
122916
120900
118005
113639
106436
93087.3
113239
118310
118273
118210
118120
117995
117829
117611
117325
116952
116463
115817
114959
113802
112215
109986
106739
101754
93624.4
78920.1
103088
108143
108103
108035
107937
107804
107626
107394
107092
106700
106188
105516
104627
103438
101821
99581.8
96404.9
91779.4
84873.8
74099.1
92965.8
98005.4
97962.1
97890.9
97788.1
97648.1
97463.2
97222.6
96911.6
96510.2
95991.2
95316.6
94433.6
93267.9
91713.7
89618.4
86760.4
82820.8
77347.3
69795.7
82874.8
87898.2
87853.3
87779.7
87673.8
87530.2
87341.4
87097.4
86784.2
86383.5
85870.5
85211.6
84361.5
83259.3
81822.2
79939.8
77465
74207.4
69942.1
64515
72815.8
77822.8
77777.3
77702.6
77595.4
77450.7
77261.5
77018.3
76708.7
76316
75818.7
75188.3
74387.8
73369
72070.4
70414.7
68307.6
65640.2
62304.6
58242.3
62789
67779.9
67734.5
67660
67553.3
67409.7
67222.8
66984
66682.1
66302.7
65827.2
65232.4
64488.6
63558.9
62398.3
60953.8
59165.4
56970.3
54314
51171.4
52794
57769.5
57725
57652
57547.3
57406.6
57224.3
56992.4
56701.1
56337.9
55887.4
55330.5
54643.9
53799.7
52764.9
51503.3
49976.3
48146.9
45985.8
43482.3
42829.9
47791
47748.5
47678.3
47577
47440.8
47264.5
47041.2
46762.1
46416.5
45991.6
45472
44839.3
44071.8
43145.5
42035.2
40716.5
39167
37370
35319.4
32894.3
37843.4
37804.6
37738.6
37641.7
37511
37341.9
37128.1
36862
36534.2
36134.4
35650.1
35066
34364.8
33528.4
32539.7
31384.1
30048.7
28522.8
26798.8
22981.7
27925
27893.4
27833
27740.9
27616.6
27455.7
27252.1
26999.4
26690
26315.9
25866.6
25328.7
24686
23922.9
23029
21997.5
20821.2
19488.4
17983.5
13073
18035.5
18017.1
17961.1
17875
17758.9
17606.1
17411.8
17170.6
16876.4
16522.1
16098.5
15590.9
14976.8
14243.1
13392.9
12423.5
11336.5
10124.5
8758.96
3072.54
8181.32
8177.42
8118.47
8035.68
7918.97
7762.52
7565.73
7324.83
7032
6680.98
6264.95
5768.03
5156.87
4436.22
3644.87
2841.1
2081.65
1412.71
878.715
-433.147
184.592
185.881
161.562
128.41
76.3731
9.61378
-62.882
-134.811
-202.656
-272.456
-346.275
-424.608
-428.59
-429.034
-429.416
-429.513
-428.504
-421.057
-420.223
-439.804
-433.313
-433.457
-433.572
-433.638
-433.678
-433.694
-433.673
-433.62
-433.598
-433.675
-433.874
-434.224
-434.916
-435.088
-435.124
-435.042
-434.766
-434.171
-434.144
-448.975
-443.748
-443.797
-443.821
-443.833
-443.839
-443.831
-443.812
-443.802
-443.821
-443.855
-443.852
-443.81
-443.895
-443.977
-444.038
-444.068
-444.06
-443.997
-443.993
-458.676
-453.705
-453.71
-453.709
-453.707
-453.702
-453.692
-453.679
-453.674
-453.682
-453.696
-453.701
-453.694
-453.708
-453.739
-453.772
-453.795
-453.803
-453.797
-453.796
-468.486
-463.544
-463.539
-463.539
-463.538
-463.535
-463.53
-463.524
-463.522
-463.526
-463.533
-463.537
-463.537
-463.542
-463.554
-463.57
-463.586
-463.597
-463.604
-463.611
-478.314
-473.374
-473.372
-473.372
-473.371
-473.37
-473.367
-473.365
-473.365
-473.367
-473.371
-473.374
-473.376
-473.379
-473.386
-473.397
-473.409
-473.421
-473.432
-473.444
-488.161
-483.218
-483.213
-483.21
-483.209
-483.208
-483.206
-483.206
-483.206
-483.208
-483.211
-483.214
-483.217
-483.221
-483.227
-483.237
-483.249
-483.263
-483.277
-483.293
-498.006
-493.066
-493.055
-493.051
-493.049
-493.048
-493.048
-493.048
-493.049
-493.051
-493.054
-493.058
-493.062
-493.068
-493.076
-493.087
-493.101
-493.116
-493.134
-493.154
-507.827
-502.901
-502.893
-502.891
-502.89
-502.89
-502.89
-502.891
-502.893
-502.896
-502.9
-502.905
-502.911
-502.919
-502.929
-502.942
-502.958
-502.976
-502.997
-503.02
-517.619
-512.722
-512.725
-512.728
-512.73
-512.731
-512.732
-512.733
-512.736
-512.741
-512.746
-512.752
-512.76
-512.77
-512.783
-512.797
-512.815
-512.837
-512.861
-512.887
-527.379
-522.538
-522.557
-522.566
-522.569
-522.571
-522.573
-522.575
-522.578
-522.583
-522.589
-522.597
-522.607
-522.619
-522.634
-522.652
-522.673
-522.697
-522.724
-522.754
40944.8
40827
39710.1
39355.3
41962.1
47101
53801.9
60890.8
67181.1
71683.9
73709.4
72890.7
68894.9
60904.2
46195.6
49308.4
34532.9
29710.8
29200
31383.2
35915.5
42038.7
48630.1
54520.1
58720.2
60566.9
59708
55911.5
48872.3
38426.7
58576
39651.3
28582.3
24375.8
24739.5
28233.4
33541.2
39337.9
44437.1
47940.4
49322.5
48380.7
45106.9
39640.2
32433.2
60335.5
48204
37891.8
31227.4
28422.7
28794.7
31329.5
34652.1
37623.8
39497.4
39868.5
38599.6
35728.2
31431.9
26073
57823
49885.1
42480.6
36689.1
32972.6
31255
31109
31751
32419.8
32578.1
31884.4
30171.8
27416.9
23723.2
19332.8
53362.7
47637
42063
37241.5
33511.5
30923.6
29301.8
28270.2
27400.2
26321.7
24770.8
22596.5
19756.1
16308.3
12404
47479.2
43136
38756.4
34686.8
31159.9
28269.2
25926.5
23957.7
22121.6
20188.3
17984
15399
12381
8946.68
5259.07
40581.4
37158.6
33612
30139.8
26899.6
23953.3
21275.8
18781.9
16350.4
13852.7
11173.6
8230.05
5041.12
1951.24
228.106
32963.1
30173.7
27222
24216.3
21239.4
18337.4
15518.5
12751.2
9970.18
7101.06
4184.62
1562.62
130.765
-406.279
-367.135
24822.6
22464.7
19916
17229.6
14452.3
11625.7
8781.73
5913.53
3145.11
998.299
-152.691
-391.194
-381.362
-384.482
-384.688
16239.7
14126.9
11819.3
9332.36
6741.94
4123.38
1838.75
522.676
-418.699
-393.93
-389.591
-394.307
-394.936
-394.479
-394.127
7174.77
5272.04
3310.87
1607.26
547.696
-377.731
-424.038
-397.683
-403.348
-405.392
-404.651
-404.306
-404.207
-404.104
-403.976
265.947
-313.431
-433.711
-414.323
-409.918
-412.746
-415.742
-414.968
-414.517
-414.412
-414.226
-414.121
-414.039
-413.956
-413.873
-421.624
-422.84
-425.688
-425.032
-424.899
-424.634
-424.493
-424.324
-424.222
-424.151
-424.063
-423.988
-423.922
-423.86
-423.802
-434.418
-434.294
-434.267
-434.278
-434.251
-434.226
-434.168
-434.102
-434.039
-433.984
-433.93
-433.88
-433.833
-433.79
-433.751
-444.04
-444.033
-444.022
-444.017
-444.001
-443.983
-443.954
-443.922
-443.888
-443.855
-443.822
-443.791
-443.762
-443.736
-443.712
-453.807
-453.811
-453.811
-453.811
-453.809
-453.804
-453.794
-453.78
-453.765
-453.749
-453.732
-453.716
-453.7
-453.685
-453.673
-463.62
-463.629
-463.637
-463.645
-463.652
-463.658
-463.66
-463.661