/*--------------------------------*- C++ -*----------------------------------*\
| =========                 |                                                 |
| \\      /  F ield         | OpenFOAM: The Open Source CFD Toolbox           |
|  \\    /   O peration     | Version:  v1912                                 |
|   \\  /    A nd           | Website:  www.openfoam.com                      |
|    \\/     M anipulation  |                                                 |
\*---------------------------------------------------------------------------*/
FoamFile
{
    version     2.0;
    format      ascii;
    class       volScalarField;
    location    "26";
    object      p_rgh;
}
// * * * * * * * * * * * * * * * * * * * * * * * * * * * * * * * * * * * * * //

dimensions      [1 -1 -2 0 0 0 0];


internalField   nonuniform List<scalar> 
20320
(
434750
434826
434853
434906
434978
435067
435170
435285
435409
435540
435674
435808
435939
436064
436180
436284
436375
436450
436508
436546
434637
434736
434772
434827
434900
434989
435093
435209
435334
435465
435599
435733
435864
435989
436105
436208
436296
436368
436419
436452
434412
434552
434588
434644
434717
434807
434911
435027
435152
435283
435417
435550
435680
435804
435918
436021
436108
436178
436229
436261
434103
434283
434319
434374
434446
434536
434639
434754
434878
435008
435141
435273
435401
435523
435635
435735
435821
435892
435944
435979
433721
433936
433971
434025
434097
434185
434286
434400
434522
434650
434781
434911
435038
435157
435266
435364
435449
435519
435571
435609
433277
433521
433555
433608
433678
433764
433863
433974
434093
434219
434347
434474
434598
434714
434821
434915
434998
435067
435119
435158
432780
433049
433082
433133
433200
433283
433378
433485
433601
433722
433846
433969
434088
434201
434303
434394
434473
434540
434591
434630
432240
432528
432560
432608
432672
432750
432841
432943
433052
433167
433285
433402
433515
433621
433718
433803
433878
433942
433990
434029
431666
431969
431998
432043
432102
432175
432259
432353
432455
432561
432669
432777
432881
432978
433066
433144
433212
433270
433314
433351
431067
431381
431407
431447
431500
431566
431641
431725
431815
431910
432005
432100
432190
432274
432349
432415
432472
432521
432559
432592
430453
430772
430794
430829
430875
430931
430995
431066
431141
431219
431297
431373
431443
431507
431563
431610
431651
431687
431714
431739
429832
430151
430170
430198
430234
430278
430328
430383
430439
430495
430549
430599
430642
430677
430703
430722
430737
430752
430763
430774
429212
429528
429541
429562
429587
429618
429650
429684
429716
429745
429768
429782
429786
429780
429763
429739
429714
429694
429678
429665
428602
428910
428918
428929
428942
428956
428969
428978
428981
428976
428958
428926
428878
428813
428733
428644
428556
428480
428419
428363
428008
428304
428306
428308
428307
428303
428293
428275
428243
428196
428129
428038
427920
427775
427605
427418
427230
427061
426922
426793
427438
427719
427714
427705
427690
427667
427632
427582
427513
427418
427291
427128
426922
426670
426372
426038
425690
425365
425087
424823
426895
427159
427148
427128
427098
427055
426994
426912
426800
426653
426460
426212
425898
425509
425038
424490
423890
423291
422752
422227
426385
426629
426612
426582
426537
426474
426388
426272
426119
425916
425653
425312
424875
424320
423628
422783
421794
420713
419652
418564
425911
426134
426111
426071
426013
425931
425820
425673
425478
425223
424889
424453
423886
423150
422197
420973
419427
417539
415388
412905
425474
425676
425647
425599
425528
425429
425297
425121
424890
424586
424188
423664
422974
422059
420838
419193
416955
413881
409603
403360
115973
115969
115225
114015
112403
110536
108632
107094
106702
107763
102072
78344.9
69811.7
67803.8
67054.2
67041
67174.9
67054.8
66428.6
66360.1
66896.8
97749
292452
295040
232547
173829
126912
92257.5
68445.4
52965.6
43291.2
37430.7
33976.8
31977.5
30925.2
30400.5
30201.4
30186
30265.3
30384.8
30513.1
30632.8
30734.2
30818.6
30894.1
30970.8
31055.9
31157.7
31286.3
31445.1
31629.6
31831.6
32032.9
32218.7
32385.5
32524.5
32619
32663.4
32674.2
32641.6
115934
115806
115048
113852
112359
110638
108904
107492
106945
107229
102826
79846.7
68729.3
65375.4
64563.6
63711.3
63262.4
62980.1
62936.1
63085.7
63486.2
67170.6
205009
244172
209431
162261
120509
88552.1
66273.1
51705.3
42584.3
37065.1
33852.3
31948.6
30954.9
30479.3
30313.2
30321.5
30416.9
30544.2
30670.7
30782.5
30871.7
30940.9
31000.9
31063.6
31139
31235.4
31362.1
31521.3
31706.4
31909
32113.1
32301.7
32469.3
32608.7
32702.8
32749.8
32761.7
32719.5
116025
115905
114433
113834
112490
110847
109199
107750
106756
106030
102933
85873.1
74568.7
65507.8
64734.8
63834.6
63396.7
63018.4
62948.7
63059.5
63358.2
65169.8
189378
208062
187136
149195
112256
83103.4
62723.7
49484.7
41259.7
36307.3
33403.3
31769.6
30910.3
30515.8
30398.4
30436.6
30549.9
30685.5
30811.6
30919.1
30999.1
31055.4
31102.3
31153.4
31219.5
31309.4
31432.5
31591.3
31776.8
31982.7
32194.5
32389.3
32559.2
32697.4
32795.2
32853.9
32867.8
32799.6
116945
116242
114162
114419
112693
111048
109560
108034
106673
105274
102270
92628.6
80674.1
69013.9
73378.2
72590.2
64005.7
63030.7
62923.9
62986.5
63120.1
73597.4
164810
177524
163664
132925
100595
74709
56934.9
45699.6
38887.4
34872.3
32567.4
31298.3
30658
30395.9
30359.2
30447.7
30593.2
30747.8
30879.6
30992.8
31071.2
31118.6
31156.1
31200.1
31258.8
31341.6
31460.4
31620.8
31809.5
32024.4
32251.2
32453.8
32628.8
32770.8
32876
32951
32974.9
32884.9
117609
113487
116208
114500
112288
111143
109722
108447
106881
105119
102106
97312.2
86999.5
84031
62832.8
61980.8
66504.1
62730.9
62851
62896.1
63101.5
98874.4
137308
148330
138215
112811
84869.6
62912.3
48645.7
40191.1
35361.5
32674.4
31223.9
30499.8
30181.5
30118.5
30207.1
30375
30572.4
30760.4
30901.1
31031.4
31115.8
31155.3
31184.5
31225.9
31278.9
31352.5
31464.2
31628
31820
32048.6
32302.4
32512
32693.2
32840.6
32953.4
33053.2
33104.3
32995.4
118364
116559
116720
115482
114147
110606
108433
108997
107351
105613
95204.4
88699.9
92709
70071.1
86072.9
76607.8
62176.5
62531.8
62748.4
62848.4
67277.7
101355
115557
121796
112053
89488.7
64980.7
46822.8
37030.3
32557
30347.4
29229
28710.7
28564.1
28739.7
29107.4
29586.8
30238.7
30523.1
30764.6
30892.3
31063.5
31160
31178.3
31188
31229.1
31270.8
31321.1
31415.8
31596.9
31789.1
32049.1
32369.9
32575.3
32765
32915.3
33031
33180.4
33288.5
33145.3
119383
117779
117020
116197
114791
113260
111653
107733
107990
106445
96428.8
101301
91870.3
65216.5
88186.2
64179.9
62128.9
62457.7
62614.5
62832.6
92782.5
94425.4
98929.9
98873
86800.1
63250
35323.2
11795.1
79.8639
51.9775
34.3767
22.6163
14.5344
8.85503
4.96837
1.52541
1.52454
57.0299
254.782
561.166
843.551
1156.24
1172.64
1102.01
1028.42
1030.38
1079.43
1270.31
1713.15
2499.67
3577.23
5259.61
7683.49
9297
11620.5
12219.1
11659.4
13896.1
18018.8
13859.2
120456
115723
118096
116909
115506
113980
112377
110430
105105
106276
106249
104290
94503.8
76714.1
77196.9
61015.6
61777.9
62594.9
62680.6
79682.5
92690.5
88418.6
86034.3
80052.8
63036.9
12967.4
119.826
94.5793
73.8865
55.823
40.9932
29.0956
19.9358
13.0062
7.77513
3.6467
0.280573
-2.85522
-3.45861
-3.03537
-2.94702
-2.88371
-2.74424
-2.48088
-2.13542
-1.764
-1.3442
-0.864963
-0.318813
0.236529
0.801685
1.33124
1.73503
2.30464
2.92425
3.62304
3.98454
1.92151
6.94339
9.90243
121622
112523
118873
117547
116287
114757
113228
111527
109865
102295
107171
106338
105674
103094
78470.7
61283.7
61736.7
63731.5
60145
99591
90642.7
83375.6
76148.5
64918
11633.8
105.097
100.559
80.9805
62.9676
47.7257
35.2383
25.2301
17.425
11.4352
6.88257
3.36287
0.381018
-2.14011
-3.30423
-3.43838
-3.37233
-3.24048
-3.02266
-2.71496
-2.32385
-1.89157
-1.41686
-0.897738
-0.335012
0.233457
0.797144
1.33261
1.79408
2.34113
2.94669
3.61644
4.14885
4.12729
6.59633
9.02269
121040
113557
119742
118423
117147
112783
109926
111781
110359
96910.1
107740
107801
107501
105587
71812.7
57363.3
61991.8
61402.8
95125
98524.9
88902.6
79260.1
68720.3
33036.8
101.912
88.8346
80.4059
65.3603
51.9444
40.0062
29.9239
21.6594
15.0635
9.89644
5.90028
2.78708
0.244917
-1.84782
-3.08684
-3.52071
-3.57434
-3.4622
-3.2481
-2.9544
-2.58856
-2.17632
-1.71904
-1.2128
-0.661212
-0.0864602
0.491699
1.05425
1.5826
2.15312
2.77195
3.43563
4.04734
4.56824
6.31519
8.20324
123282
121547
116628
119648
113725
106009
115604
113741
112078
110750
106462
86332.2
108458
103915
60912.9
56636
58796.8
58311.1
108177
98000.1
87313.9
76022.6
62786.6
106.168
64.8485
67.6569
60.7807
51.1652
41.3325
32.2209
24.3039
17.6756
12.2764
7.96958
4.59126
1.94576
-0.183908
-1.90709
-3.06514
-3.61623
-3.76301
-3.69435
-3.50116
-3.2207
-2.87334
-2.47794
-2.03317
-1.53572
-0.991104
-0.416123
0.172203
0.757228
1.32781
1.92408
2.55826
3.23116
3.90783
4.64679
5.9994
7.48551
125427
122727
110868
120468
107439
118706
115497
107238
113284
111698
109840
76592.4
91117.6
58100
75879
54858.6
57087.4
103634
107833
97457.3
85935.8
73276
9701.3
43.2833
50.9638
49.6158
45.368
38.8949
31.7736
24.9496
18.8667
13.6672
9.35266
5.85879
3.08798
0.906012
-0.837712
-2.23341
-3.23209
-3.7837
-3.97816
-3.94804
-3.77571
-3.50918
-3.17616
-2.79157
-2.35413
-1.86272
-1.32313
-0.748806
-0.154429
0.446973
1.04476
1.66175
2.30995
2.99451
3.70966
4.51334
5.63536
6.84522
126436
118911
120395
119085
121401
113498
106108
107272
109952
107467
111792
89620.8
92390.3
48445.9
77111.7
52956.4
53799.3
117856
107885
96901.8
84787
61912.6
37.6842
36.6999
37.56
36.2594
33.2344
28.69
23.5377
18.4755
13.8663
9.85491
6.47549
3.70756
1.49535
-0.253917
-1.64488
-2.74886
-3.56194
-4.04971
-4.24716
-4.2338
-4.07586
-3.82008
-3.49602
-3.11582
-2.681
-2.19342
-1.65822
-1.08635
-0.489178
0.121101
0.735355
1.36628
2.02388
2.71585
3.44593
4.2558
5.23691
6.2654
118707
114176
123881
119228
116284
108364
120778
118902
117049
103141
101391
111426
64636.9
46102.4
69626.9
50781.8
94767.8
117442
107726
96460.2
83680.3
5261.66
29.6759
28.72
27.519
26.1282
23.7337
20.4172
16.6578
12.9103
9.44491
6.38707
3.78265
1.6336
-0.091818
-1.45784
-2.53793
-3.38652
-4.01685
-4.41035
-4.57554
-4.55658
-4.40063
-4.14839
-3.82637
-3.44628
-3.01111
-2.52577
-1.99507
-1.42719
-0.830698
-0.218579
0.403417
1.04183
1.70333
2.39693
3.12935
3.92509
4.81777
5.73525
119520
126585
115620
122231
108894
123906
122594
120582
118515
69803.9
69056.8
111039
36625.6
38343.7
77448.8
49489.5
123590
117366
107640
96262.2
64765.7
23.2975
23.438
21.4632
19.8684
18.3487
16.3459
13.8316
11.0428
8.25571
5.65512
3.34315
1.36075
-0.280711
-1.60027
-2.64129
-3.45665
-4.08757
-4.55053
-4.83917
-4.95105
-4.90807
-4.74235
-4.48602
-4.16076
-3.77763
-3.34198
-2.8588
-2.33281
-1.77018
-1.17861
-0.569497
0.0536954
0.693328
1.35444
2.04473
2.77235
3.54963
4.38858
5.24603
130498
127371
95345.6
115709
123062
125457
124619
123100
120697
105309
32197.8
115880
62225.5
37075.3
62658.3
42984.5
125710
117627
107934
96184.9
5970.72
20.7017
18.0569
15.6535
13.9328
12.3784
10.6423
8.66188
6.54645
4.45068
2.49466
0.753137
-0.743044
-1.98134
-2.97362
-3.74923
-4.34661
-4.79688
-5.11491
-5.30119
-5.35107
-5.2737
-5.0902
-4.82421
-4.49243
-4.10515
-3.66935
-3.1895
-2.66835
-2.11285
-1.52913
-0.926103
-0.307277
0.328268
0.984013
1.66674
2.38547
3.1469
3.95522
4.78741
131822
111650
120320
110335
127439
126974
126747
125888
124066
119637
25178.9
29905
38720.2
54787.9
39183.6
118001
126186
118432
108660
85423.2
14.5179
15.9221
13.3056
11.0634
9.33279
7.80648
6.2695
4.65719
3.00975
1.40855
-0.0732862
-1.38754
-2.51249
-3.43772
-4.17349
-4.73946
-5.16288
-5.46777
-5.66632
-5.76187
-5.7505
-5.63625
-5.43169
-5.15385
-4.81459
-4.42313
-3.98761
-3.51217
-2.99725
-2.45027
-1.87671
-1.2829
-0.672951
-0.0470044
0.598809
1.27121
1.97871
2.72715
3.52021
4.34828
133499
130644
129128
79341.5
128699
128365
128702
129336
128057
125715
23550.5
22849
24786.5
53690.5
31550.5
134962
127551
119700
109632
13045.6
16.1344
12.2931
9.55765
7.47204
5.78491
4.32241
2.94655
1.59703
0.279964
-0.966623
-2.10382
-3.10283
-3.94998
-4.63927
-5.17942
-5.58486
-5.8743
-6.06685
-6.17217
-6.19257
-6.1278
-5.97938
-5.75425
-5.46511
-5.1189
-4.72451
-4.29037
-3.82022
-3.31332
-2.77717
-2.21625
-1.63464
-1.0384
-0.426483
0.205675
0.864899
1.55978
2.2974
3.08294
3.91944
134727
83864.5
57323.7
116109
129824
74798.5
35474.1
76460.4
118766
129974
46795.3
22794.4
23090.3
27319
71733.9
135686
129397
121438
111360
36.9009
12.3517
9.31614
6.67692
4.6835
3.06363
1.68857
0.452539
-0.698731
-1.77644
-2.76912
-3.65832
-4.42897
-5.07363
-5.58984
-5.98583
-6.27302
-6.46415
-6.57382
-6.60924
-6.57234
-6.46507
-6.28879
-6.04639
-5.74755
-5.3962
-5.00167
-4.5713
-4.10746
-3.61104
-3.08851
-2.54274
-1.97806
-1.39921
-0.80451
-0.190048
0.453358
1.13418
1.86115
2.64346
3.49268
135785
74172.2
123411
134105
40320.2
15971.7
15994.2
16040.9
16188.4
77190
113644
22486.7
20844.1
25564.5
127132
137387
131518
123564
36260.9
7.2826
10.0732
6.7271
4.38988
2.51596
0.994426
-0.277894
-1.38457
-2.37866
-3.28021
-4.08987
-4.80172
-5.41008
-5.91046
-6.30376
-6.59768
-6.80154
-6.92455
-6.97656
-6.96287
-6.88591
-6.74896
-6.55211
-6.29774
-5.99253
-5.63932
-5.24804
-4.82419
-4.36886
-3.88577
-3.37996
-2.85231
-2.30772
-1.75011
-1.17629
-0.583077
0.0408273
0.70555
1.42169
2.20112
3.06313
16171.3
85166.5
49317
20502.1
15949.1
15960.6
15979.5
16012
16042.3
16088.5
53547.8
78375.2
22803.9
23194.3
144239
139819
134127
126253
86.4789
7.37411
6.96717
4.59459
2.54837
0.835694
-0.558807
-1.71479
-2.70104
-3.56678
-4.33507
-5.01142
-5.59811
-6.09262
-6.49275
-6.80245
-7.0278
-7.17607
-7.25469
-7.26967
-7.22509
-7.12435
-6.96953
-6.76036
-6.5001
-6.19371
-5.84322
-5.45831
-5.04346
-4.60052
-4.13402
-3.64752
-3.14103
-2.6194
-2.0863
-1.53755
-0.968789
-0.3679
0.277648
0.981033
1.7557
2.62671
17964.2
15938.4
15892.2
15898.9
15932.8
15950.7
15969.2
15995.8
16039.3
16081.5
16224.9
16738.5
17543.6
97198.6
147880
143123
137298
97256.1
-1.46581
8.44809
5.05204
2.93781
1.09786
-0.440444
-1.69465
-2.73031
-3.60555
-4.3647
-5.02965
-5.60818
-6.10625
-6.52205
-6.85472
-7.1102
-7.29215
-7.40648
-7.45915
-7.45407
-7.39437
-7.28348
-7.12163
-6.90859
-6.64902
-6.34658
-6.00345
-5.62837
-5.22585
-4.79918
-4.35213
-3.88711
-3.40519
-2.90985
-2.4043
-1.88432
-1.34282
-0.767998
-0.145019
0.541468
1.30748
2.18174
17290.6
16573
15898.1
15898
15917.6
15935.9
15951.8
15983
16044.4
16074.2
16199.8
16453.4
17146.7
150914
151700
146971
140964
16990.4
10.2567
5.51001
3.39477
1.59344
-0.0267089
-1.38247
-2.49216
-3.41109
-4.1871
-4.85701
-5.44035
-5.94609
-6.38038
-6.74209
-7.03102
-7.25263
-7.40971
-7.50659
-7.54783
-7.5361
-7.47362
-7.36321
-7.20383
-6.99521
-6.74251
-6.44891
-6.11728
-5.7558
-5.36986
-4.96244
-4.53683
-4.09573
-3.64136
-3.17573
-2.70125
-2.21255
-1.70144
-1.15625
-0.559148
0.106315
0.858277
1.72944
15863.9
15847.7
15876.9
15889.9
15906.1
15922.7
15934.2
15989.7
16011.3
16043.4
16133
16196.1
31361.8
157726
155565
151201
145867
24.7785
4.70977
3.68574
2.05996
0.516258
-0.877314
-2.04902
-3.01891
-3.82967
-4.51809
-5.1129
-5.63122
-6.08137
-6.46904
-6.7936
-7.05459
-7.2567
-7.40199
-7.49293
-7.53367
-7.52577
-7.46951
-7.36737
-7.21776
-7.02079
-6.78063
-6.5006
-6.18471
-5.84053
-5.47417
-5.08885
-4.68683
-4.27185
-3.84697
-3.41354
-2.97288
-2.5182
-2.04092
-1.52907
-0.961344
-0.321025
0.41201
1.27211
15867
15851
15863.3
15877.8
15893.6
15913.7
15919.7
15929
15944.4
16019.6
16022.7
16134.1
145027
163010
160288
155915
64232.9
-2.77769
3.56865
2.24717
0.993886
-0.308103
-1.48583
-2.48744
-3.33092
-4.0455
-4.65818
-5.19013
-5.65637
-6.06361
-6.41657
-6.7145
-6.95777
-7.14988
-7.29134
-7.3844
-7.43231
-7.43511
-7.39128
-7.30282
-7.1681
-6.9877
-6.76498
-6.50333
-6.20708
-5.88334
-5.53888
-5.17764
-4.80166
-4.41494
-4.02085
-3.62058
-3.21537
-2.79705
-2.35674
-1.8814
-1.34707
-0.736425
-0.0280836
0.813587
15890.5
15854.7
15857.4
15866.3
15879.2
16352.4
15899.2
15909.3
15923.5
15958.7
15986.2
15709.1
171268
168954
165718
161332
3894.86
8.39207
2.30888
1.29841
0.19701
-0.895825
-1.88382
-2.73859
-3.47349
-4.10709
-4.65622
-5.13657
-5.56098
-5.93452
-6.26085
-6.53919
-6.77121
-6.95826
-7.10059
-7.20093
-7.26008
-7.27707
-7.24928
-7.17849
-7.06205
-6.90088
-6.69939
-6.46009
-6.18633
-5.88573
-5.56514
-5.22926
-4.88088
-4.52414
-4.16209
-3.79538
-3.42606
-3.04541
-2.64369
-2.20728
-1.71102
-1.13536
-0.457683
0.357297
15893.9
15854.9
15853.8
15855.6
16023.6
16456.7
15870.6
15893.4
15903.5
15929
15972.7
140725
177755
175247
171555
156474
-10.6146
2.42555
1.31632
0.555519
-0.355098
-1.27009
-2.10337
-2.83996
-3.4871
-4.05452
-4.55267
-4.99248
-5.38304
-5.72942
-6.0346
-6.2982
-6.5221
-6.70672
-6.85291
-6.96214
-7.0334
-7.06562
-7.05553
-7.00384
-6.90721
-6.76765
-6.5896
-6.3744
-6.12504
-5.84981
-5.55476
-5.24507
-4.9249
-4.59864
-4.26953
-3.93675
-3.60291
-3.26025
-2.89787
-2.5019
-2.04742
-1.51176
-0.871776
-0.0920095
15854
15852.2
15850.5
15849
16350
16049.3
15857.6
15872.5
15893.5
15910.9
15702.9
187301
184799
181757
177684
33013.5
8.51372
0.906788
0.705506
0.0748967
-0.694577
-1.46568
-2.17955
-2.82664
-3.40598
-3.92189
-4.38137
-4.78997
-5.15369
-5.47771
-5.76564
-6.01811
-6.23584
-6.41901
-6.56914
-6.68635
-6.76892
-6.81507
-6.8218
-6.78849
-6.712
-6.59526
-6.44094
-6.25061
-6.02727
-5.7785
-5.51001
-5.22719
-4.93557
-4.63936
-4.34211
-4.04283
-3.74409
-3.43871
-3.11557
-2.76091
-2.35012
-1.85921
-1.26511
-0.530351
16153.3
15851.2
15847.8
15846.5
15846.4
15847.2
15850.9
15861.7
15879.1
15912.8
149340
194411
191866
188344
184705
13.5771
1.57271
0.831498
0.426338
-0.175896
-0.851427
-1.5176
-2.14635
-2.7279
-3.25791
-3.736
-4.16694
-4.55226
-4.89548
-5.20261
-5.47739
-5.72086
-5.93358
-6.11541
-6.26759
-6.39018
-6.48134
-6.53835
-6.55945
-6.54287
-6.48525
-6.3903
-6.25907
-6.09375
-5.89722
-5.67513
-5.43354
-5.17816
-4.91501
-4.64791
-4.38006
-4.11252
-3.84804
-3.57815
-3.29256
-2.97871
-2.61278
-2.17151
-1.63264
-0.954733
16199.9
15844.9
15844.4
15843.4
15843.1
15843.5
15846.7
15857
15869.9
15658.1
204419
201942
198897
194980
85841.4
-5.72986
0.507722
0.580836
0.254953
-0.280006
-0.875304
-1.46637
-2.03513
-2.5709
-3.06573
-3.51722
-3.92741
-4.29527
-4.62433
-4.92053
-5.18594
-5.42241
-5.63112
-5.81085
-5.96264
-6.08739
-6.18315
-6.24717
-6.27932
-6.27689
-6.23582
-6.1604
-6.05109
-5.90966
-5.73912
-5.54358
-5.32888
-5.10076
-4.86518
-4.62542
-4.38474
-4.14644
-3.91358
-3.6761
-3.42493
-3.14986
-2.82917
-2.44233
-1.96903
-1.3632
15830.5
15836.1
15839.6
15840.2
15840.1
15841
15844.2
15859.2
15875.3
180999
211911
209337
205874
202023
2483.79
5.23757
0.70846
0.642361
0.239085
-0.265355
-0.806439
-1.34776
-1.87545
-2.37909
-2.84892
-3.28166
-3.67586
-4.03064
-4.35079
-4.64029
-4.89886
-5.13008
-5.3354
-5.51278
-5.66288
-5.78752
-5.88474
-5.95223
-5.99162
-5.99984
-5.97277
-5.9137
-5.82403
-5.70489
-5.55809
-5.38806
-5.19996
-4.99812
-4.78817
-4.57354
-4.35791
-4.14591
-3.94013
-3.73066
-3.50997
-3.27011
-2.99314
-2.66385
-2.26702
-1.75471
15830
15831.6
15835.4
15837.1
15837.8
15839.8
15843.6
15851.5
32607
222037
219674
216596
212803
159703
-11.448
2.43831
0.98427
0.706725
0.301965
-0.174257
-0.679384
-1.18911
-1.68904
-2.16906
-2.62112
-3.03987
-3.42203
-3.76685
-4.07992
-4.36343
-4.61706
-4.84464
-5.04552
-5.21978
-5.36782
-5.49172
-5.58935
-5.65886
-5.70353
-5.71982
-5.70412
-5.65821
-5.58513
-5.4858
-5.36022
-5.21365
-5.05056
-4.87324
-4.6867
-4.49472
-4.30173
-4.11224
-3.92818
-3.74171
-3.54646
-3.33625
-3.09824
-2.82518
-2.51392
-2.1269
15828.1
15829.5
15832.3
15834.7
15836.1
15838.8
15847.3
15862
219586
229955
227226
223768
219894
18296.6
4.82996
0.920354
0.998931
0.776034
0.402568
-0.0436967
-0.522494
-1.01006
-1.49099
-1.95389
-2.39162
-2.79937
-3.17166
-3.50798
-3.81327
-4.09038
-4.33795
-4.55808
-4.75432
-4.92819
-5.07737
-5.20293
-5.30219
-5.37362
-5.42095
-5.4415
-5.43393
-5.39971
-5.34129
-5.25863
-5.15185
-5.02581
-4.88416
-4.72899
-4.56368
-4.39173
-4.21845
-4.04737
-3.87988
-3.71097
-3.53461
-3.34646
-3.13857
-2.91212
-2.68525
-2.46802
15825.9
15827.4
15829.9
15833.4
15835.5
15838.3
15862.9
142046
240181
237771
234619
230906
206767
-10.0881
1.26325
0.872698
1.06861
0.879726
0.53046
0.105555
-0.354937
-0.826376
-1.2928
-1.74183
-2.16737
-2.56466
-2.92738
-3.25522
-3.552
-3.81967
-4.06044
-4.27926
-4.47501
-4.64765
-4.79614
-4.92142
-5.0216
-5.097
-5.14965
-5.17608
-5.17478
-5.14771
-5.09858
-5.02777
-4.93647
-4.82786
-4.70444
-4.56844
-4.42157
-4.26711
-4.11033
-3.95355
-3.79832
-3.6418
-3.47781
-3.30316
-3.11253
-2.91097
-2.73601
-2.7191
15824.2
15825.5
15827.8
15832.6
15837.7
15829.1
26990.9
250444
248217
245369
241944
238218
27333.6
5.35782
0.740393
1.14681
1.21978
1.01721
0.67154
0.256098
-0.191379
-0.649648
-1.10329
-1.54007
-1.95398
-2.33955
-2.69184
-3.00997
-3.29669
-3.55646
-3.79659
-4.01461
-4.20875
-4.37981
-4.52753
-4.65284
-4.75417
-4.83275
-4.88887
-4.91927
-4.92386
-4.90589
-4.86826
-4.80733
-4.72395
-4.62429
-4.51334
-4.39287
-4.26212
-4.12328
-3.9798
-3.83342
-3.68701
-3.53886
-3.38216
-3.2137
-3.02738
-2.82168
-2.61529
-2.45548
15908.3
15837.6
15826
15830.6
15841.3
15813.1
255475
258590
256010
252854
249298
223768
-7.98493
1.90698
1.23523
1.46831
1.41
1.16361
0.807114
0.394188
-0.0430801
-0.48757
-0.927521
-1.3524
-1.75447
-2.127
-2.46632
-2.77349
-3.05213
-3.30919
-3.54723
-3.76345
-3.9555
-4.12523
-4.2725
-4.39831
-4.50011
-4.58045
-4.63975
-4.67408
-4.68442
-4.67385
-4.64459
-4.59245
-4.51909
-4.42986
-4.32675
-4.21163
-4.08813
-3.96084
-3.82865
-3.69053
-3.55053
-3.40775
-3.25517
-3.08905
-2.90124
-2.68027
-2.4159
-2.06061
16101.4
15825.9
15824.6
15829.8
15822.7
232997
268913
266542
263662
260361
256939
24012.9
6.46964
1.55139
1.73244
1.75787
1.5901
1.29299
0.920799
0.510247
0.084095
-0.345101
-0.769972
-1.18162
-1.57028
-1.92698
-2.252
-2.54925
-2.8247
-3.07766
-3.31224
-3.52565
-3.71543
-3.88407
-4.03126
-4.15749
-4.25937
-4.34073
-4.40221
-4.43959
-4.45562
-4.45203
-4.42895
-4.38431
-4.32032
-4.24022
-4.14545
-4.03804
-3.92048
-3.7955
-3.66401
-3.52929
-3.39443
-3.25533
-3.10509
-2.94108
-2.75517
-2.53168
-2.2494
-1.85152
15811.2
15819.8
15822.4
15822
214550
279116
276965
274361
271324
267990
201133
-7.14484
2.98617
1.96283
2.09012
1.98095
1.72828
1.39039
1.0064
0.6005
0.186763
-0.225893
-0.633481
-1.02866
-1.39954
-1.73911
-2.05111
-2.3434
-2.61313
-2.86166
-3.09212
-3.30161
-3.48896
-3.6564
-3.80364
-3.92979
-4.03218
-4.11454
-4.17666
-4.2162
-4.23744
-4.2399
-4.22173
-4.18336
-4.12756
-4.05595
-3.96942
-3.86943
-3.75841
-3.63962
-3.51193
-3.37544
-3.2349
-3.09239
-2.94247
-2.78211
-2.60512
-2.40007
-2.15682
-1.86284
15763.9
15819
15801.9
237042
289288
287261
284924
282167
279095
276220
2540.91
3.26056
1.77412
2.25701
2.32213
2.13028
1.81847
1.45417
1.06496
0.665544
0.265293
-0.130449
-0.519839
-0.894244
-1.24398
-1.56746
-1.87125
-2.15519
-2.41814
-2.66193
-2.88762
-3.09196
-3.27658
-3.4427
-3.58939
-3.71484
-3.81755
-3.90076
-3.96347
-4.00541
-4.03034
-4.03647
-4.0227
-3.9901
-3.94126
-3.87738
-3.79859
-3.70613
-3.60241
-3.4901
-3.369
-3.23973
-3.10391
-2.95757
-2.79923
-2.6357
-2.46698
-2.28954
-2.10928
-1.95552
73700.1
46434.9
300861
299476
297583
295491
293034
290212
287079
91200.5
-0.840466
0.848855
2.01282
2.45246
2.41733
2.16926
1.83609
1.46845
1.08693
0.700896
0.317094
-0.0612059
-0.429793
-0.778868
-1.1071
-1.41829
-1.7116
-1.98578
-2.24158
-2.48016
-2.7001
-2.8992
-3.08045
-3.24426
-3.38924
-3.51257
-3.61438
-3.6985
-3.76291
-3.80748
-3.83412
-3.84195
-3.83215
-3.80518
-3.76255
-3.70493
-3.63291
-3.54831
-3.45281
-3.34783
-3.23422
-3.11362
-2.98699
-2.8508
-2.70335
-2.54827
-2.38848
-2.23001
-2.08374
-1.96584
425076
425257
425223
425167
425085
424972
424821
424622
424359
424016
423565
422970
422179
421116
419668
417653
414758
410392
403189
389840
424707
424873
424835
424773
424682
424558
424392
424173
423887
423514
423025
422380
421521
420364
418778
416549
413301
408316
400187
385483
424365
424516
424475
424408
424310
424176
423999
423767
423465
423072
422560
421889
421000
419810
418194
415954
412777
408152
401246
390472
424053
424188
424145
424073
423971
423831
423646
423405
423094
422693
422174
421499
420616
419450
417896
415801
412943
409003
403530
395978
423772
423891
423846
423772
423666
423523
423334
423090
422777
422376
421863
421204
420354
419252
417815
415932
413457
410200
405935
400508
423523
423625
423580
423505
423398
423253
423064
422821
422511
422119
421621
420991
420190
419172
417873
416217
414110
411443
408107
404045
423306
423392
423347
423272
423166
423022
422835
422596
422295
421915
421440
420845
420101
419171
418011
416566
414778
412583
409927
406784
423121
423192
423148
423074
422970
422829
422647
422415
422124
421760
421310
420753
420066
419222
418187
416926
415399
413569
411408
408905
422967
423024
422981
422911
422809
422673
422497
422274
421995
421649
421224
420705
420072
419304
418378
417268
415949
414400
412602
410552
422842
422886
422847
422781
422684
422553
422384
422171
421904
421577
421177
420693
420109
419407
418571
417582
416427
415091
413565
411841
422739
422777
422746
422685
422593
422469
422308
422105
421852
421542
421168
420719
420181
419539
418775
417882
416850
415674
414341
412836
422641
422698
422680
422624
422537
422421
422269
422074
421833
421539
421185
420761
420253
419639
418906
418055
417086
415999
414787
413421
422450
422654
422650
422591
422508
422391
422235
422038
421797
421505
421153
420737
420241
419629
418659
413993
401024
375760
334129
259481
-3.9592
113930
110957
104649
98254.6
88824.9
76861.6
64019.8
51608
40172.6
28100.7
14992.4
-0.32548
-4.30797
-4.75124
-5.13389
-5.23098
-4.22129
3.22566
4.05927
-0.806286
0.779344
0.635276
0.520801
0.454044
0.41454
0.398513
0.419494
0.472479
0.494924
0.417128
0.218136
-0.131416
-0.823076
-0.995899
-1.03154
-0.949413
-0.67392
-0.078391
-0.0517797
-0.167556
0.154791
0.105392
0.0814874
0.0690594
0.0638113
0.0717464
0.0907631
0.100643
0.0812295
0.0473841
0.0503895
0.092694
0.00741119
-0.0745557
-0.135203
-0.165601
-0.157163
-0.09492
-0.0900306
-0.05823
0.00760043
0.00295731
0.00309483
0.00523901
0.0103748
0.0208059
0.0332429
0.0382841
0.0301968
0.0162906
0.0117085
0.0184478
0.00492737
-0.0263632
-0.0595168
-0.0828541
-0.0909758
-0.0847296
-0.0838767
-0.0586195
-0.0212717
-0.016074
-0.0164425
-0.0158795
-0.0127728
-0.00725962
-0.00165827
0.000151171
-0.00381198
-0.0105666
-0.0145006
-0.0148784
-0.0196684
-0.0318555
-0.0478879
-0.0630003
-0.0741501
-0.0812762
-0.0883503
-0.0769791
-0.041757
-0.0391363
-0.0391831
-0.0388438
-0.0372217
-0.0346578
-0.0324707
-0.0322578
-0.0346373
-0.0382608
-0.0411154
-0.0430898
-0.0466776
-0.0538878
-0.0644177
-0.0764319
-0.0883758
-0.0999723
-0.111922
-0.1132
-0.075813
-0.0704772
-0.0676414
-0.0663111
-0.0651319
-0.0638494
-0.0631386
-0.0637029
-0.0656908
-0.0684241
-0.0711545
-0.0740404
-0.0781655
-0.0848827
-0.0946613
-0.106662
-0.120062
-0.134763
-0.150783
-0.148159
-0.113402
-0.102974
-0.0985997
-0.0968584
-0.0959297
-0.0953005
-0.0953363
-0.0964409
-0.0987439
-0.101918
-0.105499
-0.109665
-0.115281
-0.123344
-0.134358
-0.148046
-0.16394
-0.181933
-0.201745
-0.159454
-0.138463
-0.130321
-0.128004
-0.12746
-0.127393
-0.127656
-0.128532
-0.130454
-0.133625
-0.137875
-0.142905
-0.148977
-0.156787
-0.166878
-0.179667
-0.195343
-0.21385
-0.234903
-0.257843
-0.141509
-0.14908
-0.152421
-0.1554
-0.157123
-0.158167
-0.159261
-0.160994
-0.163861
-0.168097
-0.173498
-0.179951
-0.187885
-0.197851
-0.210116
-0.224988
-0.242946
-0.264233
-0.288408
-0.314626
-0.0913946
-0.155562
-0.174598
-0.183141
-0.186984
-0.188874
-0.190457
-0.192627
-0.195933
-0.200666
-0.206864
-0.21467
-0.224442
-0.236633
-0.251523
-0.269259
-0.290168
-0.314429
-0.341668
-0.371249
337697
337579
336463
336108
338715
343854
350554
357643
363934
368436
370462
369643
365647
357657
342948
355871
341095
336273
335763
337946
342478
348601
355193
361083
365283
367129
366270
362474
355435
344989
374949
356024
344955
340748
341112
344606
349914
355710
360810
364313
365695
364753
361479
356013
348806
386518
374387
364074
357410
354605
354977
357512
360835
363806
365680
366051
364782
361911
357614
352256
393815
385878
378473
372682
368965
367248
367101
367744
368412
368571
367877
366164
363409
359716
355325
399165
393439
387866
383044
379314
376726
375104
374073
373203
372124
370573
368399
365559
362111
358207
403092
398749
394369
390299
386772
383882
381539
379570
377734
375801
373597
371012
367993
364559
360872
406004
402581
399034
395562
392322
389376
386698
384204
381773
379275
376596
373653
370464
362017
176179
408196
405406
402454
399449
396472
393570
390751
387984
385203
382334
379417
361842
152185
-31.0463
8.09715
409865
407507
404959
402272
399495
396668
393824
390956
388188
336561
74630
-6.15111
3.68072
0.560394
0.354464
411092
408979
406672
404185
401594
398976
385802
240871
-23.8464
0.922211
5.26188
0.545011
-0.0830568
0.373622
0.725697
411837
409935
407058
368085
227736
12676.7
-19.376
6.97979
1.31483
-0.729409
0.011405
0.356099
0.455118
0.558589
0.686738
148129
25921.4
-19.2388
0.149577
4.55408
1.72661
-1.26956
-0.495897
-0.0444568
0.0604618
0.246719
0.351826
0.433175
0.51662
0.599842
2.65877
1.44273
-1.405
-0.749342
-0.616524
-0.351667
-0.210315
-0.0412604
0.06047
0.13101
0.219068
0.294859
0.360998
0.422681
0.480325
-0.325822
-0.20182
-0.174542
-0.185984
-0.158024
-0.133042
-0.075243
-0.00901003
0.0530233
0.108142
0.162476
0.212998
0.259545
0.30264
0.34142
-0.137234
-0.130187
-0.119314
-0.114419
-0.0989958
-0.0804193
-0.0519127
-0.0192562
0.0142698
0.0472184
0.0800496
0.111432
0.14033
0.166785
0.190964
-0.0942121
-0.0986011
-0.0985895
-0.0988432
-0.0963115
-0.0910025
-0.0810398
-0.0677513
-0.0526254
-0.0365355
-0.0199405
-0.00356085
0.0122728
0.0270275
0.0399903
-0.0976459
-0.106864
-0.114634
-0.122348
-0.129533
-0.13502
-0.137801
-0.138344
-0.13696
-0.1334
-0.128288
-0.123286
-0.118855
-0.114659
-0.110781
-0.124898
-0.139143
-0.153423
-0.168396
-0.183862
-0.198388
-0.210842
-0.221271
-0.229943
-0.236489
-0.241222
-0.245292
-0.249852
-0.254947
-0.260505
-0.168257
-0.187909
-0.208395
-0.22992
-0.252023
-0.273284
-0.292951
-0.310946
-0.32727
-0.341952
-0.355413
-0.368355
-0.38174
-0.395497
-0.409778
-0.223182
-0.247272
-0.272536
-0.299108
-0.326475
-0.353161
-0.378777
-0.403664