/*--------------------------------*- C++ -*----------------------------------*\
| =========                 |                                                 |
| \\      /  F ield         | OpenFOAM: The Open Source CFD Toolbox           |
|  \\    /   O peration     | Version:  v1912                                 |
|   \\  /    A nd           | Website:  www.openfoam.com                      |
|    \\/     M anipulation  |                                                 |
\*---------------------------------------------------------------------------*/
FoamFile
{
    version     2.0;
    format      ascii;
    class       surfaceScalarField;
    location    "26";
    object      phi;
}
// * * * * * * * * * * * * * * * * * * * * * * * * * * * * * * * * * * * * * //

dimensions      [0 3 -1 0 0 0 0];
oriented        oriented;


internalField   nonuniform List<scalar> 
40282
(
0.00278897
0.00264716
1.9207
-1.92732
1.92172
0.00559492
-1.91269
1.90051
0.0121798
-1.88532
1.86717
0.0181485
-1.84615
1.82229
0.0238624
-1.7956
1.7662
0.0293976
-1.73412
1.69951
0.0346157
-1.66231
1.62268
0.0396306
-1.58059
1.5362
0.0443948
-1.48951
1.4406
0.0489081
-1.38957
1.33639
0.0531791
-1.2813
1.2242
0.0571051
-1.16541
1.10471
0.0607008
-1.04252
0.978587
0.0639325
-0.913414
0.846588
0.0668253
-0.778692
0.709467
0.0692255
-0.639009
0.567765
0.0712438
-0.494424
0.420763
0.0736612
-0.343562
0.265943
0.0776185
-0.179411
0.0766245
0.102787
-0.00422342
0.00559792
1.85576
-1.85129
1.84434
-0.0140953
0.0210441
-1.83466
1.82223
-0.025632
0.0380665
-1.80701
1.78903
-0.0369353
0.0549189
-1.76831
1.74489
-0.0479924
0.0714093
-1.71883
1.69017
-0.0588027
0.0874668
-1.65895
1.62521
-0.0692576
0.103001
-1.589
1.55037
-0.0793072
0.117936
-1.50937
1.46606
-0.0889007
0.132211
-1.42049
1.37272
-0.0980064
0.145777
-1.32281
1.27082
-0.106591
0.158584
-1.2168
1.16082
-0.114604
0.170588
-1.10291
1.04317
-0.122
0.181735
-0.981618
0.91838
-0.128703
0.19194
-0.853465
0.787035
-0.134655
0.201084
-0.719141
0.649898
-0.139792
0.209035
-0.5795
0.508071
-0.144258
0.215687
-0.435926
0.363454
-0.148412
0.220884
-0.29104
0.217523
-0.152905
0.226422
-0.144298
0.0733648
-0.175471
0.246404
-0.0070095
0.00835682
1.78925
-1.78507
1.77826
-0.0281793
0.0349896
-1.76879
1.75668
-0.0506915
0.0628026
-1.74194
1.72458
-0.0729612
0.0903183
-1.70462
1.68208
-0.0948259
0.117371
-1.65697
1.62934
-0.116131
0.143761
-1.59922
1.56665
-0.136754
0.169327
-1.53167
1.49433
-0.156584
0.193923
-1.45469
1.4128
-0.175535
0.217423
-1.36873
1.32254
-0.19354
0.239723
-1.27432
1.22412
-0.210533
0.260733
-1.17202
1.11809
-0.226475
0.280403
-1.0624
1.005
-0.241335
0.298726
-0.945966
0.885335
-0.255045
0.315676
-0.823151
0.759475
-0.267448
0.331124
-0.694359
0.627874
-0.278289
0.344774
-0.560131
0.491244
-0.287126
0.356013
-0.421453
0.350945
-0.293087
0.363595
-0.279592
0.207471
-0.299173
0.371294
-0.135734
0.0657365
-0.317207
0.387205
-0.00964165
0.0109184
1.72518
-1.72132
1.7149
-0.0417098
0.0481339
-1.70591
1.69438
-0.0748392
0.086374
-1.68031
1.66371
-0.107619
0.124214
-1.64461
1.62302
-0.139868
0.161457
-1.59896
1.57247
-0.171351
0.197844
-1.54357
1.51229
-0.201873
0.23315
-1.47868
1.44276
-0.231264
0.267182
-1.40458
1.3642
-0.259364
0.29975
-1.32165
1.27701
-0.286022
0.330664
-1.23033
1.1817
-0.311096
0.359729
-1.13119
1.07889
-0.3345
0.3868
-1.02489
0.969293
-0.35622
0.411822
-0.912179
0.85364
-0.376266
0.434805
-0.793752
0.73258
-0.39457
0.455741
-0.670182
0.606609
-0.41083
0.474403
-0.541917
0.476165
-0.424208
0.489959
-0.409414
0.341564
-0.433011
0.50086
-0.272425
0.202237
-0.441522
0.51171
-0.131823
0.0624908
-0.456749
0.526081
-0.0121386
0.0133458
1.6634
-1.65974
1.65365
-0.0545095
0.0606004
-1.64513
1.63419
-0.0978255
0.108768
-1.62084
1.60507
-0.140699
0.156461
-1.58692
1.56639
-0.182917
0.20345
-1.5435
1.51827
-0.224194
0.249424
-1.49072
1.46088
-0.264282
0.294117
-1.42879
1.39447
-0.302962
0.337284
-1.35795
1.31929
-0.340018
0.378686
-1.27851
1.23567
-0.375228
0.418068
-1.19082
1.14402
-0.408345
0.455145
-1.09534
1.04485
-0.439166
0.489655
-0.992637
0.938794
-0.467571
0.521413
-0.883423
0.826631
-0.493528
0.550321
-0.768524
0.709207
-0.517046
0.576362
-0.648777
0.587317
-0.537944
0.599404
-0.5249
0.461574
-0.555339
0.618665
-0.397304
0.331882
-0.567648
0.63307
-0.265091
0.197093
-0.579465
0.647463
-0.128363
0.0602751
-0.593862
0.66195
-0.0144933
0.0156221
1.60394
-1.60033
1.59461
-0.0666226
0.0723473
-1.5866
1.57631
-0.119589
0.12988
-1.56374
1.5489
-0.172057
0.186901
-1.53178
1.51241
-0.223784
0.243156
-1.49079
1.46693
-0.274436
0.298294
-1.44085
1.41258
-0.323726
0.352006
-1.38211
1.34949
-0.371387
0.404006
-1.31474
1.27789
-0.417155
0.454007
-1.23897
1.19802
-0.460745
0.501694
-1.15509
1.11022
-0.501832
0.546703
-1.06347
1.0149
-0.540104
0.588676
-0.964575
0.912585
-0.57531
0.627301
-0.859014
0.803964
-0.607274
0.662323
-0.747549
0.689887
-0.635915
0.693577
-0.631102
0.571315
-0.661086
0.720873
-0.510631
0.449116
-0.68202
0.743535
-0.386725
0.32326
-0.697857
0.761322
-0.25853
0.1926
-0.713141
0.779071
-0.125587
0.0590725
-0.727789
0.794303
-0.0166882
0.0177288
1.54629
-1.54326
1.53794
-0.0779763
0.0832935
-1.5305
1.52093
-0.140004
0.149573
-1.50923
1.4954
-0.201517
0.215347
-1.47944
1.46134
-0.262253
0.280348
-1.44112
1.41877
-0.321845
0.344198
-1.39429
1.3677
-0.379967
0.406557
-1.33901
1.30822
-0.436315
0.467104
-1.27535
1.24042
-0.490577
0.525504
-1.20346
1.16449
-0.542407
0.581381
-1.12353
1.08064
-0.591404
0.634296
-1.03586
0.989222
-0.637162
0.683795
-0.940802
0.890661
-0.67931
0.729451
-0.838876
0.785537
-0.717514
0.770853
-0.730747
0.674627
-0.75151
0.80763
-0.61731
0.558934
-0.781026
0.839401
-0.499634
0.439498
-0.805402
0.865538
-0.378515
0.31656
-0.824709
0.886665
-0.253502
0.189359
-0.8433
0.907442
-0.123921
0.0592524
-0.858721
0.923389
-0.0187036
0.0196456
1.49107
-1.48831
1.48344
-0.0884825
0.093344
-1.47663
1.46787
-0.15892
0.167684
-1.45714
1.44444
-0.228871
0.241571
-1.42976
1.41308
-0.298072
0.314749
-1.3944
1.37371
-0.366135
0.386826
-1.351
1.32627
-0.432711
0.457445
-1.29951
1.27071
-0.497464
0.52626
-1.23988
1.20703
-0.560036
0.592891
-1.17215
1.13527
-0.620021
0.656904
-1.0964
1.05556
-0.676939
0.717776
-1.01279
0.968121
-0.730285
0.774952
-0.921603
0.87329
-0.779576
0.827889
-0.823245
0.771546
-0.824323
0.876022
-0.718286
0.663578
-0.864044
0.918752
-0.607554
0.550362
-0.898238
0.955431
-0.492148
0.433027
-0.92627
0.985392
-0.373028
0.312104
-0.949091
1.01002
-0.250205
0.187351
-0.970786
1.03364
-0.122944
0.060496
-0.987272
1.04972
-0.0205176
0.021349
1.43772
-1.43507
1.43072
-0.0980418
0.102392
-1.42462
1.41676
-0.176162
0.184023
-1.40712
1.39568
-0.253879
0.265314
-1.38243
1.36734
-0.330947
0.346038
-1.35039
1.33155
-0.406978
0.425814
-1.31081
1.28814
-0.481612
0.504285
-1.26351
1.23692
-0.554493
0.581088
-1.20833
1.17775
-0.625224
0.655811
-1.14515
1.11052
-0.693338
0.72796
-1.07388
1.03523
-0.758272
0.796926
-0.994575
0.951944
-0.819415
0.862046
-0.907367
0.860883
-0.876161
0.922645
-0.812545
0.762417
-0.927863
0.977991
-0.71058
0.657139
-0.973808
1.02725
-0.602221
0.545976
-1.0132
1.06945
-0.488566
0.43013
-1.04535
1.10379
-0.370751
0.310463
-1.07191
1.1322
-0.249289
0.187293
-1.0966
1.15859
-0.123273
0.0633335
-1.11466
1.1746
-0.0221063
0.0228146
1.38642
-1.3841
1.38032
-0.10654
0.110321
-1.37501
1.36816
-0.191531
0.198386
-1.35973
1.3497
-0.276262
0.286288
-1.33805
1.32472
-0.360532
0.373855
-1.3097
1.29293
-0.443973
0.460741
-1.27438
1.254
-0.526238
0.546614
-1.23176
1.20761
-0.606963
0.631112
-1.18151
1.15343
-0.685721
0.7138
-1.12334
1.09119
-0.761991
0.794134
-1.05698
1.02068
-0.835121
0.871419
-0.982293
0.941809
-0.90439
0.944874
-0.899242
0.854615
-0.969048
1.01368
-0.807962
0.759331
-1.02828
1.07691
-0.70879
0.656431
-1.08111
1.13347
-0.602375
0.546774
-1.12642
1.18202
-0.4898
0.431626
-1.16337
1.22154
-0.372402
0.312268
-1.19413
1.25426
-0.251333
0.189792
-1.222
1.28354
-0.12544
0.0679264
-1.24186
1.29937
-0.023445
0.024018
1.3368
-1.33485
1.3317
-0.113858
0.11701
-1.32727
1.32153
-0.204815
0.210558
-1.31444
1.30598
-0.295722
0.304184
-1.2961
1.28474
-0.386448
0.397803
-1.27186
1.25741
-0.476676
0.491134
-1.24131
1.22351
-0.566093
0.583893
-1.20394
1.18254
-0.654348
0.675747
-1.15925
1.13399
-0.741006
0.766261
-1.10672
1.07736
-0.825497
0.854853
-1.04587
1.01221
-0.907089
0.940755
-0.976326
0.938201
-0.984939
1.02306
-0.897817
0.855167
-1.05814
1.10079
-0.810261
0.763125
-1.12568
1.17282
-0.713808
0.662384
-1.18631
1.23774
-0.608961
0.553688
-1.23851
1.29379
-0.496748
0.438352
-1.2812
1.3396
-0.378726
0.318138
-1.31684
1.37743
-0.25682
0.195227
-1.34839
1.40998
-0.12932
0.0742386
-1.3702
1.42528
-0.0245101
0.0249374
1.28905
-1.28732
1.28486
-0.119877
0.122344
-1.28138
1.27685
-0.2158
0.220328
-1.27124
1.26449
-0.311948
0.318694
-1.25655
1.24737
-0.408289
0.417473
-1.23687
1.22498
-0.504587
0.516479
-1.21161
1.1967
-0.600595
0.615513
-1.18014
1.16184
-0.696008
0.714302
-1.14172
1.11968
-0.790402
0.812445
-1.09562
1.06945
-0.883188
0.909354
-1.04109
1.01045
-0.973564
1.00421
-0.977444
0.942019
-1.06057
1.096
-0.904114
0.863686
-1.14314
1.18357
-0.820706
0.775168
-1.22003
1.26557
-0.727087
0.676509
-1.28969
1.34026
-0.623522
0.568261
-1.35011
1.40537
-0.510916
0.451738
-1.39984
1.45902
-0.391046
0.329277
-1.44143
1.5032
-0.266835
0.20464
-1.47748
1.53968
-0.135733
0.0834623
-1.50198
1.55425
-0.0252821
0.0255559
1.24316
-1.24187
1.24014
-0.124489
0.126225
-1.23767
1.23444
-0.224287
0.227515
-1.23041
1.22551
-0.324642
0.329542
-1.21968
1.21285
-0.425651
0.432478
-1.20494
1.19587
-0.52719
0.536268
-1.18552
1.1738
-0.629118
0.640834
-1.16061
1.1458
-0.731209
0.746009
-1.12928
1.1109
-0.833093
0.85147
-1.09055
1.06807
-0.934199
0.956672
-1.04335
1.01626
-1.03369
1.06079
-0.986656
0.954434
-1.13053
1.16275
-0.919481
0.881698
-1.22348
1.26126
-0.841001
0.797329
-1.31106
1.35473
-0.750645
0.700946
-1.39136
1.44106
-0.648277
0.592744
-1.46184
1.51737
-0.534528
0.47391
-1.52045
1.58107
-0.411305
0.347364
-1.56955
1.63349
-0.282728
0.21914
-1.6115
1.67509
-0.145217
0.0961853
-1.63979
1.68883
-0.0257474
0.0258637
1.19858
-1.19793
1.19695
-0.127609
0.128585
-1.19555
1.19368
-0.230116
0.231984
-1.1913
1.18835
-0.333552
0.336505
-1.18476
1.18044
-0.43817
0.442485
-1.17532
1.16928
-0.543992
0.550026
-1.16223
1.15403
-0.651016
0.659215
-1.14455
1.13366
-0.759148
0.770039
-1.1212
1.10701
-0.868124
0.882311
-1.09093
1.07278
-0.97745
0.995604
-1.05237
1.02953
-1.08633
1.10917
-1.00407
0.975801
-1.19367
1.22194
-0.944543
0.910123
-1.29815
1.33257
-0.872376
0.831155
-1.39807
1.43929
-0.786338
0.737838
-1.49114
1.53964
-0.685619
0.629721
-1.57419
1.63009
-0.570278
0.507573
-1.64431
1.70701
-0.4421
0.374744
-1.70328
1.77064
-0.306493
0.240375
-1.75334
1.81946
-0.158924
0.113576
-1.78729
1.83264
-0.0259004
0.0258604
1.15585
-1.15566
1.15545
-0.129187
0.129395
-1.15513
1.15464
-0.233182
0.233666
-1.15395
1.153
-0.338497
0.33945
-1.15171
1.15001
-0.445557
0.447258
-1.14781
1.14499
-0.554553
0.557373
-1.14144
1.13702
-0.665668
0.67008
-1.1316
1.12502
-0.778987
0.785573
-1.11709
1.10764
-0.894419
0.90387
-1.09646
1.08334
-1.01163
1.02475
-1.06805
1.05034
-1.12994
1.14765
-1.02997
1.00667
-1.24835
1.27165
-0.980173
0.950204
-1.36553
1.3955
-0.916488
0.878754
-1.47967
1.51741
-0.836747
0.790237
-1.58818
1.63469
-0.739044
0.683067
-1.68717
1.74315
-0.622323
0.557023
-1.77263
1.83793
-0.487671
0.415383
-1.84514
1.91743
-0.341641
0.271238
-1.9068
1.97721
-0.179532
0.138133
-1.94937
1.99076
-0.0257462
0.0255563
1.1146
-1.11468
1.11522
-0.129219
0.128674
-1.11595
1.11683
-0.233459
0.232581
-1.11782
1.11885
-0.339402
0.338365
-1.11988
1.12081
-0.447645
0.446708
-1.12158
1.12206
-0.558568
0.558085
-1.12215
1.12171
-0.672566
0.673002
-1.1206
1.11866
-0.789954
0.791902
-1.11569
1.11149
-0.910881
0.915075
-1.10585
1.09851
-1.03526
1.0426
-1.08921
1.07766
-1.16268
1.17424
-1.06354
1.04651
-1.29238
1.3094
-1.02621
1.00225
-1.4232
1.44716
-0.974212
0.941664
-1.55347
1.58602
-0.904159
0.861248
-1.68051
1.72342
-0.812506
0.757566
-1.79989
1.85483
-0.696182
0.628327
-1.90622
1.97407
-0.554346
0.475441
-1.99815
2.07705
-0.393692
0.316
-2.07714
2.15484
-0.210953
0.173472
-2.13392
2.1714
-0.0253
0.024972
1.07483
-1.07552
1.07677
-0.127751
0.126496
-1.0785
1.08068
-0.231015
0.228842
-1.08326
1.08621
-0.336322
0.333374
-1.08946
1.09297
-0.444431
0.440925
-1.09665
1.10041
-0.555912
0.55215
-1.10415
1.10776
-0.671388
0.667786
-1.11108
1.11398
-0.791436
0.788544
-1.11626
1.11773
-0.916505
0.915035
-1.11816
1.1173
-1.04686
1.04772
-1.11485
1.11051
-1.18246
1.18681
-1.10391
1.09465
-1.32299
1.33225
-1.0823
1.06634
-1.46777
1.48373
-1.04623
1.02136
-1.61564
1.64051
-0.991041
0.954533
-1.76432
1.80083
-0.911044
0.85977
-1.90942
1.96069
-0.799962
0.731038
-2.04437
2.11329
-0.652783
0.566025
-2.16521
2.25197
-0.473158
0.383
-2.27124
2.3614
-0.260546
0.224628
-2.35247
2.38839
-0.0245875
0.0241375
1.03634
-1.03742
1.03932
-0.124881
0.122983
-1.04195
1.0453
-0.226011
0.222658
-1.04935
1.05406
-0.329452
0.324744
-1.05939
1.0653
-0.436102
0.430193
-1.07173
1.07862
-0.546698
0.539811
-1.08588
1.09342
-0.662087
0.654546
-1.10113
1.10888
-0.783114
0.775369
-1.11651
1.12384
-0.910559
0.903221
-1.13069
1.1368
-1.04509
1.03898
-1.1419
1.14569
-1.18719
1.1834
-1.14781
1.14784
-1.33713
1.3371
-1.14531
1.13966
-1.49503
1.50068
-1.13025
1.11633
-1.66073
1.67465
-1.09702
1.07126
-1.8332
1.85895
-1.03787
0.995443
-2.00928
2.0517
-0.942474
0.877378
-2.18266
2.24775
-0.798693
0.705798
-2.34744
2.44033
-0.599937
0.490543
-2.4984
2.6078
-0.34496
0.303399
-2.6257
2.66726
-0.0236424
0.0230898
0.999311
-1.00092
1.00337
-0.120755
0.1183
-1.0068
1.01118
-0.218698
0.214316
-1.01651
1.02276
-0.31913
0.312872
-1.02993
1.03799
-0.423044
0.414988
-1.0469
1.05663
-0.531307
0.521578
-1.06713
1.07833
-0.644955
0.633752
-1.09017
1.10254
-0.765079
0.7527
-1.11536
1.12847
-0.892773
0.879656
-1.14174
1.15498
-1.02912
1.01589
-1.16796
1.18044
-1.17515
1.16267
-1.19212
1.20262
-1.33185
1.32135
-1.21153
1.21835
-1.50033
1.49352
-1.22244
1.22306
-1.68187
1.68124
-1.21928
1.20993
-1.87761
1.88696
-1.19354
1.16828
-2.08743
2.1127
-1.13186
1.08153
-2.30846
2.35879
-1.01399
0.925521
-2.53739
2.62585
-0.813147
0.68101
-2.7671
2.89924
-0.507506
0.438853
-2.98874
3.05739
-0.0225043
0.0218703
0.963749
-0.965451
0.968363
-0.115555
0.112644
-0.972434
0.977665
-0.209398
0.204167
-0.984055
0.991605
-0.305807
0.298257
-1.00031
1.01018
-0.405817
0.39595
-1.0212
1.03337
-0.510372
0.498204
-1.04667
1.06109
-0.620643
0.60623
-1.07658
1.09312
-0.737903
0.721363
-1.11065
1.12912
-0.8635
0.845039
-1.14842
1.16847
-0.99887
0.978821
-1.18913
1.21026
-1.14551
1.12439
-1.23165
1.25308
-1.30508
1.28365
-1.27427
1.29489
-1.47965
1.45903
-1.3145
1.33257
-1.672
1.65393
-1.3484
1.36109
-1.88589
1.8732
-1.36941
1.3717
-2.12573
2.12344
-1.36569
1.34831
-2.39596
2.41335
-1.31533
1.26069
-2.70485
2.75949
-1.17693
1.0493
-3.06638
3.19401
-0.878371
0.800717
-3.50031
3.57796
0.0528446
-0.109549
0.0567048
-0.0990026
0.143262
-0.044259
-0.184107
0.226213
-0.0421064
-0.270895
0.316521
-0.0456257
-0.360176
0.399556
-0.03938
-0.433967
0.462353
-0.028386
-0.482468
0.490781
-0.00831338
-0.481563
0.446351
0.0352124
-0.371568
0.235769
0.135799
-0.00737545
-0.365478
0.372853
0.849122
-1.47146
0.622336
2.21438
-2.82108
0.606697
2.94513
-2.98714
0.0420131
3.13369
-3.05737
-0.0763136
2.97754
-2.97437
-0.00317376
2.96349
-2.96532
0.00183274
2.96583
-2.96688
0.00105078
2.98835
-3.03348
0.0451219
3.08789
-3.14636
0.0584683
3.19055
-3.21269
0.022137
3.21355
-3.21675
0.00320052
3.23152
-2.9889
-0.242621
1.37181
0.621457
-1.99326
-2.102
3.12664
-1.02464
-3.87608
4.45355
-0.577471
-4.91269
5.28273
-0.370037
-5.58163
5.82185
-0.240218
-6.0133
6.16416
-0.150866
-6.28142
6.37106
-0.0896379
-6.43833
6.4876
-0.0492778
-6.52253
6.54634
-0.0238099
-6.56125
6.56947
-0.00821776
-6.57256
6.571
0.00155572
-6.56574
6.55799
0.00775768
-6.5479
6.53584
0.0120667
-6.52216
6.50715
0.0150094
-6.49101
6.47394
0.0170717
-6.4561
6.43768
0.0184246
-6.41884
6.39976
0.0190846
-6.3806
6.36156
0.0190369
-6.34283
6.32461
0.0182224
-6.30703
6.2902
0.0168277
-6.27417
6.25896
0.0152088
-6.2446
6.23107
0.01353
-6.21838
6.20649
0.0118972
-6.19532
6.18477
0.0105462
-6.17468
6.16502
0.00966525
-6.15549
6.14627
0.00922682
-6.13694
6.12784
0.00909625
-6.11863
6.10952
0.00910571
-6.10061
6.09159
0.00901783
-6.08318
6.07453
0.00865398
-6.06643
6.05843
0.00799556
-6.05017
6.04298
0.00719228
-6.03469
6.02781
0.0068743
-6.02059
6.01332
0.00727261
-6.0077
6.00094
0.00675612
-5.99542
5.99053
0.00488545
-5.98451
5.97981
0.00470409
-5.97476
5.96922
0.00554178
0.168909
-0.223879
0.0549698
-0.098714
0.132613
0.081889
-0.115788
-0.165949
0.201
0.0799478
-0.114999
-0.237812
0.275039
0.0855867
-0.122813
-0.311565
0.345675
0.0752137
-0.109324
-0.376263
0.402472
0.0548368
-0.0810458
-0.423061
0.436397
0.0188995
-0.0322349
-0.440426
0.43243
-0.0545279
0.062524
-0.409583
0.369066
-0.213539
0.254056
-0.30869
0.224314
-0.569033
0.653409
-0.0886978
-0.108557
-0.996089
1.19334
0.324713
-0.390727
-0.946979
1.01299
0.381577
-0.681286
-0.462923
0.762633
1.52251
-2.41657
-0.137513
1.03157
2.61965
-2.77455
-0.0206539
0.175557
2.94418
-3.00543
-0.0164398
0.0776966
3.02363
-3.05023
-0.0151045
0.0417116
3.09227
-3.14387
-0.0785289
0.130129
3.19224
-3.24007
-0.0957448
0.143568
3.27135
-3.25419
0.0346095
-0.0517729
3.16667
-2.98568
0.240504
-0.421493
1.93373
-1.08492
0.727321
-1.57613
-0.305854
1.31546
3.41644
-4.42605
-2.26669
3.11243
1.97849
-2.82423
-3.82399
4.41218
1.17185
-1.76004
-4.89755
5.29832
0.759804
-1.16058
-5.62807
5.89718
0.498145
-0.767259
-6.11447
6.28757
0.315782
-0.488885
-6.42327
6.52816
0.189454
-0.294351
-6.60786
6.66717
0.105576
-0.164888
-6.71036
6.74079
0.052378
-0.0828152
-6.7613
6.77404
0.0198491
-0.0325942
-6.78087
6.7839
-0.00083862
-0.00219437
-6.78267
6.77878
-0.0128916
0.0167905
-6.77263
6.76469
-0.021385
0.0293313
-6.75526
6.74459
-0.0273119
0.0379848
-6.73288
6.72033
-0.0314318
0.0439825
-6.70708
6.69327
-0.0341205
0.0479235
-6.67908
6.6646
-0.0355171
0.0499981
-6.64996
6.63531
-0.0355996
0.0502489
-6.62078
6.60657
-0.0342098
0.0484232
-6.59281
6.57956
-0.031694
0.0449446
-6.56686
6.55473
-0.0287837
0.0409189
-6.54313
6.53212
-0.0257398
0.0367561
-6.52165
6.51173
-0.022765
0.0326843
-6.50232
6.49332
-0.0203005
0.0293004
-6.48466
6.47622
-0.0187184
0.0271577
-6.46795
6.45971
-0.0179703
0.0262064
-6.45157
6.4434
-0.0177297
0.0259025
-6.43531
6.42727
-0.0176139
0.0256462
-6.41933
6.41167
-0.0171743
0.0248387
-6.40416
6.3971
-0.0162564
0.0233176
-6.39023
6.38358
-0.0152252
0.0218676
-6.3772
6.37064
-0.0143457
0.0209047
-6.36452
6.35815
-0.0138626
0.0202391
-6.35202
6.34613
-0.0136965
0.0195876
-6.34
6.33456
-0.0124782
0.0179206
-6.32909
6.32372
-0.0103742
0.0157421
-6.31885
6.31352
-0.0102233
0.0155454
-6.30834
6.30325
-0.0107653
0.015855
0.273797
-0.31749
0.0436935
-0.0872937
0.117232
0.147208
-0.177147
-0.143981
0.174412
0.146877
-0.177309
-0.20796
0.241352
0.157805
-0.191198
-0.273891
0.305222
0.141555
-0.172887
-0.33424
0.360214
0.106837
-0.132811
-0.382471
0.400383
0.0479362
-0.0658486
-0.413391
0.421067
-0.0616164
0.0539402
-0.424017
0.424661
-0.269473
0.268829
-0.428371
0.447012
-0.668804
0.650164
-0.483949
0.548049
-1.22956
1.16546
-0.596964
0.514519
-1.1302
1.21265
-0.426664
0.453853
-0.257198
0.230009
-0.565663
1.11023
-0.481476
-0.0630934
-1.17297
1.35024
-0.039132
-0.138134
-2.19618
2.74732
-1.02851
0.477377
-2.57971
1.74381
-1.22837
2.06427
-0.378055
-1.0884
-0.82868
2.29514
2.23844
-2.95071
-0.561716
1.27399
3.29612
-3.29513
-0.175553
0.174571
3.08479
-2.67837
0.507929
-0.914344
0.964095
0.971975
3.94018
-5.87625
-1.8856
2.39898
5.12496
-5.63835
-2.92491
3.48933
3.51865
-4.08306
-4.03824
4.54102
2.30779
-2.81058
-4.98545
5.36765
1.55352
-1.93573
-5.68926
5.95498
1.03549
-1.30121
-6.16972
6.34003
0.661525
-0.831839
-6.47266
6.57405
0.398374
-0.499765
-6.65032
6.70668
0.223322
-0.279679
-6.74735
6.77603
0.112696
-0.141368
-6.79554
6.80811
0.0454309
-0.0580074
-6.81549
6.81893
0.00513188
-0.00857111
-6.81945
6.81768
-0.0197169
0.0214901
-6.81413
6.80917
-0.0358536
0.0408069
-6.80307
6.796
-0.0468899
0.0539616
-6.78813
6.77959
-0.0545592
0.0631029
-6.77048
6.76094
-0.0595811
0.0691182
-6.75109
6.74098
-0.0622497
0.0723583
-6.73073
6.72037
-0.0627296
0.073082
-6.71003
6.69989
-0.0605595
0.0706997
-6.69009
6.68068
-0.0562257
0.0656338
-6.67168
6.66301
-0.0513146
0.0599902
-6.65463
6.64657
-0.0462845
0.0543475
-6.63881
6.63135
-0.0413384
0.0487983
-6.62417
6.6172
-0.0372619
0.0442294
-6.61037
6.60356
-0.0347602
0.0415645
-6.59674
6.58984
-0.0337265
0.0406356
-6.58289
6.57588
-0.0334365
0.0404437
-6.56887
6.56191
-0.0330901
0.0400505
-6.55504
6.5484
-0.0319183
0.0385631
-6.54204
6.53613
-0.0297428
0.0356454
-6.53058
6.52528
-0.0277934
0.0330893
-6.52019
6.51503
-0.0266934
0.0318506
-6.51005
6.50496
-0.025905
0.0309951
-6.49986
6.49483
-0.0249959
0.0300254
-6.48962
6.48469
-0.0230784
0.0280046
-6.47988
6.47524
-0.0207281
0.02537
-6.47085
6.46627
-0.020466
0.0250487
-6.46154
6.45683
-0.0207227
0.0254374
0.355066
-0.383773
0.0287073
-0.0672541
0.0908784
0.204572
-0.228196
-0.116667
0.146131
0.207157
-0.236621
-0.174901
0.204599
0.222212
-0.25191
-0.235016
0.265551
0.203293
-0.233828
-0.294558
0.32085
0.158609
-0.184901
-0.344166
0.364785
0.0851478
-0.105766
-0.383015
0.39907
-0.0414399
0.0253849
-0.414304
0.432083
-0.257651
0.239872
-0.458114
0.501067
-0.61577
0.572816
-0.566078
0.653645
-1.07558
0.988018
-0.772996
0.849293
-1.20059
1.1243
-0.80804
0.703681
-0.325087
0.429445
-0.624865
0.669964
0.265995
-0.311094
-0.747562
0.810841
0.220647
-0.283926
-0.87599
0.984482
-0.303738
0.195246
-1.18101
1.48577
-1.70977
1.40502
-1.64025
0.903472
-3.55186
4.28864
0.329321
-1.16002
-2.13634
2.96704
1.37797
-1.08547
0.0300895
-0.322587
0.163023
2.20666
2.25964
-4.62932
-2.80281
2.8821
7.1089
-7.18819
-3.0567
3.31241
6.0029
-6.25861
-3.62866
4.00278
4.53326
-4.90738
-4.40544
4.80834
3.25674
-3.65965
-5.18625
5.52462
2.2942
-2.63257
-5.81413
6.05345
1.55356
-1.79288
-6.24495
6.39459
0.992276
-1.14191
-6.50855
6.59445
0.593692
-0.679596
-6.65827
6.70553
0.331295
-0.378553
-6.74008
6.76522
0.167825
-0.192968
-6.78332
6.79627
0.0702352
-0.0831829
-6.80538
6.81164
0.0129393
-0.0191963
-6.81571
6.81809
-0.0215721
0.0191965
-6.81908
6.81892
-0.0436445
0.0438013
-6.81778
6.81576
-0.0586667
0.0606894
-6.81298
6.80953
-0.0691807
0.0726366
-6.80552
6.80102
-0.0761525
0.0806536
-6.79617
6.79107
-0.0799374
0.0850435
-6.78576
6.7802
-0.0809965
0.0865563
-6.77449
6.76875
-0.0785708
0.0843155
-6.76324
6.75801
-0.0728779
0.0781055
-6.75301
6.74809
-0.0667175
0.0716322
-6.74322
6.73834
-0.060748
0.0656338
-6.73348
6.72865
-0.054863
0.0596922
-6.72387
6.71906
-0.0500435
0.0548487
-6.71419
6.70911
-0.0474312
0.0525051
-6.70382
6.69827
-0.0467857
0.0523402
-6.69252
6.68663
-0.046808
0.052695
-6.68072
6.67479
-0.0464191
0.0523492
-6.66889
6.66316
-0.0446628
0.0503938
-6.65778
6.65293
-0.0409543
0.0458059
-6.64858
6.64455
-0.0376844
0.0417158
-6.64067
6.63674
-0.0363122
0.0402373
-6.63286
6.62889
-0.0354564
0.0394259
-6.62481
6.62059
-0.0345936
0.0388108
-6.61616
6.61178
-0.0325994
0.036987
-6.60757
6.60369
-0.0295887
0.0334692
-6.60006
6.59628
-0.0291955
0.0329676
-6.59212
6.58775
-0.0299192
0.0342834
0.403321
-0.413125
0.00980383
-0.0394045
0.0597837
0.248874
-0.269253
-0.0856282
0.109746
0.263215
-0.287333
-0.134645
0.160744
0.279618
-0.305717
-0.188933
0.21922
0.264184
-0.294472
-0.250416
0.279116
0.211852
-0.240552
-0.304868
0.327347
0.126991
-0.149469
-0.347968
0.367479
-0.00726819
-0.0122428
-0.386781
0.408796
-0.218841
0.196827
-0.438962
0.48444
-0.526949
0.481471
-0.548609
0.626105
-0.906205
0.828709
-0.719253
0.807367
-1.03394
0.945825
-0.828837
0.774279
-0.516217
0.570774
-0.693544
0.633166
0.288679
-0.228301
-0.571178
0.496946
0.301758
-0.227526
-0.494993
0.553173
-0.129728
0.0715477
-0.654276
0.791534
-1.20309
1.06584
-0.974836
0.847558
-4.63125
4.75853
-0.385306
0.150484
-3.56061
3.79543
-0.284848
0.998377
0.738499
-1.45203
-2.83507
3.60615
6.20596
-6.97704
-3.75776
3.76369
7.30588
-7.31181
-3.81741
3.95496
6.43589
-6.57344
-4.17046
4.44567
5.21878
-5.494
-4.76123
5.09178
4.0188
-4.34936
-5.41102
5.69981
2.94311
-3.2319
-5.94455
6.14211
2.01063
-2.20818
-6.29592
6.41317
1.27479
-1.39203
-6.50085
6.56769
0.754763
-0.821609
-6.6196
6.66073
0.421161
-0.462284
-6.69387
6.72117
0.217701
-0.245001
-6.74388
6.76304
0.0980867
-0.117244
-6.7793
6.79312
0.0284592
-0.0422742
-6.80484
6.8148
-0.0134897
0.00352397
-6.82307
6.82987
-0.0407039
0.0339082
-6.83532
6.83957
-0.0596361
0.0553795
-6.84274
6.84496
-0.0732196
0.0709961
-6.84634
6.847
-0.0824731
0.0818089
-6.84709
6.84685
-0.0875816
0.0878216
-6.84632
6.8454
-0.0896728
0.0905955
-6.84395
6.84219
-0.0878882
0.0896479
-6.84047
6.83899
-0.0813064
0.0827878
-6.83756
6.83599
-0.0747278
0.0763022
-6.83417
6.83202
-0.0690074
0.0711525
-6.82959
6.82693
-0.0632994
0.0659642
-6.82409
6.82104
-0.0586489
0.0617052
-6.81771
6.81402
-0.0567695
0.0604608
-6.80993
6.80542
-0.0572632
0.061774
-6.80057
6.79551
-0.05806
0.0631205
-6.79043
6.78533
-0.0577705
0.0628637
-6.78021
6.77512
-0.0557089
0.0607999
-6.77034
6.76617
-0.050215
0.054388
-6.76267
6.75962
-0.0451721
0.0482243
-6.75665
6.75361
-0.0436319
0.0466748
-6.75054
6.74744
-0.0428845
0.0459774
-6.74418
6.74063
-0.0426307
0.0461744
-6.73672
6.73265
-0.0411392
0.0452111
-6.72874
6.72542
-0.0369904
0.0403124
-6.72259
6.7197
-0.0362735
0.039169
-6.71611
6.71198
-0.0384814
0.0426161
0.414345
-0.410882
-0.00346384
-0.0134661
0.0319918
0.290399
-0.308925
-0.0487131
0.0685009
0.309047
-0.328835
-0.0893031
0.112447
0.330217
-0.35336
-0.137637
0.164903
0.323197
-0.350463
-0.194397
0.226147
0.270866
-0.302615
-0.257278
0.285078
0.173835
-0.201634
-0.308454
0.329202
0.0322278
-0.0529759
-0.348419
0.367372
-0.175987
0.157034
-0.389719
0.422357
-0.440754
0.408116
-0.472681
0.536809
-0.757673
0.693544
-0.619596
0.703826
-0.859881
0.775651
-0.748099
0.734102
-0.601952
0.615949
-0.662735
0.511757
0.122002
0.0289755
-0.35042
0.297965
0.152971
-0.100515
-0.291087
0.29249
-0.0562582
0.0548559
-0.295034
-0.355275
-1.21036
1.86067
0.733158
-0.408282
-4.73951
4.41463
0.030368
0.597903
-3.57966
2.95139
-1.45163
3.26141
2.43774
-4.24752
-4.15544
4.18774
7.42828
-7.46057
-4.19821
4.20855
7.30848
-7.31881
-4.25734
4.36885
6.69121
-6.80273
-4.54284
4.77055
5.73907
-5.96678
-5.0349
5.31466
4.64967
-4.92942
-5.5827
5.8173
3.49189
-3.72649
-6.00743
6.15182
2.37872
-2.52312
-6.26236
6.34887
1.49163
-1.57814
-6.41902
6.48119
0.881898
-0.94407
-6.53822
6.59043
0.505278
-0.557485
-6.63791
6.68067
0.277759
-0.320523
-6.71873
6.75231
0.142502
-0.17609
-6.78177
6.80733
0.0615849
-0.0871376
-6.82938
6.84828
0.0109259
-0.0298275
-6.86422
6.87781
-0.0235612
0.00997269
-6.88924
6.8988
-0.0482272
0.0386669
-6.90675
6.9133
-0.0663551
0.0598055
-6.91863
6.92285
-0.0790882
0.0748703
-6.92618
6.929
-0.0862148
0.0833946
-6.93165
6.93394
-0.0896722
0.08738
-6.93553
6.93642
-0.0898787
0.0889913
-6.93702
6.93778
-0.0829125
0.0821584
-6.93853
6.93898
-0.076628
0.0761742
-6.93904
6.93858
-0.0722748
0.072735
-6.93755
6.93608
-0.0678826
0.0693578
-6.93422
6.932
-0.0641708
0.0663864
-6.9294
6.92636
-0.0636776
0.0667191
-6.92284
6.91887
-0.0659018
0.0698779
-6.91448
6.90981
-0.0678812
0.0725598
-6.90513
6.9006
-0.0675875
0.0721182
-6.89604
6.89137
-0.0656194
0.0702952
-6.88679
6.8828
-0.0583767
0.062373
-6.87963
6.877
-0.0509625
0.0535957
-6.87443
6.87173
-0.0494539
0.0521549
-6.86904
6.86648
-0.0487454
0.0513115
-6.86378
6.8607
-0.049441
0.0525183
-6.8571
6.85305
-0.0492171
0.0532685
-6.849
6.84579
-0.0434732
0.0466798
-6.84357
6.84149
-0.0416312
0.0437124
-6.83862
6.8347
-0.0466253
0.0505406
0.403765
-0.394309
-0.0094567
0.00801793
-0.00183921
0.321476
-0.327655
-0.00984304
0.0241591
0.345975
-0.360291
-0.041156
0.0605689
0.374483
-0.393896
-0.0824827
0.106882
0.376048
-0.400447
-0.134002
0.164073
0.333456
-0.363528
-0.196324
0.2292
0.232528
-0.265404
-0.259103
0.284124
0.0748502
-0.0998715
-0.304541
0.320325
-0.140218
0.124434
-0.332744
0.346007
-0.385875
0.372612
-0.366261
0.402484
-0.641409
0.605186
-0.448692
0.499255
-0.703644
0.653081
-0.549638
0.565244
-0.611522
0.595917
-0.41394
0.327588
-0.167215
0.253567
-0.236429
0.166269
0.0371941
0.0329658
-0.095147
0.106445
-0.0594903
0.0481925
0.853004
-1.48471
-2.63473
3.26644
1.43865
-0.638425
-3.93424
3.13402
0.130238
0.86006
-2.11911
1.12882
-3.09315
4.32958
6.26652
-7.50295
-4.32215
4.35258
7.48631
-7.51674
-4.38686
4.43277
7.34549
-7.3914
-4.507
4.62409
6.91232
-7.02941
-4.78374
4.98494
6.17849
-6.3797
-5.21106
5.43891
5.18261
-5.41047
-5.64381
5.804
3.92657
-4.08677
-5.92308
6.00498
2.63433
-2.71623
-6.09289
6.19449
1.66043
-1.76203
-6.29297
6.39134
1.01856
-1.11693
-6.48172
6.56219
0.624076
-0.70454
-6.63444
6.69794
0.374657
-0.438159
-6.75314
6.80058
0.217327
-0.264767
-6.8409
6.87521
0.11743
-0.151739
-6.90423
6.92862
0.0516376
-0.076037
-6.94892
6.96591
0.00515855
-0.0221441
-6.98048
6.99288
-0.0276861
0.0152879
-7.00335
7.01207
-0.052092
0.0433672
-7.01925
7.02518
-0.0696728
0.0637409
-7.03017
7.03447
-0.0797261
0.0754287
-7.0384
7.04214
-0.0841523
0.0804134
-7.04556
7.04834
-0.0871843
0.0844087
-7.05042
7.05197
-0.0808582
0.0793035
-7.05313
7.05404
-0.0753606
0.0744533
-7.0546
7.0547
-0.0728371
0.072736
-7.05421
7.05305
-0.0706161
0.0717745
-7.05131
7.04903
-0.06855
0.0708278
-7.04629
7.04314
-0.0697354
0.0728806
-7.03966
7.03589
-0.0737233
0.0774868
-7.0319
7.02773
-0.0770343
0.0812031
-7.02352
7.01944
-0.0763632
0.0804487
-7.01556
7.01176
-0.0746179
0.0784177
-7.00795
7.00419
-0.0662667
0.0700226
-7.00081
6.99792
-0.0562787
0.0591708
-6.99526
6.99257
-0.0548621
0.0575572
-6.98998
6.9878
-0.0536692
0.0558419
-6.98546
6.98279
-0.0553713
0.0580453
-6.97964
6.97585
-0.0572499
0.0610418
-6.97143
6.9677
-0.0500792
0.0538159
-6.96537
6.96347
-0.0455519
0.047456
-6.96215
6.95879
-0.0542903
0.0576526
0.382124
-0.365013
-0.0171105
0.0253996
-0.034628
0.325969
-0.31674
0.0301776
-0.0225145
0.371489
-0.379152
0.0105497
0.00479241
0.411185
-0.426527
-0.0232904
0.0448438
0.4232