/*--------------------------------*- C++ -*----------------------------------*\
| =========                 |                                                 |
| \\      /  F ield         | OpenFOAM: The Open Source CFD Toolbox           |
|  \\    /   O peration     | Version:  v1912                                 |
|   \\  /    A nd           | Website:  www.openfoam.com                      |
|    \\/     M anipulation  |                                                 |
\*---------------------------------------------------------------------------*/
FoamFile
{
    version     2.0;
    format      ascii;
    class       volVectorField;
    location    "26";
    object      U;
}
// * * * * * * * * * * * * * * * * * * * * * * * * * * * * * * * * * * * * * //

dimensions      [0 1 -1 0 0 0 0];


internalField   nonuniform List<vector> 
20320
(
(1.85638 0.00628391 0)
(1.85494 -0.00523846 0)
(1.83951 0.00432936 0)
(1.81007 0.0122264 0)
(1.76912 0.0193333 0)
(1.71767 0.0262249 0)
(1.65593 0.0324556 0)
(1.58425 0.0384358 0)
(1.50316 0.0441155 0)
(1.41315 0.0496439 0)
(1.31475 0.0549012 0)
(1.2085 0.0596404 0)
(1.09507 0.0640082 0)
(0.975089 0.068028 0)
(0.849369 0.0718629 0)
(0.718332 0.074848 0)
(0.582281 0.0767101 0)
(0.441111 0.0793045 0)
(0.292719 0.086593 0)
(0.12501 0.146974 0)
(1.85652 0.0112726 0)
(1.84791 0.0356378 0)
(1.82852 0.0666796 0)
(1.79819 0.0978628 0)
(1.75689 0.128456 0)
(1.70485 0.158353 0)
(1.64242 0.187367 0)
(1.57005 0.215331 0)
(1.48811 0.242089 0)
(1.39701 0.267531 0)
(1.29723 0.291575 0)
(1.18922 0.314124 0)
(1.07345 0.335029 0)
(0.950415 0.354103 0)
(0.820652 0.371143 0)
(0.684881 0.385956 0)
(0.544023 0.39859 0)
(0.399594 0.409427 0)
(0.253776 0.421163 0)
(0.105833 0.469904 0)
(1.85651 0.0170486 0)
(1.84797 0.0698428 0)
(1.8284 0.125481 0)
(1.79783 0.180622 0)
(1.75648 0.234906 0)
(1.70451 0.287907 0)
(1.64207 0.339275 0)
(1.56954 0.38871 0)
(1.48734 0.435961 0)
(1.39595 0.480838 0)
(1.29593 0.523172 0)
(1.18788 0.562866 0)
(1.07238 0.59988 0)
(0.949943 0.634097 0)
(0.820988 0.665178 0)
(0.685938 0.692483 0)
(0.545481 0.714825 0)
(0.400813 0.729763 0)
(0.251853 0.745355 0)
(0.102247 0.787113 0)
(1.85651 0.0228327 0)
(1.84821 0.0997979 0)
(1.829 0.179142 0)
(1.79875 0.257647 0)
(1.7577 0.334887 0)
(1.70603 0.410318 0)
(1.6439 0.483477 0)
(1.57161 0.553953 0)
(1.48951 0.621357 0)
(1.398 0.685303 0)
(1.2976 0.745416 0)
(1.18894 0.801443 0)
(1.07278 0.853326 0)
(0.94992 0.901111 0)
(0.82109 0.944736 0)
(0.686861 0.983608 0)
(0.547808 1.01584 0)
(0.404354 1.0377 0)
(0.25464 1.05965 0)
(0.102676 1.10157 0)
(1.85651 0.0283004 0)
(1.84834 0.127852 0)
(1.82943 0.229521 0)
(1.79966 0.330175 0)
(1.7592 0.429316 0)
(1.7082 0.526284 0)
(1.64677 0.620505 0)
(1.57519 0.711462 0)
(1.49376 0.798649 0)
(1.40279 0.881531 0)
(1.30274 0.959517 0)
(1.19412 1.03209 0)
(1.07762 1.0989 0)
(0.95407 1.15981 0)
(0.824411 1.21485 0)
(0.68958 1.26369 0)
(0.550489 1.30446 0)
(0.407207 1.33414 0)
(0.257214 1.36389 0)
(0.103449 1.41073 0)
(1.85651 0.033441 0)
(1.84854 0.154349 0)
(1.8301 0.277152 0)
(1.80104 0.398844 0)
(1.76147 0.51886 0)
(1.71151 0.63644 0)
(1.6512 0.750917 0)
(1.58073 0.861675 0)
(1.50035 0.9681 0)
(1.4103 1.06952 0)
(1.31096 1.16517 0)
(1.20277 1.25431 0)
(1.08632 1.33631 0)
(0.962331 1.41069 0)
(0.831747 1.47718 0)
(0.695708 1.53544 0)
(0.555488 1.58388 0)
(0.411157 1.62122 0)
(0.260397 1.65867 0)
(0.104607 1.71196 0)
(1.85651 0.0382152 0)
(1.84884 0.179115 0)
(1.83105 0.321716 0)
(1.803 0.463194 0)
(1.76472 0.602949 0)
(1.71625 0.740153 0)
(1.65754 0.874059 0)
(1.5887 1.00397 0)
(1.50985 1.12917 0)
(1.42116 1.24885 0)
(1.32289 1.36207 0)
(1.21541 1.46789 0)
(1.0992 1.5654 0)
(0.974903 1.6538 0)
(0.843369 1.73236 0)
(0.705808 1.8004 0)
(0.563728 1.85648 0)
(0.417352 1.90138 0)
(0.265074 1.94587 0)
(0.106402 2.005 0)
(1.85651 0.0425789 0)
(1.84923 0.201945 0)
(1.83235 0.362856 0)
(1.80567 0.522738 0)
(1.76915 0.680997 0)
(1.72272 0.836766 0)
(1.66623 0.989253 0)
(1.59964 1.1377 0)
(1.52295 1.28128 0)
(1.43617 1.41906 0)
(1.33943 1.54992 0)
(1.23299 1.67269 0)
(1.11722 1.78623 0)
(0.992637 1.88936 0)
(0.86003 1.98089 0)
(0.720594 2.05955 0)
(0.575966 2.12392 0)
(0.426546 2.17654 0)
(0.271523 2.22748 0)
(0.108343 2.29051 0)
(1.85651 0.0464815 0)
(1.84975 0.22261 0)
(1.83407 0.400173 0)
(1.80919 0.576923 0)
(1.77501 0.752323 0)
(1.7313 0.925511 0)
(1.67777 1.09569 0)
(1.61422 1.26205 0)
(1.54046 1.42369 0)
(1.45631 1.57954 0)
(1.36173 1.7283 0)
(1.25679 1.86856 0)
(1.1417 1.99887 0)
(1.01689 2.11773 0)
(0.883011 2.22341 0)
(0.741236 2.31397 0)
(0.593293 2.38775 0)
(0.439838 2.44867 0)
(0.280901 2.50562 0)
(0.110959 2.56999 0)
(1.85651 0.0498698 0)
(1.85042 0.240854 0)
(1.83626 0.433214 0)
(1.8137 0.625118 0)
(1.78252 0.81614 0)
(1.74233 1.00548 0)
(1.69268 1.19237 0)
(1.63316 1.376 0)
(1.56331 1.55542 0)
(1.48275 1.72943 0)
(1.39116 1.89654 0)
(1.28839 2.05507 0)
(1.17442 2.20329 0)
(1.04949 2.33925 0)
(0.914123 2.46069 0)
(0.769409 2.56485 0)
(0.617151 2.6497 0)
(0.458373 2.72001 0)
(0.294007 2.78323 0)
(0.114345 2.84634 0)
(1.85652 0.0526894 0)
(1.85125 0.256412 0)
(1.83898 0.461507 0)
(1.81931 0.66665 0)
(1.79189 0.871586 0)
(1.75617 1.07564 0)
(1.71148 1.27814 0)
(1.65716 1.47832 0)
(1.59249 1.67522 0)
(1.51676 1.86755 0)
(1.42933 2.05364 0)
(1.32969 2.23154 0)
(1.21755 2.39916 0)
(1.09282 2.55411 0)
(0.955815 2.69346 0)
(0.807479 2.81358 0)
(0.649655 2.91176 0)
(0.483825 2.99312 0)
(0.311723 3.06344 0)
(0.117978 3.12241 0)
(1.85652 0.0548901 0)
(1.85225 0.269022 0)
(1.84225 0.484578 0)
(1.82608 0.700827 0)
(1.80325 0.917751 0)
(1.77304 1.13487 0)
(1.73456 1.35168 0)
(1.68687 1.56754 0)
(1.62892 1.78152 0)
(1.55963 1.99231 0)
(1.47793 2.19812 0)
(1.38287 2.39673 0)
(1.27368 2.58569 0)
(1.14985 2.76209 0)
(1.01129 2.92229 0)
(0.858671 3.06158 0)
(0.6938 3.17626 0)
(0.5187 3.2712 0)
(0.336023 3.35026 0)
(0.122207 3.40275 0)
(1.85652 0.056432 0)
(1.85341 0.278457 0)
(1.84607 0.502004 0)
(1.83402 0.72701 0)
(1.81663 0.953756 0)
(1.79305 1.18203 0)
(1.76215 1.41159 0)
(1.72274 1.64198 0)
(1.67338 1.87243 0)
(1.61256 2.1017 0)
(1.53872 2.32793 0)
(1.45029 2.54877 0)
(1.34585 2.7614 0)
(1.22425 2.96242 0)
(1.08472 3.14734 0)
(0.927378 3.3102 0)
(0.753797 3.44586 0)
(0.566501 3.55826 0)
(0.369113 3.64896 0)
(0.126585 3.69331 0)
(1.85652 0.0572892 0)
(1.85472 0.284547 0)
(1.8504 0.513455 0)
(1.84303 0.744669 0)
(1.83192 0.978821 0)
(1.81608 1.21604 0)
(1.79422 1.45642 0)
(1.76488 1.69982 0)
(1.72628 1.94574 0)
(1.67644 2.19316 0)
(1.61321 2.44033 0)
(1.5343 2.68487 0)
(1.43741 2.92379 0)
(1.3204 3.15322 0)
(1.18144 3.36789 0)
(1.01961 3.56035 0)
(0.835753 3.72344 0)
(0.632648 3.8592 0)
(0.414762 3.96639 0)
(0.131963 4.0028 0)
(1.85653 0.0574554 0)
(1.85615 0.287202 0)
(1.85513 0.518738 0)
(1.85292 0.753452 0)
(1.84882 0.992359 0)
(1.84176 1.23598 0)
(1.83036 1.48484 0)
(1.81296 1.73922 0)
(1.7875 1.99904 0)
(1.75157 2.26368 0)
(1.7024 2.53174 0)
(1.6369 2.80109 0)
(1.5517 3.06881 0)
(1.44326 3.33093 0)
(1.30813 3.58153 0)
(1.14351 3.81167 0)
(0.948566 4.01154 0)
(0.725558 4.17995 0)
(0.479456 4.31174 0)
(0.142439 4.34291 0)
(1.85653 0.0569475 0)
(1.85765 0.28644 0)
(1.86011 0.517846 0)
(1.86341 0.75326 0)
(1.86687 0.994085 0)
(1.86944 1.24127 0)
(1.86975 1.4958 0)
(1.86607 1.75852 0)
(1.85618 2.02991 0)
(1.83737 2.30995 0)
(1.80635 2.59789 0)
(1.75924 2.89223 0)
(1.6915 3.19062 0)
(1.5979 3.48951 0)
(1.47266 3.78305 0)
(1.30993 4.06127 0)
(1.10539 4.31138 0)
(0.858696 4.52742 0)
(0.5739 4.69833 0)
(0.164589 4.73351 0)
(1.85654 0.0558053 0)
(1.85918 0.282393 0)
(1.86519 0.510978 0)
(1.87414 0.744291 0)
(1.88545 0.98409 0)
(1.89821 1.23173 0)
(1.91117 1.48873 0)
(1.9227 1.7565 0)
(1.9306 2.03622 0)
(1.9321 2.32869 0)
(1.92365 2.63408 0)
(1.90081 2.95196 0)
(1.85802 3.28121 0)
(1.78837 3.61965 0)
(1.68328 3.96276 0)
(1.53252 4.30111 0)
(1.32551 4.61987 0)
(1.05471 4.9075 0)
(0.718414 5.1436 0)
(0.211881 5.2045 0)
(1.85654 0.0540907 0)
(1.86067 0.275306 0)
(1.87016 0.498543 0)
(1.88471 0.72706 0)
(1.90388 0.962898 0)
(1.92699 1.20777 0)
(1.95307 1.46368 0)
(1.98075 1.73264 0)
(2.00814 2.01656 0)
(2.0327 2.31716 0)
(2.05103 2.63578 0)
(2.05863 2.97342 0)
(2.04953 3.33086 0)
(2.01571 3.70839 0)
(1.94619 4.10477 0)
(1.82589 4.51418 0)
(1.63527 4.92369 0)
(1.35193 5.31944 0)
(0.955875 5.67035 0)
(0.316133 5.80985 0)
(1.85654 0.0518818 0)
(1.86207 0.265526 0)
(1.87485 0.481145 0)
(1.89471 0.702383 0)
(1.92142 0.931468 0)
(1.95462 1.17038 0)
(1.9937 1.42151 0)
(2.03776 1.6874 0)
(2.08546 1.97063 0)
(2.13485 2.27384 0)
(2.1832 2.59955 0)
(2.22667 2.95038 0)
(2.25988 3.32933 0)
(2.27516 3.74006 0)
(2.26107 4.18649 0)
(2.19983 4.67054 0)
(2.06377 5.18887 0)
(1.81055 5.73768 0)
(1.37603 6.29319 0)
(0.563723 6.64314 0)
(1.85655 0.0492682 0)
(1.86334 0.253473 0)
(1.87909 0.45953 0)
(1.90379 0.671319 0)
(1.93745 0.891135 0)
(1.98003 1.1211 0)
(2.03138 1.36386 0)
(2.09121 1.62232 0)
(2.1589 1.8996 0)
(2.23345 2.19903 0)
(2.31325 2.52415 0)
(2.39588 2.87895 0)
(2.47781 3.26844 0)
(2.55369 3.69953 0)
(2.61509 4.18181 0)
(2.64757 4.72749 0)
(2.62496 5.35076 0)
(2.49922 6.07773 0)
(2.15888 6.95349 0)
(1.29516 7.82818 0)
(0.21461 -0.154297 0)
(0.492838 -0.0573655 0)
(0.812822 -0.0534928 0)
(1.15812 -0.0598427 6.98733e-21)
(1.48861 -0.0510607 0)
(1.74591 -0.0371601 0)
(1.88605 -0.0108306 0)
(1.78566 0.0489644 0)
(1.15704 0.194783 0)
(-0.761468 0.557696 5.15165e-22)
(-4.52675 0.824102 0)
(-10.5937 0.477946 0)
(-10.9266 -0.360949 -2.00614e-20)
(-11.8758 -0.391574 -6.24976e-21)
(-11.4449 -0.0438365 0)
(-11.3682 -0.0233773 1.60422e-21)
(-11.3946 -0.0212503 -1.37247e-21)
(-11.6011 0.0671398 3.51006e-21)
(-12.0314 0.0509 0)
(-12.3189 -0.0651226 1.72471e-21)
(-12.4983 -0.269985 1.32932e-21)
(-12.7051 -1.01715 4.986e-19)
(-0.107725 -3.48461 -1.91883e-19)
(10.6046 -1.59719 -1.35499e-19)
(16.396 -0.874151 0)
(19.8715 -0.561933 -1.21578e-19)
(22.1205 -0.370608 0)
(23.5658 -0.240313 6.49111e-20)
(24.4463 -0.151521 8.62752e-20)
(24.9454 -0.092446 0)
(25.2005 -0.0540126 1.68624e-20)
(25.3059 -0.0283517 -1.01009e-20)
(25.3199 -0.00924788 2.98065e-21)
(25.2785 -0.0036343 -1.6205e-21)
(25.1974 0.000643334 0)
(25.0907 0.00435075 0)
(24.9651 0.00750693 -1.01334e-22)
(24.8269 0.0100643 0)
(24.6813 0.0119396 -1.23697e-22)
(24.5335 0.0129467 0)
(24.3891 0.0128654 0)
(24.2539 0.0119932 -1.3246e-22)
(24.1307 0.0107317 0)
(24.0202 0.00924246 0)
(23.9228 0.00777346 8.82439e-23)
(23.8372 0.00657924 9.22352e-23)
(23.7595 0.00589703 0)
(23.6859 0.00569841 -6.29591e-23)
(23.6137 0.00588727 7.82896e-23)
(23.5422 0.0064152 -9.28498e-23)
(23.4737 0.00707485 0)
(23.4101 0.00743823 1.12992e-22)
(23.3493 0.00697079 0)
(23.2855 0.00560681 -4.74539e-23)
(23.2188 0.00513393 0)
(23.1609 0.00698654 0)
(23.1214 0.00734294 6.76332e-26)
(23.0863 0.00395962 -3.3658e-26)
(23.0427 0.00333071 0)
(23.0035 0.00602074 0)
(0.330772 -0.391789 0)
(0.533359 -0.197354 0)
(0.786029 -0.196172 -4.65228e-21)
(1.06888 -0.208851 0)
(1.33159 -0.184938 0)
(1.53905 -0.135653 7.18973e-21)
(1.65488 -0.0497095 -6.20875e-21)
(1.60954 0.12103 0)
(1.28593 0.477429 -3.51284e-25)
(0.541942 1.245 2.86952e-21)
(-0.867662 2.23877 -2.47244e-24)
(-2.64768 1.96663 9.34393e-20)
(-1.73571 1.75015 -2.09094e-18)
(-7.4617 0.638897 0)
(-10.2985 0.0370109 0)
(-11.2833 -0.00783323 -3.54023e-20)
(-11.4712 0.00668773 0)
(-11.8323 0.104664 0)
(-12.2252 0.143973 1.73488e-22)
(-12.4001 -0.0551096 0)
(-11.6235 -0.359111 0)
(-5.01478 -0.990881 0)
(5.47863 -7.80327 -1.86462e-19)
(11.7287 -4.83464 -6.10357e-20)
(16.5423 -2.92926 1.04108e-19)
(19.9086 -1.90975 9.62438e-20)
(22.2072 -1.25602 0)
(23.718 -0.798064 0)
(24.6554 -0.479817 3.71808e-20)
(25.1998 -0.268477 -1.83717e-23)
(25.4906 -0.134662 0)
(25.6245 -0.0534123 4.64564e-24)
(25.665 -0.00442809 -4.94928e-21)
(25.6499 0.0290416 0)
(25.5987 0.0507467 0)
(25.5246 0.0656285 -4.88975e-22)
(25.4344 0.0759318 0)
(25.3334 0.0826604 0)
(25.226 0.0861769 0)
(25.1159 0.086526 1.9543e-22)
(25.0072 0.0832755 1.80102e-22)
(24.9047 0.0772571 -3.10962e-22)
(24.8103 0.0702673 1.25025e-22)
(24.7242 0.0629785 0)
(24.6465 0.0558446 -9.33198e-23)
(24.5765 0.0499224 0)
(24.5117 0.0461363 1.08335e-22)
(24.4495 0.0443897 -6.55106e-23)
(24.388 0.0438314 -7.99715e-23)
(24.3271 0.0434514 9.31879e-23)
(24.2677 0.042192 -1.03924e-22)
(24.2121 0.0397765 -1.10857e-22)
(24.161 0.0373523 2.15306e-22)
(24.1122 0.0355624 0)
(24.0646 0.0344218 0)
(24.0181 0.0334795 0)
(23.9742 0.0304799 0)
(23.935 0.0262985 -5.52167e-24)
(23.8977 0.0259784 -6.18906e-24)
(23.86 0.026641 0)
(0.394853 -0.587375 0)
(0.539353 -0.322389 -2.14762e-21)
(0.743562 -0.320929 0)
(0.99874 -0.346665 -5.21825e-21)
(1.22249 -0.311848 -5.8599e-21)
(1.40176 -0.2374 -5.95488e-21)
(1.50892 -0.111885 0)
(1.50411 0.116907 -4.46401e-21)
(1.34657 0.538654 0)
(1.06092 1.31685 0)
(0.911439 2.38958 0)
(1.13076 2.38186 0)
(1.42716 0.440376 0)
(3.00632 0.644834 0)
(4.40803 -0.256677 0)
(10.5689 1.68047 0)
(6.85643 4.13286 0)
(-2.39368 3.16692 -2.8359e-19)
(-10.6377 1.73709 0)
(-12.673 0.519421 0)
(-9.85907 -1.09902 0)
(9.08139 -9.84684 0)
(11.0958 -10.7375 0)
(14.233 -7.58481 0)
(17.4982 -5.09504 0)
(20.2938 -3.46503 0)
(22.3394 -2.31879 0)
(23.6905 -1.48241 0)
(24.5084 -0.89245 3.34028e-20)
(24.9675 -0.500346 0)
(25.2044 -0.252831 -1.31323e-20)
(25.3109 -0.102817 0)
(25.3438 -0.0131509 0)
(25.3351 0.0414505 0)
(25.3014 0.0767631 0)
(25.2516 0.100858 0)
(25.1906 0.117567 -2.08781e-23)
(25.1218 0.128533 0)
(25.0485 0.134412 0)
(24.9731 0.135565 0)
(24.8982 0.130994 -1.38063e-22)
(24.8278 0.121646 1.15612e-22)
(24.7634 0.111092 -8.67347e-23)
(24.7036 0.100398 0)
(24.6481 0.0898898 -6.09068e-23)
(24.5966 0.0812108 0)
(24.547 0.0759934 0)
(24.4971 0.0739719 0)
(24.446 0.0734375 0)
(24.3947 0.0726799 8.38948e-23)
(24.3444 0.0700346 0)
(24.2983 0.0650156 2.05712e-22)
(24.2579 0.0605999 0)
(24.2203 0.0582935 0)
(24.1834 0.0566302 3.5994e-23)
(24.1461 0.0546899 -2.76977e-23)
(24.1087 0.0507356 4.08927e-23)
(24.0739 0.045834 -5.22607e-24)
(24.0417 0.0452452 0)
(24.0085 0.045799 4.18411e-24)
(0.426456 -0.73035 0)
(0.495531 -0.427211 0)
(0.689785 -0.439137 0)
(0.913269 -0.468371 0)
(1.11424 -0.430767 5.33414e-21)
(1.28035 -0.338365 0)
(1.38062 -0.187867 0)
(1.39991 0.0670751 7.78199e-24)
(1.32896 0.492588 0)
(1.23786 1.17405 1.16199e-23)
(1.35362 2.03379 -2.06574e-20)
(2.12183 2.29682 0)
(2.50315 0.752669 0)
(2.50952 -0.663856 -1.66409e-23)
(3.07165 -0.531988 9.12709e-24)
(3.14467 0.481047 7.14442e-24)
(3.76256 2.96849 1.12321e-20)
(2.51698 8.12104 0)
(-5.10461 5.08081 6.92632e-20)
(-4.74097 -0.343792 0)
(3.71708 -6.76277 -9.10084e-22)
(15.4976 -13.9972 -3.31506e-22)
(15.2732 -12.1541 -3.07823e-22)
(16.7553 -9.34313 2.70312e-20)
(18.8612 -6.8429 -6.14586e-20)
(20.9991 -4.87114 0)
(22.6382 -3.30913 0)
(23.6857 -2.11197 -1.21349e-22)
(24.2773 -1.26077 8.58167e-23)
(24.5907 -0.702536 0)
(24.7512 -0.356354 1.14114e-20)
(24.8309 -0.150652 0)
(24.8682 -0.0304723 0)
(24.8815 0.0416426 0)
(24.8792 0.0877333 -2.00523e-21)
(24.865 0.119167 0)
(24.8413 0.141237 0)
(24.8103 0.155936 1.02139e-22)
(24.7747 0.163946 -2.88569e-22)
(24.7368 0.166413 1.39486e-22)
(24.6971 0.161683 2.44264e-22)
(24.6601 0.149879 0)
(24.6266 0.137316 1.35207e-22)
(24.5938 0.125363 0)
(24.5609 0.113558 4.35024e-23)
(24.528 0.103916 -5.19117e-23)
(24.4938 0.0989256 0)
(24.456 0.0980342 -4.59282e-23)
(24.4148 0.098353 0)
(24.3724 0.0976163 7.92804e-23)
(24.3305 0.0939203 9.04222e-23)
(24.2926 0.0857589 -1.02006e-22)
(24.262 0.0785654 9.89109e-23)
(24.2344 0.0757404 8.54585e-23)
(24.2065 0.0740807 0)
(24.1775 0.0725656 -2.769e-23)
(24.146 0.068733 -2.09114e-23)
(24.1162 0.0623436 6.57414e-24)
(24.0903 0.061495 0)
(24.0617 0.0633736 0)
(0.407676 -0.8027 -1.34895e-22)
(0.425848 -0.509547 6.45368e-22)
(0.610308 -0.541355 0)
(0.800195 -0.575109 -3.95339e-21)
(0.985705 -0.549285 4.83063e-21)
(1.15417 -0.44321 0)
(1.25738 -0.270483 0)
(1.28584 -0.00459326 1.04153e-23)
(1.24699 0.407698 -7.59836e-24)
(1.2225 0.988027 7.93429e-21)
(1.3874 1.69754 1.51378e-20)
(1.98149 1.94058 -4.6746e-23)
(2.50005 1.07444 -1.10481e-20)
(2.58652 -0.492451 0)
(2.08625 -0.524975 -4.96726e-22)
(1.81022 0.150893 9.3682e-20)
(1.70876 2.23967 0)
(0.872682 9.08497 1.02636e-19)
(-1.92467 7.40883 -3.30603e-20)
(2.37707 -1.99146 0)
(17.9269 -13.256 -1.08742e-18)
(18.2569 -14.3602 1.13706e-22)
(17.8708 -12.7839 0)
(18.6313 -10.5337 0)
(20.1105 -8.22921 5.36862e-20)
(21.7125 -6.07483 2.46629e-22)
(22.8833 -4.1533 0)
(23.5384 -2.62459 0)
(23.8641 -1.54938 1.14202e-22)
(24.0479 -0.866089 0)
(24.1758 -0.451748 -1.86396e-20)
(24.2766 -0.208778 -3.25451e-23)
(24.3586 -0.0670648 2.9685e-21)
(24.4229 0.0189595 -3.07729e-21)
(24.4705 0.0748771 1.40185e-21)
(24.5021 0.114252 3.90842e-22)
(24.5201 0.142749 0)
(24.5275 0.162308 -6.92121e-25)
(24.5276 0.173122 0)
(24.5244 0.177885 -1.37265e-22)
(24.516 0.17509 -1.1526e-22)
(24.5073 0.161772 -1.05593e-22)
(24.5003 0.14888 -5.63659e-23)
(24.49 0.138117 3.10678e-23)
(24.4751 0.127306 -3.38673e-23)
(24.4568 0.118481 -4.38478e-23)
(24.4343 0.115367 1.10077e-22)
(24.4057 0.117102 -3.21449e-26)
(24.3717 0.119158 -5.82439e-23)
(24.3362 0.118616 7.71675e-23)
(24.3007 0.114519 -8.76855e-23)
(24.2683 0.102765 0)
(24.2448 0.0918191 -1.02138e-22)
(24.2244 0.0887803 8.32428e-23)
(24.2032 0.0873761 0)
(24.1805 0.0872948 -2.78118e-23)
(24.1533 0.0847796 -2.24756e-23)
(24.1265 0.0759307 -9.20993e-26)
(24.1069 0.074236 0)
(24.0827 0.0796311 -1.18493e-23)
(0.381564 -0.805374 -3.11169e-22)
(0.365447 -0.587695 0)
(0.50507 -0.624368 1.04148e-23)
(0.669996 -0.668926 0)
(0.837164 -0.658812 0)
(0.995947 -0.560762 -4.89747e-21)
(1.12279 -0.365525 0)
(1.16151 -0.0827155 4.83269e-21)
(1.12049 0.324242 -4.75273e-21)
(1.07039 0.824875 1.18738e-20)
(1.17579 1.41775 -1.1314e-20)
(1.70618 1.59277 -2.45115e-20)
(2.15428 1.18875 2.7059e-20)
(2.32672 -0.070113 -2.93555e-20)
(1.19807 -0.260641 0)
(1.02053 0.117874 -1.17743e-20)
(-0.674566 2.79164 0)
(-5.43494 9.13265 0)
(-1.6847 6.5635 -1.14181e-19)
(9.54526 -6.24656 0)
(19.6245 -14.5002 0)
(19.4078 -14.2968 1.65326e-20)
(19.2937 -13.1831 8.31139e-21)
(19.8707 -11.4452 0)
(21.0206 -9.37249 -5.06431e-20)
(22.1615 -7.06661 0)
(22.8058 -4.79804 5.45356e-20)
(23.0585 -3.01855 0)
(23.2145 -1.80829 4.0326e-20)
(23.4078 -1.06006 0)
(23.619 -0.599645 -5.05605e-21)
(23.815 -0.319804 2.54607e-21)
(23.9801 -0.149563 0)
(24.1101 -0.0414681 -7.67336e-22)
(24.2069 0.031459 3.92644e-22)
(24.2768 0.0843743 -2.33414e-22)
(24.3259 0.123067 3.56628e-25)
(24.3592 0.150419 6.35625e-24)
(24.3812 0.165882 6.15816e-23)
(24.3997 0.173239 -6.36151e-25)
(24.4122 0.174935 0)
(24.4202 0.161556 4.85202e-23)
(24.4285 0.149506 -3.7806e-23)
(24.4312 0.141883 0)
(24.4262 0.134292 -1.30744e-25)
(24.415 0.127823 -5.54958e-23)
(24.3978 0.127691 5.77576e-23)
(24.3735 0.132968 3.69077e-23)
(24.3432 0.137558 2.11314e-23)
(24.3115 0.136998 4.60973e-23)
(24.2808 0.133295 -5.70302e-23)
(24.251 0.118502 -1.10783e-22)
(24.2304 0.102662 1.01232e-22)
(24.2133 0.0997343 0)
(24.1954 0.0982267 -7.07759e-23)
(24.1771 0.10017 0)
(24.1525 0.100807 -2.39694e-23)
(24.1256 0.0886271 0)
(24.1104 0.0837975 0)
(24.0913 0.0956499 0)
(0.365721 -0.775242 9.32339e-22)
(0.287557 -0.634018 0)
(0.387661 -0.688383 0)
(0.52764 -0.748187 3.25183e-21)
(0.676582 -0.755883 0)
(0.822945 -0.678322 0)
(0.953742 -0.483831 0)
(1.01823 -0.168554 0)
(0.974241 0.257387 0)
(0.860472 0.733687 0)
(0.826059 1.20084 0)
(1.10291 1.30631 -1.6997e-20)
(1.47903 1.18233 0)
(0.863807 0.389089 0)
(0.718683 -0.010088 1.00843e-20)
(0.212098 0.146336 0)
(-7.74567 5.69321 8.95346e-22)
(-6.3093 7.41994 0)
(-0.552092 3.08248 -3.74354e-22)
(20.0514 -14.7602 0)
(19.8455 -14.5927 0)
(19.8761 -14.3213 -1.44669e-21)
(20.0326 -13.5555 -6.55392e-21)
(20.6202 -12.2187 2.736e-20)
(21.5134 -10.3146 -5.19853e-20)
(22.1073 -7.82686 0)
(22.1609 -5.36171 2.21619e-22)
(22.1677 -3.33866 1.55195e-22)
(22.4889 -1.98879 0)
(22.8868 -1.18421 3.0189e-20)
(23.2546 -0.694107 0)
(23.5586 -0.393419 3.20345e-20)
(23.7916 -0.206699 -1.65658e-22)
(23.9639 -0.0855157 2.59849e-20)
(24.0866 -0.00429819 0)
(24.1734 0.0619974 -2.15225e-20)
(24.2374 0.108189 1.97224e-20)
(24.2819 0.140207 1.72074e-20)
(24.3143 0.158459 6.86655e-21)
(24.3417 0.166453 5.32368e-21)
(24.3656 0.171378 0)
(24.3834 0.159024 -3.46511e-21)
(24.3946 0.147753 -3.22021e-21)
(24.4005 0.141992 -1.02032e-24)
(24.3989 0.136818 0)
(24.3886 0.131981 -2.61913e-21)
(24.3705 0.133535 2.34383e-21)
(24.3466 0.14094 -2.00031e-21)
(24.3195 0.14768 0)
(24.2917 0.147112 -6.1866e-22)
(24.2662 0.144245 0)
(24.2422 0.128785 0)
(24.2211 0.109686 0)
(24.2035 0.107013 0)
(24.1872 0.104899 0)
(24.1717 0.108229 0)
(24.1505 0.111957 0)
(24.1226 0.0984512 9.61058e-23)
(24.1058 0.0899882 -4.32883e-24)
(24.0959 0.106493 1.42313e-23)
(0.324819 -0.72383 0)
(0.196262 -0.62464 -7.77018e-24)
(0.258065 -0.728437 2.54086e-21)
(0.371543 -0.811946 3.00359e-21)
(0.503964 -0.840818 0)
(0.63959 -0.787187 0)
(0.764929 -0.609775 0)
(0.841295 -0.277455 4.72152e-21)
(0.817086 0.192771 0)
(0.660055 0.707316 0)
(0.489084 1.12807 0)
(0.443618 1.22253 -3.02556e-21)
(0.41309 1.18301 0)
(0.0906093 0.713735 0)
(0.101361 0.279865 2.51807e-20)
(-2.27322 3.31888 0)
(-9.14786 5.93918 0)
(-4.91734 3.07531 0)
(4.27133 -0.493206 6.34481e-19)
(19.4581 -14.7424 -2.21461e-20)
(19.7451 -14.6762 0)
(20.0199 -14.5 -1.00335e-20)
(20.3977 -13.957 -1.55476e-20)
(20.978 -12.8842 -3.25027e-20)
(21.4839 -11.0307 -5.84758e-20)
(21.3679 -8.42002 0)
(20.9628 -5.4531 0)
(21.4555 -3.79995 0)
(21.6887 -2.48827 0)
(21.9713 -1.59856 0)
(22.2064 -1.01813 0)
(22.384 -0.633699 1.99398e-20)
(22.5116 -0.37723 0)
(22.5996 -0.203179 0)
(22.6601 -0.0794523 -8.45555e-21)
(22.7077 0.00192551 -6.36854e-21)
(22.774 0.0230754 1.12333e-25)
(22.8969 0.0118102 0)
(23.0498 0.0484358 0)
(23.1695 0.102134 0)
(23.2468 0.129358 0)
(23.2949 0.136379 0)
(23.3168 0.137445 0)
(23.3275 0.140526 0)
(23.3335 0.144495 0)
(23.3347 0.148782 0)
(23.3322 0.156124 0)
(23.3302 0.165934 0)
(23.3298 0.1744 0)
(23.3278 0.174953 -2.54203e-22)
(23.3237 0.169797 0)
(23.3197 0.154628 0)
(23.3085 0.132926 0)
(23.2966 0.126642 0)
(23.29 0.121623 -2.13781e-22)
(23.2873 0.127827 0)
(23.3089 0.134212 0)
(23.4408 0.108412 0)
(23.5662 0.10422 0)
(23.4545 0.12357 1.29654e-23)
(0.253187 -0.630349 -1.89174e-21)
(0.0928446 -0.56966 0)
(0.115515 -0.73908 4.34333e-21)
(0.200459 -0.858203 0)
(0.316836 -0.913517 0)
(0.444206 -0.886375 0)
(0.565557 -0.733689 -3.66679e-21)
(0.640477 -0.401244 0)
(0.625979 0.102866 7.38539e-21)
(0.479214 0.710233 0)
(0.211559 1.16567 -5.89211e-22)
(-0.0587346 1.32913 4.06773e-23)
(-0.344063 1.33528 0)
(-0.335498 0.938382 0)
(-0.746712 0.648591 -6.22974e-20)
(-2.63595 3.59488 6.49746e-20)
(-6.02128 5.51984 3.30111e-19)
(-4.53117 2.46389 5.68698e-20)
(19.2074 -15.5105 -2.41813e-19)
(19.2143 -14.8386 0)
(19.5961 -14.8808 1.49295e-20)
(20.052 -14.7818 -1.63974e-20)
(20.5259 -14.3637 0)
(20.9655 -13.4104 4.02955e-20)
(20.9338 -11.6125 0)
(21.2764 -8.15768 -2.31154e-19)
(20.4441 -5.86403 3.57022e-20)
(20.3229 -4.02145 0)
(20.4022 -2.70599 0)
(20.5467 -1.8005 0)
(20.713 -1.17071 2.1177e-20)
(20.8598 -0.743028 1.61416e-20)
(20.9725 -0.453118 -2.42315e-20)
(21.0522 -0.255294 0)
(21.1078 -0.119526 6.73859e-21)
(21.1528 -0.0351275 -1.04821e-20)
(21.1982 -0.010048 -4.44476e-21)
(21.2342 -0.0247429 5.60552e-21)
(21.2694 0.00387648 -7.53209e-22)
(21.3267 0.0625068 -8.64543e-23)
(21.3892 0.10228 -2.18645e-24)
(21.439 0.120999 -1.63515e-24)
(21.4743 0.128317 1.45082e-22)
(21.5003 0.131681 2.32903e-22)
(21.5223 0.133763 2.7666e-22)
(21.5411 0.136304 -3.12238e-22)
(21.5576 0.141319 0)
(21.5732 0.148699 -3.81575e-22)
(21.5886 0.15581 -1.0662e-24)
(21.6027 0.15817 0)
(21.6147 0.154497 0)
(21.6247 0.142565 0)
(21.628 0.126963 0)
(21.6297 0.118649 4.31273e-22)
(21.6368 0.112578 0)
(21.6537 0.106917 0)
(21.6948 0.0817736 7.0519e-23)
(21.742 0.0304557 1.61007e-22)
(21.7766 0.0813262 2.98313e-22)
(21.8573 0.0634305 6.32562e-23)
(0.155961 -0.49635 0)
(-0.0208352 -0.49508 0)
(-0.0388018 -0.712224 0)
(0.0122877 -0.882096 0)
(0.109099 -0.97399 0)
(0.233889 -0.975907 0)
(0.357256 -0.852774 0)
(0.424315 -0.526664 0)
(0.402436 -0.00775934 0)
(0.278134 0.690748 0)
(0.00446105 1.26154 0)
(-0.419521 1.52473 0)
(-0.785991 1.4937 0)
(-0.836586 1.09621 0)
(-1.37827 1.15491 0)
(-5.05662 5.7257 0)
(-5.31365 6.17827 0)
(-2.0501 0.210589 0)
(18.5211 -14.9814 0)
(18.9405 -15.0663 0)
(19.4744 -15.1678 0)
(20.0202 -15.1086 0)
(20.4513 -14.7186 0)
(20.5923 -13.8163 0)
(21.0903 -11.368 0)
(19.2385 -8.62132 0)
(18.5962 -6.06984 3.76899e-20)
(18.4952 -4.24856 0)
(18.5668 -2.94194 0)
(18.7214 -2.01014 0)
(18.9012 -1.34621 0)
(19.0739 -0.878939 0)
(19.2206 -0.552647 0)
(19.3367 -0.32572 0)
(19.4267 -0.170129 0)
(19.4997 -0.0728785 0)
(19.5594 -0.0342737 0)
(19.5925 -0.0346693 0)
(19.6083 -0.0162634 0)
(19.6403 0.0281525 0)
(19.6894 0.0679924 0)
(19.74 0.093101 0)
(19.7855 0.106544 0)
(19.8253 0.113452 0)
(19.8615 0.117698 0)
(19.8945 0.121961 0)
(19.925 0.128106 0)
(19.9536 0.136163 0)
(19.9811 0.143946 3.75665e-22)
(20.0072 0.147749 3.83959e-22)
(20.0315 0.145441 0)
(20.053 0.136102 0)
(20.0696 0.123288 0)
(20.0851 0.11305 0)
(20.1053 0.103113 2.24285e-22)
(20.1348 0.0888971 -1.15662e-22)
(20.1762 0.0573539 8.90586e-23)
(20.2047 0.0214104 0)
(20.2435 0.0402001 1.9249e-22)
(20.3328 0.0119163 0)
(0.0182922 -0.299796 2.61358e-21)
(-0.133643 -0.395974 0)
(-0.207945 -0.639291 -2.89802e-21)
(-0.19521 -0.875586 2.63666e-21)
(-0.128442 -1.01124 0)
(-0.0114458 -1.06789 0)
(0.130883 -0.969322 0)
(0.192184 -0.647322 3.53628e-21)
(0.153907 -0.117697 2.9996e-21)
(0.0156232 0.607086 0)
(-0.210861 1.34086 -3.97185e-21)
(-0.738756 1.78004 0)
(-1.18724 1.71221 0)
(-1.37618 1.28289 -1.373e-20)
(-2.70213 2.02632 -7.0546e-20)
(-4.60614 5.44659 3.91496e-19)
(-5.40553 6.51556 3.02762e-23)
(18.1751 -15.3154 0)
(18.1982 -15.1777 -4.2388e-20)
(18.7362 -15.3614 3.63087e-20)
(19.3785 -15.506 3.01573e-23)
(19.9079 -15.4224 -4.68285e-20)
(20.1675 -15.0027 2.4747e-20)
(20.2478 -14.1744 1.8355e-19)
(18.4907 -11.2182 0)
(17.25 -8.49013 1.82778e-22)
(16.6771 -6.22343 2.5582e-20)
(16.532 -4.48748 0)
(16.5973 -3.19013 2.1567e-20)
(16.7632 -2.23778 1.79761e-20)
(16.9669 -1.544 -1.46586e-20)
(17.1741 -1.04241 1.16457e-20)
(17.3642 -0.682291 0)
(17.5288 -0.425981 0)
(17.6677 -0.247585 0)
(17.785 -0.132416 0)
(17.8809 -0.0739625 3.18185e-21)
(17.9463 -0.0543783 -2.30827e-21)
(17.9871 -0.034874 8.78215e-25)
(18.0294 -0.000840729 -5.48334e-22)
(18.0831 0.0341106 -1.43555e-22)
(18.1417 0.0603325 0)
(18.1995 0.0769002 -1.2072e-22)
(18.2536 0.0866349 0)
(18.3039 0.0930971 0)
(18.3502 0.0992162 0)
(18.393 0.10682 0)
(18.4332 0.115929 0)
(18.4717 0.124574 0)
(18.5089 0.129613 -3.85519e-22)
(18.5442 0.128857 0)
(18.5771 0.121827 -1.92935e-22)
(18.6065 0.110941 -1.95561e-22)
(18.6352 0.099438 2.10324e-22)
(18.6675 0.086048 2.24704e-22)
(18.7059 0.0666516 0)
(18.7478 0.0355476 1.16037e-22)
(18.7799 0.00618416 1.74074e-22)
(18.8235 0.00104351 0)
(18.8886 -0.0257196 2.88988e-23)
(-0.101207 -0.0730361 -3.20741e-21)
(-0.264252 -0.258973 0)
(-0.401509 -0.522086 0)
(-0.420202 -0.829684 -6.98343e-22)
(-0.397217 -1.02421 0)
(-0.274359 -1.1497 3.96729e-21)
(-0.132092 -1.08859 3.60309e-21)
(-0.0541034 -0.767121 0)
(-0.108615 -0.21647 4.84631e-21)
(-0.295761 0.523282 -2.87443e-21)
(-0.593851 1.35098 4.43716e-21)
(-1.01994 2.11812 0)
(-1.67126 2.01065 0)
(-2.20981 1.65406 0)
(-3.82144 2.52348 -3.00589e-21)
(-5.9991 6.5729 -1.2169e-20)
(1.54589 0.536717 0)
(17.3726 -15.2547 0)
(17.9285 -15.4451 3.51202e-20)
(18.6159 -15.7189 0)
(19.2777 -15.8524 -4.43456e-20)
(19.686 -15.6855 0)
(19.8065 -15.2336 3.81759e-20)
(18.6899 -13.3027 1.74189e-20)
(16.7604 -10.7907 8.01635e-21)
(15.5697 -8.37349 1.55576e-20)
(14.9499 -6.33214 0)
(14.7242 -4.69474 0)
(14.7327 -3.42949 -1.65543e-20)
(14.8703 -2.47366 0)
(15.0702 -1.76052 1.18019e-20)
(15.292 -1.23221 9.54603e-21)
(15.5113 -0.843197 0)
(15.7153 -0.559531 5.87671e-21)
(15.8989 -0.357298 4.5268e-21)
(16.0612 -0.22107 -1.05931e-23)
(16.1999 -0.140485 2.73583e-21)
(16.3086 -0.0993489 2.04121e-21)
(16.3906 -0.0707661 0)
(16.4626 -0.0391266 6.5913e-22)
(16.5361 -0.00725167 -2.30721e-22)
(16.6115 0.0190149 -3.46903e-23)
(16.6855 0.0377836 1.0451e-22)
(16.7558 0.0504048 -1.67082e-22)
(16.8211 0.0596943 2.13938e-22)
(16.8813 0.0683566 2.53829e-22)
(16.937 0.0780225 0)
(16.9892 0.0886209 3.32589e-22)
(17.0393 0.0983581 -3.6321e-22)
(17.0878 0.104581 -3.82238e-22)
(17.1346 0.105321 0)
(17.1791 0.100182 0)
(17.2212 0.0906399 0)
(17.2624 0.0784359 0)
(17.3055 0.0628445 0)
(17.3511 0.0413319 1.1909e-22)
(17.3957 0.012523 1.25759e-22)
(17.4335 -0.0142963 0)
(17.475 -0.0301855 2.45216e-25)
(17.5194 -0.0508784 2.45437e-23)
(-0.227464 0.174142 0)
(-0.404481 -0.0825644 0)
(-0.57448 -0.374304 2.76809e-21)
(-0.636801 -0.736876 0)
(-0.64105 -1.00666 0)
(-0.559297 -1.20053 -4.28299e-22)
(-0.443394 -1.21097 6.55382e-21)
(-0.335167 -0.909732 0)
(-0.368898 -0.305107 0)
(-0.614629 0.492185 -3.4649e-23)
(-1.10253 1.35622 0)
(-1.52319 2.32591 0)
(-2.1999 2.45323 1.91974e-20)
(-3.96726 3.265 3.25866e-19)
(-5.41134 2.67602 7.16571e-21)
(-10.1609 10.945 2.73212e-18)
(16.7256 -15.3919 -3.79625e-19)
(17.1181 -15.4487 -1.48074e-23)
(17.7939 -15.7968 -3.6194e-20)
(18.5507 -16.1032 0)
(19.1298 -16.1596 0)
(19.3598 -15.8923 -3.7826e-20)
(19.455 -15.2389 -1.4773e-19)
(17.0723 -12.6638 9.30931e-21)
(15.3086 -10.3177 8.88082e-21)
(14.1401 -8.20039 0)
(13.4523 -6.36231 -1.29947e-20)
(13.1306 -4.84192 1.35258e-20)
(13.0556 -3.63212 -1.26311e-20)
(13.1343 -2.69386 0)
(13.3009 -1.97722 9.37991e-21)
(13.5116 -1.43413 -7.67337e-21)
(13.7382 -1.02485 0)
(13.9636 -0.71922 4.88602e-21)
(14.1781 -0.495508 -3.8013e-21)
(14.3763 -0.338379 -2.9407e-21)
(14.5531 -0.235905 4.58527e-21)
(14.7033 -0.173476 0)
(14.8274 -0.131344 1.17297e-21)
(14.9353 -0.0952173 0)
(15.0366 -0.0622334 -2.60517e-22)
(15.1343 -0.0343335 -2.87424e-24)
(15.2279 -0.0126719 9.54587e-23)
(15.316 0.00357056 -1.59652e-22)
(15.3977 0.0165642 0)
(15.4729 0.0285769 -2.46637e-22)
(15.5426 0.0409322 -2.86789e-22)
(15.6081 0.0534592 -1.54479e-24)
(15.6709 0.0645768 3.54017e-22)
(15.7317 0.0720794 0)
(15.7906 0.0742993 0)
(15.8473 0.0708409 0)
(15.9017 0.0625448 2.04077e-22)
(15.9545 0.0504177 -2.12593e-22)