/*--------------------------------*- C++ -*----------------------------------*\
| =========                 |                                                 |
| \\      /  F ield         | OpenFOAM: The Open Source CFD Toolbox           |
|  \\    /   O peration     | Version:  v1912                                 |
|   \\  /    A nd           | Website:  www.openfoam.com                      |
|    \\/     M anipulation  |                                                 |
\*---------------------------------------------------------------------------*/
FoamFile
{
    version     2.0;
    format      ascii;
    class       volScalarField;
    location    "44";
    object      alpha.water;
}
// * * * * * * * * * * * * * * * * * * * * * * * * * * * * * * * * * * * * * //

dimensions      [0 0 0 0 0 0 0];


internalField   nonuniform List<scalar> 
20320
(
1
1
1
1
1
1
1
1
1
1
1
1
1
1
1
1
1
1
1
1
1
1
1
1
1
1
1
1
1
1
1
1
1
1
1
1
1
1
1
1
1
1
1
1
1
1
1
1
1
1
1
1
1
1
1
1
1
1
1
1
1
1
1
1
1
1
1
1
1
1
1
1
1
1
1
1
1
1
1
1
1
1
1
1
1
1
1
1
1
1
1
1
1
1
1
1
1
1
1
1
1
1
1
1
1
1
1
1
1
1
1
1
1
1
1
1
1
1
1
1
1
1
1
1
1
1
1
1
1
1
1
1
1
1
1
1
1
1
1
1
1
1
1
1
1
1
1
1
1
1
1
1
1
1
1
1
1
1
1
1
1
1
1
1
1
1
1
1
1
1
1
1
1
1
1
1
1
1
1
1
1
1
1
1
1
1
1
1
1
1
1
1
1
1
1
1
1
1
1
1
1
1
1
1
1
1
1
1
1
1
1
1
1
1
1
1
1
1
1
1
1
1
1
1
1
1
1
1
1
1
1
1
1
1
1
1
1
1
1
1
1
1
1
1
1
1
1
1
1
1
1
1
1
1
1
1
1
1
1
1
1
1
1
1
1
1
1
1
1
1
1
1
1
1
1
1
1
1
1
1
1
1
1
1
1
1
1
1
1
1
1
1
1
1
1
1
1
1
1
1
1
1
1
1
1
1
1
1
1
1
1
1
1
1
1
1
1
1
1
1
1
1
1
1
1
1
1
1
1
1
1
1
1
1
1
1
1
1
1
1
1
1
1
1
1
1
1
1
1
1
1
1
1
1
1
1
1
1
1
1
1
1
1
1
1
1
1
1
1
1
1
1
1
1
1
1
1
1
1
1
1
1
1
1
1
1
1
1
1
1
1
1
1
1
1
1
1
1
1
1
0.999124
0.997915
0.998704
0.955846
0.955845
0.970003
0.999999
0.999988
0.986019
0.952769
0.981615
0.963943
0.972114
0.950937
0.916346
0.963074
0.999826
0.999823
0.824995
0.322665
0.0100068
0.0106038
0.0945226
0.252012
0.351563
0.326235
0.810916
0.509354
0.509354
0.981364
0.987898
0.320421
0.265621
0.501838
0.99969
0.999691
0.999693
0.997138
0.995191
0.0846333
0.0749155
0.330841
0.330841
0.105015
0.00477784
0.00478011
0.00478143
0.00482201
0.0114443
0.0534468
0.211565
0.680941
0.66148
0.927035
0.927219
0.98888
1
1
1
0.999369
1
0.999997
0.999997
1
0.998763
0.999979
1
0.999999
0.960523
0.962171
0.885125
0.998035
0.982181
0.99449
0.99422
0.999305
1
0.312926
2.42795e-21
7.77784e-19
0.245245
1
1
1
1
1
0.999559
0.996809
0.999906
0.975355
0.975836
0.892339
0.594725
0.978829
0.999689
0.623683
0.127452
0.127452
0.698602
0.885496
0.583949
0.892731
0.960058
0.857322
0.76288
0.93042
1
1
1
1
1
1
0.701132
-1.06448e-18
-7.797e-22
0.368666
1
1
1
1
0.858578
0.889518
0.852634
0.982515
0.994582
0.909496
0.953657
0.828717
0.980566
0.746481
0.829221
0.864951
0.835505
0.984978
0.993626
1
0.531547
3.89179e-36
0.16193
1
1
1
1
1
1
1
1
1
1
1
1
1
1
0.997038
0.978547
0.996763
1
1
1
1
1
1
1
1
1
1
1
0.999992
0.999991
1
1
0.0717874
-1.58782e-19
0
2.015e-05
-9.83539e-21
0.998243
1
1
1
0.730243
0.911019
0.961971
0.992356
0.762229
0.755714
0.998421
0.907349
0.999994
0.645064
0.700482
0.89311
0.949733
1
1
0.500697
-6.85528e-20
0.436314
1
1
1
1
1
1
1
1
1
1
1
1
1
1
0.999996
1
1
1
1
1
1
1
1
1
1
1
1
1
1
1
1
1
0.941786
-3.7052e-19
0.000986391
0.000801003
-2.73703e-23
0.140874
1
1
1
1
0.875928
1
0.974475
0.826817
0.833806
1
0.998779
0.639992
0.999994
0.798418
0.672215
1
1
0.476983
-5.48109e-21
8.81114e-22
0.627128
1
1
1
1
1
1
1
1
1
1
1
1
1
1
1
1
1
1
1
1
1
1
1
1
1
1
1
1
1
1
1
1
1
0.97292
1.71344e-18
4.53922e-06
1.32562e-22
-3.58731e-21
0.907058
1
1
1
1
1
0.951607
0.984993
0.936289
0.965486
1
0.785825
0.00750825
0.0549506
0.0109789
0.652657
0.956375
0.920422
-1.57525e-20
-3.22362e-20
0.348168
1
1
1
1
1
1
1
1
1
1
1
1
1
1
1
1
1
1
1
1
1
1
1
1
1
1
1
1
1
1
1
1
1
1
1
0.37165
-1.62925e-20
0.129308
0.994568
1
1
1
1
1
0.972379
0.921614
1
0.998785
0.997108
1
0.466705
0.00750806
0.00750983
0.00751049
0.999172
0.881948
0.717626
-4.26249e-20
1.93648e-18
1
1
1
1
1
1
1
1
1
1
1
1
1
1
1
1
1
1
1
1
1
1
1
1
1
0.99992
0.998923
0.976251
0.905784
0.849496
0.665985
0.0145812
0.000879778
0.216219
0.996903
0.999999
1
1
1
1
1
1
1
1
1
0.961584
0.999899
0.999861
1
1
0.733498
0.830291
0.836882
0.186682
0.628945
0.987247
0.950233
0.316598
-1.87126e-19
0.850252
1
1
1
1
1
1
1
0.883074
0.473252
0.152059
0.0413164
0.0269155
0.0448325
0.0855151
0.146793
0.215523
0.293817
0.387472
0.574153
0.602888
0.603859
0.490456
0.00724334
-1.66644e-15
-9.04386e-15
-2.44207e-14
-4.84175e-14
-6.52424e-14
-2.4716e-14
5.26338e-13
7.63466e-12
4.88068e-11
3.99696e-11
-7.2626e-26
0.018679
0.861101
1
1
1
1
0.996867
0.91323
0.752141
0.0459857
0.0404394
0.961488
0.965933
0.980168
0.924214
1
1
1
0.999885
1
1
0.908014
1
0.00432542
0.0248858
1
1
1
1
1
1
0.876651
0.0200911
-2.96566e-20
-7.97948e-21
-2.27626e-20
-3.83715e-20
-4.67421e-20
-4.61066e-20
-4.03966e-20
-3.45727e-20
-3.07697e-20
-1.54605e-20
3.74875e-24
2.36991e-22
-3.96469e-22
1.38776e-22
8.94596e-42
-1.61905e-20
-1.84516e-20
-7.80182e-21
3.76996e-19
1.95938e-17
3.42711e-16
3.47623e-14
3.06258e-12
7.16975e-11
2.99713e-09
1.62e-09
1.24258e-05
2.49014e-05
7.61672e-20
0.0418633
0.871083
0.93521
0.0409668
-1.01143e-36
4.69715e-47
2.07472e-16
5.75371e-15
3.29635e-12
0.779027
1
0.965988
0.986763
0.996118
0.853771
0.978697
1
0.999998
0.926147
0.991597
0.912854
-9.78905e-36
0.830043
1
1
1
1
1
0.662707
-3.29637e-19
-9.09204e-21
-1.41799e-20
-1.44594e-20
-1.37813e-20
-1.37767e-20
-1.41441e-20
-1.3953e-20
-1.29701e-20
-1.16249e-20
-1.05388e-20
-1.00093e-20
-9.85358e-21
-9.86679e-21
-9.80089e-21
-9.45216e-21
-9.02111e-21
-8.72172e-21
-8.39451e-21
-7.82635e-21
-5.38719e-21
2.93013e-21
6.20007e-20
2.58787e-18
3.30436e-16
1.27922e-15
-4.93787e-33
-1.40547e-21
-2.70389e-21
2.87289e-10
3.4831e-09
2.53434e-33
-1.46624e-21
-2.56087e-22
8.78668e-19
4.05504e-17
8.87739e-16
1.47816e-14
1.81027e-13
1.385e-12
0.685382
1
0.971878
1
0.917062
0.895941
1
1
0.992781
0.998883
0.998943
0.353916
-5.87982e-19
1
1
1
1
1
0.694326
-5.59563e-20
-1.00869e-20
-1.32882e-20
-1.02631e-20
-7.97481e-21
-6.75176e-21
-6.15381e-21
-5.79662e-21
-5.47534e-21
-5.21266e-21
-5.08323e-21
-5.07275e-21
-5.10403e-21
-5.12822e-21
-5.16972e-21
-5.26163e-21
-5.40045e-21
-5.58241e-21
-5.74673e-21
-5.76144e-21
-5.6267e-21
-5.42036e-21
-5.21201e-21
-5.01582e-21
-4.829e-21
-4.72732e-21
-4.79263e-21
-5.04568e-21
-5.45709e-21
-5.97687e-21
-6.50027e-21
-6.63616e-21
-5.13732e-21
1.35558e-21
2.18253e-19
6.28072e-18
1.32735e-16
2.03388e-15
2.26131e-14
1.83995e-13
1.10293e-12
0.685133
0.993593
0.976134
0.99956
1
1
1
0.890862
0.967981
0.987912
0.997687
1.15543e-20
0.527967
1
1
1
1
0.974732
-8.06374e-19
-2.09428e-20
-1.20111e-20
-8.14139e-21
-5.90197e-21
-4.4831e-21
-3.80462e-21
-3.43483e-21
-3.16964e-21
-2.99144e-21
-2.91519e-21
-2.92787e-21
-2.99539e-21
-3.08631e-21
-3.18468e-21
-3.28659e-21
-3.37903e-21
-3.44417e-21
-3.45312e-21
-3.35892e-21
-3.12352e-21
-2.82047e-21
-2.53203e-21
-2.30809e-21
-2.16201e-21
-2.09835e-21
-2.13702e-21
-2.29149e-21
-2.55276e-21
-2.89727e-21
-3.30094e-21
-3.71836e-21
-3.95734e-21
-3.4549e-21
-1.39957e-21
1.52488e-20
2.86657e-19
2.90455e-18
2.13933e-17
1.07238e-16
3.95496e-16
6.30178e-16
0.963762
0.960553
0.999984
0.998431
0.975341
0.998151
0.799043
0.791514
0.991968
0.989632
0.669277
-1.57994e-19
0.950643
1
1
1
1
0.0801877
-5.70679e-21
-1.0351e-20
-7.59131e-21
-5.19366e-21
-3.5093e-21
-2.55482e-21
-2.08505e-21
-1.83431e-21
-1.69284e-21
-1.63704e-21
-1.65244e-21
-1.71511e-21
-1.79569e-21
-1.86444e-21
-1.89663e-21
-1.87926e-21
-1.81002e-21
-1.69437e-21
-1.54115e-21
-1.35735e-21
-1.15834e-21
-9.78258e-22
-8.45378e-22
-7.69844e-22
-7.48656e-22
-7.76726e-22
-8.51484e-22
-9.68705e-22
-1.12028e-21
-1.2988e-21
-1.50418e-21
-1.73805e-21
-1.97114e-21
-2.08991e-21
-1.91396e-21
-1.4152e-21
-6.80546e-22
3.95113e-40
5.67494e-23
1.56934e-22
1.67121e-22
6.76174e-23
0.999804
0.987066
0.999983
0.99999
0.996834
0.775083
0.758372
0.975732
0.966565
1
0.12763
-4.84746e-19
1
1
1
1
0.691521
-4.28162e-20
-9.21554e-21
-5.94838e-21
-4.21896e-21
-2.85052e-21
-1.84378e-21
-1.27268e-21
-9.85136e-22
-8.44428e-22
-7.88662e-22
-7.87864e-22
-8.1743e-22
-8.5356e-22
-8.74382e-22
-8.63031e-22
-8.12637e-22
-7.29044e-22
-6.26383e-22
-5.19743e-22
-4.20223e-22
-3.34207e-22
-2.66311e-22
-2.20268e-22
-1.96747e-22
-1.9349e-22
-2.07304e-22
-2.35623e-22
-2.76732e-22
-3.29048e-22
-3.91058e-22
-4.62696e-22
-5.46489e-22
-6.45489e-22
-7.5616e-22
-8.60488e-22
-9.30942e-22
-9.53731e-22
-9.40417e-22
-9.26417e-22
-9.30339e-22
-9.45728e-22
-9.59334e-22
-9.59061e-22
0.999875
1
1
0.938934
0.996346
0.972288
1
0.969287
1
0.994699
-5.39276e-21
0.605638
1
1
1
1
0.0355039
-9.85095e-21
-6.54231e-21
-3.74701e-21
-2.24183e-21
-1.36963e-21
-8.30805e-22
-5.37646e-22
-3.92821e-22
-3.26687e-22
-3.03232e-22
-3.00955e-22
-3.0374e-22
-2.99222e-22
-2.7994e-22
-2.44999e-22
-1.99909e-22
-1.53264e-22
-1.12257e-22
-8.03445e-23
-5.77263e-23
-4.30278e-23
-3.46924e-23
-3.15327e-23
-3.27391e-23
-3.78365e-23
-4.66429e-23
-5.92006e-23
-7.56866e-23
-9.63389e-23
-1.21536e-22
-1.52053e-22
-1.89124e-22
-2.33656e-22
-2.84296e-22
-3.35358e-22
-3.77345e-22
-4.01462e-22
-4.03646e-22
-3.85615e-22
-3.54747e-22
-3.1598e-22
-2.72948e-22
-2.27887e-22
0.725846
1
1
0.978508
0.995677
0.993448
0.977743
0.9884
0.999992
0.790298
-1.25739e-19
0.938442
1
1
1
0.8404
-1.50124e-19
-7.7917e-21
-4.50726e-21
-2.19017e-21
-1.11334e-21
-5.85438e-22
-3.15249e-22
-1.8349e-22
-1.22603e-22
-9.571e-23
-8.38984e-23
-7.68452e-23
-6.89017e-23
-5.79679e-23
-4.47994e-23
-3.16717e-23
-2.07032e-23
-1.28257e-23
-7.82834e-24
-4.96509e-24
-3.49309e-24
-2.90149e-24
-2.92092e-24
-3.45674e-24
-4.52171e-24
-6.18934e-24
-8.55866e-24
-1.1724e-23
-1.57504e-23
-2.06585e-23
-2.64332e-23
-3.30576e-23
-4.04787e-23
-4.84e-23
-5.59108e-23
-6.13144e-23
-6.27077e-23
-5.91807e-23
-5.15478e-23
-4.15954e-23
-3.11253e-23
-2.21203e-23
-1.51509e-23
-1.00124e-23
0.919796
0.986031
0.977733
0.584551
1
0.968383
0.982975
1
0.999906
0.49082
-4.03761e-20
1
1
1
1
0.134416
-2.06673e-20
-5.7343e-21
-2.82498e-21
-1.21089e-21
-5.14022e-22
-2.19032e-22
-9.56405e-23
-4.58484e-23
-2.61852e-23
-1.7864e-23
-1.33173e-23
-9.82438e-24
-6.73915e-24
-4.18199e-24
-2.34299e-24
-1.20661e-24
-5.93853e-25
-2.99207e-25
-1.71169e-25
-1.23165e-25
-1.13826e-25
-1.2705e-25
-1.59752e-25
-2.15266e-25
-2.9956e-25
-4.18435e-25
-5.74914e-25
-7.66619e-25
-9.83804e-25
-1.20917e-24
-1.42097e-24
-1.59848e-24
-1.72409e-24
-1.77985e-24
-1.74366e-24
-1.59529e-24
-1.3402e-24
-1.02395e-24
-7.10812e-25
-4.52996e-25
-2.70628e-25
-1.55884e-25
-8.87957e-26
-5.03701e-26
0.738755
0.982829
0.783695
0.727732
0.996583
0.817733
0.827128
0.962256
1
0.0919834
0.255818
1
1
1
1
4.78524e-19
-4.08559e-21
-3.30491e-21
-1.51102e-21
-5.88544e-22
-2.02348e-22
-6.39468e-23
-1.98863e-23
-6.95758e-24
-3.04693e-24
-1.55148e-24
-7.9226e-25
-3.70834e-25
-1.54637e-25
-5.7989e-26
-2.03648e-26
-7.28068e-27
-3.06446e-27
-1.75892e-27
-1.36642e-27
-1.26215e-27
-1.25039e-27
-1.27396e-27
-1.34801e-27
-1.5363e-27
-1.91083e-27
-2.50863e-27
-3.3038e-27
-4.19818e-27
-5.02932e-27
-5.60312e-27
-5.75538e-27
-5.42518e-27
-4.69468e-27
-3.73389e-27
-2.71429e-27
-1.78231e-27
-1.04228e-27
-5.36564e-28
-2.43919e-28
-1.01859e-28
-4.43149e-29
-2.45116e-29
-1.81842e-29
-1.59651e-29
0.523805
0.523803
0.922545
1
0.999639
0.998627
0.868862
0.859676
0.999425
-7.06356e-23
0.725584
1
1
1
0.616391
-1.05082e-20
-4.34442e-21
-1.90428e-21
-7.73735e-22
-2.50233e-22
-6.15217e-23
-1.21078e-23
-2.16996e-24
-4.53453e-25
-1.16487e-25
-2.94941e-26
-6.39946e-27
-1.18655e-27
-2.04391e-28
-3.85097e-29
-1.01554e-29
-4.18222e-30
-2.29148e-30
-1.4198e-30
-9.26261e-31
-6.17588e-31
-4.13425e-31
-2.7408e-31
-1.78109e-31
-1.12625e-31
-6.89512e-32
-4.07478e-32
-2.32172e-32
-1.29106e-32
-8.02523e-33
-7.60576e-33
-8.42487e-33
-6.95658e-33
-3.98819e-33
-1.77674e-33
-7.96775e-34
-4.95645e-34
-4.2724e-34
-4.17486e-34
-4.21267e-34
-4.32146e-34
-4.53295e-34
-4.91137e-34
-5.69639e-34
-9.87272e-34
0.901906
0.73211
0.984383
0.612811
1
0.91143
0.99997
1
0.914154
-1.10569e-21
0.950375
1
1
1
0.153469
-1.67198e-20
-2.96551e-21
-1.21111e-21
-3.9308e-22
-8.71379e-23
-1.22178e-23
-1.06051e-24
-6.80172e-26
-4.46927e-27
-1.74571e-28
-2.83625e-30
-5.4393e-32
-2.94975e-33
-2.93699e-34
-4.41277e-35
-8.53297e-36
-1.98021e-36
-5.42115e-37
-1.73026e-37
-6.56547e-38
-3.21536e-38
-2.19753e-38
-1.99069e-38
-2.09234e-38
-2.32099e-38
-2.60252e-38
-2.90239e-38
-3.19973e-38
-3.48215e-38
-3.74214e-38
-3.97583e-38
-4.18298e-38
-4.36195e-38
-4.50967e-38
-4.61793e-38
-4.67721e-38
-4.68101e-38
-4.63436e-38
-4.55726e-38
-4.48582e-38
-4.46746e-38
-4.56006e-38
-4.83781e-38
-5.40904e-38
-6.5821e-38
0.98283
0.98283
0.98558
0.292545
0.859994
0.858795
1
1
0.75088
6.59871e-23
1
1
1
1
0.00132323
-4.17495e-21
-2.18666e-21
-7.64682e-22
-1.74313e-22
-2.15144e-23
-1.12133e-24
-1.40809e-26
-1.24879e-28
-1.37059e-30
-2.30724e-34
-4.32264e-36
-7.87296e-39
-6.9006e-43
-2.27745e-43
-1.00069e-43
-5.47329e-44
-3.63815e-44
-2.99717e-44
-2.81079e-44
-2.82858e-44
-2.96948e-44
-3.1732e-44
-3.40331e-44
-3.63286e-44
-3.83873e-44
-4.00316e-44
-4.11449e-44
-4.1668e-44
-4.15984e-44
-4.09709e-44
-3.98694e-44
-3.83897e-44
-3.66267e-44
-3.46646e-44
-3.25806e-44
-3.0461e-44
-2.84186e-44
-2.66133e-44
-2.52575e-44
-2.46332e-44
-2.51462e-44
-2.74824e-44
-3.30098e-44
-4.47962e-44
-7.01001e-44
0.779541
0.269811
0.453187
0.292277
0.94298
1
1
1
0.601043
0.0149825
1
1
1
0.989709
-1.13414e-19
-4.26278e-21
-1.4996e-21
-4.34349e-22
-6.00989e-23
-2.85607e-24
-1.01985e-26
-2.06596e-29
-3.72245e-32
-4.73137e-36
-1.29047e-38
-6.81804e-46
-2.88679e-47
-9.77129e-49
-3.13099e-50
-2.23624e-51
-1.02447e-51
-1.12127e-51
-1.45932e-51
-2.03185e-51
-2.95377e-51
-4.41481e-51
-6.78507e-51
-1.04799e-50
-1.59352e-50
-2.39477e-50
-3.52628e-50
-5.10383e-50
-7.26379e-50
-1.01554e-49
-1.39352e-49
-1.876e-49
-2.47822e-49
-3.21077e-49
-4.07969e-49
-5.08887e-49
-6.24614e-49
-7.58007e-49
-9.17045e-49
-1.11972e-48
-1.40379e-48
-1.84849e-48
-2.63054e-48
-4.18598e-48
-7.72247e-48
-1.68574e-47
0.269811
0.279465
0.905921
0.74979
0.805809
1
1
1
0.0967722
0.479203
1
1
1
0.452797
1.23241e-21
-2.27076e-21
-1.00998e-21
-2.09818e-22
-1.36508e-23
-7.75807e-26
-1.13511e-29
-1.29999e-32
-4.87264e-37
-1.98931e-40
-3.98409e-48
-4.90968e-50
-3.19453e-52
-1.93996e-54
-7.96282e-56
-6.94359e-56
-6.80508e-56
-7.3062e-56
-8.50164e-56
-1.06064e-55
-1.39893e-55
-1.92058e-55
-2.70913e-55
-3.88587e-55
-5.62688e-55
-8.1598e-55
-1.1859e-54
-1.70134e-54
-2.39439e-54
-3.3187e-54
-4.4923e-54
-5.95071e-54
-7.69668e-54
-9.71812e-54
-1.19991e-53
-1.4542e-53
-1.74066e-53
-2.07771e-53
-2.50762e-53
-3.11976e-53
-4.10582e-53
-5.91497e-53
-9.75089e-53
-1.94532e-52
-4.99383e-52
-1.69921e-51
0.581181
0.956008
0.956008
0.594528
0.913143
1
0.884811
0.246365
3.2593e-40
0.813438
1
1
1
0.126447
6.60801e-38
-2.042e-21
-6.61934e-22
-8.03256e-23
-1.38068e-24
-2.09171e-29
-2.68421e-32
-2.02491e-37
-1.22076e-40
-2.10107e-49
-1.1199e-51
-3.59861e-54
-5.62957e-58
-6.92249e-60
-3.82537e-60
-3.25444e-60
-3.64204e-60
-4.71051e-60
-6.62426e-60
-9.74926e-60
-1.45746e-59
-2.19103e-59
-3.31896e-59
-5.07087e-59
-7.79807e-59
-1.20213e-58
-1.84966e-58
-2.83646e-58
-4.32336e-58
-6.49416e-58
-9.55295e-58
-1.35149e-57
-1.85462e-57
-2.45993e-57
-3.17563e-57
-4.02947e-57
-5.08591e-57
-6.4968e-57
-8.58952e-57
-1.21173e-56
-1.89942e-56
-3.49353e-56
-8.11805e-56
-2.6314e-55
-1.33099e-54
-1.08286e-53
0.000436476
0.371188
0.201067
0.551826
0.580001
0.125656
7.09756e-20
-1.05289e-21
3.17863e-40
0.978922
1
1
1
0.00551542
-2.31149e-21
-1.519e-21
-3.88757e-22
-2.11772e-23
-7.13166e-28
-1.86885e-31
-3.24769e-37
-3.02556e-40
-7.05569e-50
-2.07741e-52
-2.94839e-55
-2.99205e-59
-5.65473e-63
-1.49939e-63
-1.46247e-63
-1.91797e-63
-2.63201e-63
-3.6966e-63
-5.30738e-63
-7.74401e-63
-1.13737e-62
-1.67996e-62
-2.49735e-62
-3.69161e-62
-5.36494e-62
-7.68466e-62
-1.0921e-61
-1.54242e-61
-2.15617e-61
-2.96735e-61
-4.00383e-61
-5.28509e-61
-6.82044e-61
-8.60906e-61
-1.06833e-60
-1.32707e-60
-1.68883e-60
-2.24511e-60
-3.23134e-60
-5.27018e-60
-1.03498e-59
-2.66003e-59
-1.00824e-58
-6.65674e-58
-9.08642e-57
-2.37549e-55
0.000436476
0.0135453
0.00314471
-1.06118e-20
-8.43449e-21
9.57272e-09
-2.80385e-28
1.04745e-07
-1.84965e-19
1
1
1
1
-1.66679e-19
-3.03097e-21
-1.19472e-21
-1.94558e-22
-2.66952e-24
-3.7481e-30
-5.51108e-35
-1.66824e-39
-9.02173e-47
-1.70081e-51
-2.07521e-55
-1.89455e-59
-1.60463e-62
-7.38008e-64
-3.18489e-65
-1.77597e-66
-7.2805e-67
-8.75706e-67
-1.13894e-66
-1.51038e-66
-2.03185e-66
-2.75964e-66
-3.76969e-66
-5.15744e-66
-7.02844e-66
-9.47826e-66
-1.26009e-65
-1.64799e-65
-2.10868e-65
-2.6387e-65
-3.25805e-65
-4.00785e-65
-4.97501e-65
-6.49275e-65
-9.85869e-65
-1.9672e-64
-5.12119e-64
-1.52124e-63
-4.63777e-63
-1.38271e-62
-4.04487e-62
-1.13142e-61
-3.03711e-61
-8.32524e-61
-3.55708e-60
-8.49845e-59
-6.35766e-57
0.00284235
0.0257136
0.00214694
2.41936e-09
4.07612e-09
5.47207e-13
1.28438e-06
1.01663e-10
0.223986
1
1
1
0.650858
-1.12715e-21
-2.41121e-21
-8.8155e-22
-7.59159e-23
-2.72e-27
-6.08159e-32
-4.30323e-38
-1.74626e-42
-9.73332e-47
-2.58806e-51
-8.53168e-57
-2.4894e-61
-1.18858e-62
-5.31714e-64
-2.20707e-65
-8.45225e-67
-2.98065e-68
-1.01486e-69
-9.20361e-71
-7.65203e-71
-9.19502e-71
-1.131e-70
-1.40268e-70
-1.7438e-70
-2.16403e-70
-2.67243e-70
-3.3061e-70
-4.35993e-70
-7.84807e-70
-2.69954e-69
-1.45614e-68
-8.6825e-68
-5.019e-67
-2.70203e-66
-1.334e-65
-6.01158e-65
-2.47574e-64
-9.36518e-64
-3.2766e-63
-1.06747e-62
-3.25863e-62
-9.36469e-62
-2.53805e-61
-6.54151e-61
-1.58988e-60
-3.85403e-60
-5.52338e-59
0.00980028
1.01809e-05
-2.42926e-22
9.26526e-09
5.47207e-13
0.000341325
8.14563e-06
2.40407e-13
0.724834
1
1
1
0.273101
-1.196e-21
-2.34732e-21
-5.92222e-22
-1.99631e-23
-2.05883e-29
-5.0688e-34
-4.00873e-39
-1.3372e-42
-1.54251e-46
-4.19111e-51
-1.40832e-56
-1.86704e-61
-8.65094e-63
-3.76504e-64
-1.52333e-65
-5.70058e-67
-1.96692e-68
-6.23327e-70
-1.81003e-71
-4.80996e-73
-1.19022e-74
-5.506e-76
-6.26507e-76
-2.90758e-75
-1.95572e-74
-1.41531e-73
-1.02985e-72
-7.42801e-72
-5.28099e-71
-3.67812e-70
-2.50067e-69
-1.65272e-68
-1.05345e-67
-6.42102e-67
-3.66843e-66
-1.91838e-65
-9.08078e-65
-3.88998e-64
-1.51631e-63
-5.42648e-63
-1.79715e-62
-5.53568e-62
-1.58825e-61
-4.2221e-61
-1.02863e-60
-2.27341e-60
-4.56566e-60
0.00595699
0.0109553
9.02572e-23
2.16688e-09
0.000150798
0.000996741
8.601e-06
-6.96774e-20
0.983546
1
1
1
0.0414046
1.67097e-38
-1.88423e-21
-3.50626e-22
-2.08182e-24
-1.22074e-30
-7.69081e-36
-4.9682e-39
-1.87195e-42
-2.1896e-46
-6.06239e-51
-2.08767e-56
-1.36766e-61
-6.15579e-63
-2.60975e-64
-1.02928e-65
-3.7631e-67
-1.27148e-68
-3.95823e-70
-1.13242e-71
-2.96947e-73
-7.12708e-75
-1.60915e-76
-3.74886e-77
-2.59334e-76
-1.97038e-75
-1.49825e-74
-1.13392e-73
-8.50534e-73
-6.29126e-72
-4.56732e-71
-3.24392e-70
-2.24185e-69
-1.50016e-68
-9.67816e-68
-5.97871e-67
-3.49391e-66
-1.88706e-65
-9.23326e-65
-4.06817e-64
-1.61861e-63
-5.85404e-63
-1.93271e-62
-5.81584e-62
-1.57782e-61
-3.78022e-61
-7.77785e-61
-1.31672e-60
2.37389e-13
2.37389e-13
8.53012e-12
2.89871e-13
0.000996929
0.000444925
-1.12362e-24
-8.42478e-20
1
1
1
1
1.52062e-19
-3.84232e-21
-1.60611e-21
-1.76873e-22
-1.73568e-27
-5.81618e-32
-7.35406e-36
-6.38826e-39
-2.35085e-42
-2.75153e-46
-7.73798e-51
-2.73301e-56
-9.76129e-62
-4.2643e-63
-1.76406e-64
-6.79355e-66
-2.4269e-67
-8.02657e-69
-2.45244e-70
-6.90506e-72
-1.7869e-73
-4.24086e-75
-9.24781e-77
-4.30913e-78
-1.92781e-77
-1.50298e-76
-1.17431e-75
-9.14155e-75
-7.05232e-74
-5.37218e-73
-4.02134e-72
-2.94547e-71
-2.10059e-70
-1.4519e-69
-9.67307e-69
-6.18371e-68
-3.77047e-67
-2.17766e-66
-1.17325e-65
-5.76327e-65
-2.54351e-64
-1.0031e-63
-3.52991e-63
-1.10139e-62
-3.00151e-62
-6.95097e-62
-1.31833e-61
-1.95273e-61
0.0234868
1.08849e-10
2.89803e-13
8.95858e-06
0.000338023
1.82234e-06
2.96584e-06
0.623484
1
1
1
0.873857
1.99104e-20
-2.59671e-21
-1.18973e-21
-6.73027e-23
-1.13402e-28
-9.30072e-33
-1.08188e-35
-8.19204e-39
-2.72492e-42
-3.06287e-46
-8.65313e-51
-3.13339e-56
-6.77826e-62
-2.86586e-63
-1.15829e-64
-4.3613e-66
-1.52487e-67
-4.93949e-69
-1.4802e-70
-4.09629e-72
-1.04442e-73
-2.44942e-75
-5.27229e-77
-1.1679e-78
-1.05283e-78
-8.22832e-78
-6.55236e-77
-5.19245e-76
-4.07776e-75
-3.16035e-74
-2.4071e-73
-1.79318e-72
-1.30071e-71
-9.13511e-71
-6.17899e-70
-3.99923e-69
-2.46223e-68
-1.43248e-67
-7.83004e-67
-3.9916e-66
-1.86199e-65
-7.77722e-65
-2.85545e-64
-9.07724e-64
-2.45355e-63
-5.50309e-63
-9.92595e-63
-1.38788e-62
0.0235033
2.95736e-13
2.89803e-13
4.63652e-06
1.90059e-07
4.07401e-05
5.78245e-19
0.981528
1
1
1
0.340588
-8.98148e-22
-3.11618e-21
-8.14054e-22
-1.54664e-23
-1.75729e-29
-1.40582e-32
-1.819e-35
-1.14381e-38
-3.07797e-42
-3.03083e-46
-8.38664e-51
-3.11402e-56
-4.57434e-62
-1.86425e-63
-7.36439e-65
-2.71285e-66
-9.28815e-68
-2.94979e-69
-8.67513e-71
-2.35897e-72
-5.92062e-74
-1.36973e-75
-2.91459e-77
-5.7342e-79
-4.89e-80
-3.1135e-79
-2.49631e-78
-1.99098e-77
-1.57261e-76
-1.22407e-75
-9.34903e-75
-6.97329e-74
-5.05549e-73
-3.54128e-72
-2.38448e-71
-1.53131e-70
-9.30821e-70
-5.31304e-69
-2.82309e-68
-1.38205e-67
-6.18563e-67
-2.5006e-66
-8.92814e-66
-2.73794e-65
-7.02017e-65
-1.46837e-64
-2.47109e-64
-3.41854e-64
0.0235186
0.00353417
3.0865e-10
2.74565e-10
5.00452e-13
3.80905e-06
0.118205
1
1
1
1
0.0472934
-4.6345e-21
-2.42527e-21
-4.83589e-22
-8.61923e-25
-1.25354e-29
-2.61979e-32
-3.34307e-35
-1.83127e-38
-3.74165e-42
-2.74972e-46
-6.98472e-51
-2.65369e-56
-2.99652e-62
-1.17107e-63
-4.52491e-65
-1.6313e-66
-5.46973e-68
-1.70254e-69
-4.91547e-71
-1.31389e-72
-3.24502e-74
-7.40231e-76
-1.55571e-77
-3.00471e-79
-6.2864e-81
-7.8835e-81
-6.22326e-80
-4.93336e-79
-3.86657e-78
-2.98007e-77
-2.24738e-76
-1.65101e-75
-1.17504e-74
-8.05761e-74
-5.28747e-73
-3.29616e-72
-1.93508e-71
-1.06019e-70
-5.36462e-70
-2.48209e-69
-1.03727e-68
-3.86275e-68
-1.2677e-67
-3.62745e-67
-8.96857e-67
-1.90406e-66
-3.40462e-66
-4.80785e-66
0.00633906
0.000674944
3.87859e-09
4.35413e-11
1.04439e-05
1.40714e-06
0.881419
1
1
1
1
1.35642e-19
-5.27328e-21
-1.9773e-21
-2.39859e-22
-6.75125e-27
-1.70292e-29
-4.55573e-32
-5.91287e-35
-3.06694e-38
-5.08069e-42
-2.435e-46
-4.96715e-51
-1.91564e-56
-1.89667e-62
-7.07688e-64
-2.67782e-65
-9.45682e-67
-3.10666e-68
-9.47937e-70
-2.68575e-71
-7.05317e-73
-1.71435e-74
-3.85438e-76
-7.9981e-78
-1.52699e-79
-2.6898e-81
-1.68258e-82
-9.81793e-82
-7.61506e-81
-5.833e-80
-4.38486e-79
-3.21597e-78
-2.28929e-77
-1.57226e-76
-1.03581e-75
-6.50253e-75
-3.86162e-74
-2.14975e-73
-1.11153e-72
-5.2909e-72
-2.29535e-71
-9.00255e-71
-3.17036e-70
-9.96938e-70
-2.78296e-69
-6.82696e-69
-1.43823e-68
-2.50971e-68
-3.4754e-68
0.000830221
6.62997e-08
9.21372e-11
5.46359e-11
6.17355e-05
0.0778642
1
1
1
1
0.563755
5.42921e-21
-4.19058e-21
-1.39353e-21
-8.29308e-23
-5.36811e-27
-2.3074e-29
-6.79813e-32
-9.09557e-35
-4.69467e-38
-7.00171e-42
-2.24537e-46
-3.03405e-51
-1.15723e-56
-1.15172e-62
-4.09776e-64
-1.51999e-65
-5.26471e-67
-1.69632e-68
-5.07867e-70
-1.4124e-71
-3.64389e-73
-8.70959e-75
-1.92883e-76
-3.94923e-78
-7.45084e-80
-1.29176e-81
-2.17751e-83
-9.90388e-84
-7.18516e-83
-5.30087e-82
-3.82908e-81
-2.6932e-80
-1.83253e-79
-1.19857e-78
-7.4911e-78
-4.44073e-77
-2.48068e-76
-1.2954e-75
-6.27474e-75
-2.8e-74
-1.14348e-73
-4.2503e-73
-1.43231e-72
-4.35941e-72
-1.19079e-71
-2.87155e-71
-5.92932e-71
-1.00448e-70
-1.34519e-70
3.77191e-09
1.21885e-06
9.01011e-11
8.22258e-06
-1.5618e-22
0.924698
1
1
1
1
0.104205
-8.2107e-22
-3.56577e-21
-9.01142e-22
-1.42687e-23
-4.84699e-27
-2.68073e-29
-8.27754e-32
-1.13974e-34
-5.94498e-38
-8.49672e-42
-2.09564e-46
-1.63936e-51
-5.79888e-57
-6.64434e-63
-2.26387e-64
-8.24476e-66
-2.80427e-67
-8.86933e-69
-2.60752e-70
-7.1239e-72
-1.80621e-73
-4.24572e-75
-9.2539e-77
-1.8676e-78
-3.4793e-80
-5.96544e-82
-9.38955e-84
-1.9399e-85
-4.19207e-85
-2.91669e-84
-1.99976e-83
-1.33494e-82
-8.60602e-82
-5.32644e-81
-3.1422e-80
-1.75619e-79
-9.22726e-79
-4.52961e-78
-2.06361e-77
-8.68873e-77
-3.36344e-76
-1.19406e-75
-3.87378e-75
-1.1439e-74
-3.04056e-74
-7.13582e-74
-1.43201e-73
-2.36185e-73
-3.09549e-73
5.39149e-06
2.11572e-22
0.000134402
8.07443e-05
0.473229
1
1
1
1
1
-1.23284e-19
-3.26106e-21
-2.06354e-21
-4.64722e-22
-5.89221e-25
-4.08561e-27
-2.41857e-29
-7.728e-32
-1.09443e-34
-5.79979e-38
-8.17066e-42
-1.7539e-46
-8.21939e-52
-2.41008e-57
-3.60832e-63
-1.1877e-64
-4.25251e-66
-1.42263e-67
-4.42315e-69
-1.27789e-70
-3.43113e-72
-8.55303e-74
-1.97795e-75
-4.2443e-77
-8.4404e-79
-1.55117e-80
-2.6273e-82
-4.08841e-84
-5.8473e-86
-2.39014e-87
-1.03632e-86
-6.54706e-86
-4.06994e-85
-2.45915e-84
-1.43053e-83
-7.95338e-83
-4.19576e-82
-2.08682e-81
-9.72395e-81
-4.22403e-80
-1.70308e-79
-6.35281e-79
-2.18652e-78
-6.91096e-78
-1.99148e-77
-5.16434e-77
-1.17936e-76
-2.30036e-76
-3.70036e-76
-4.76943e-76
0.00139846
0.00667635
1.82791e-05
0.103536
1
1
1
1
1
0.386199
-3.32394e-21
-2.43305e-21
-1.25109e-21
-1.81998e-22
-4.18408e-25
-2.90661e-27
-1.60294e-29
-5.22377e-32
-7.56834e-35
-4.08266e-38
-5.77671e-42
-1.17162e-46
-3.88842e-52
-8.39069e-58
-1.83268e-63
-5.89498e-65
-2.07638e-66
-6.83577e-68
-2.09124e-69
-5.94262e-71
-1.56905e-72
-3.84689e-74
-8.75124e-76
-1.84872e-77
-3.62263e-79
-6.56804e-81
-1.09857e-82
-1.68982e-84
-2.38157e-86
-3.1245e-88
-3.5856e-89
-1.73879e-88
-9.4601e-88
-5.12314e-87
-2.72193e-86
-1.40132e-85
-6.92496e-85
-3.25642e-84
-1.44732e-83
-6.04595e-83
-2.36116e-82
-8.57769e-82
-2.88432e-81
-8.9152e-81
-2.50883e-80
-6.33252e-80
-1.40517e-79
-2.66828e-79
-4.19811e-79
-5.33648e-79
0.0078166
2.86573e-06
0.0547937
1
1
1
1
1
1
0.000544909
-1.27618e-21
-1.66922e-21
-8.43763e-22
-4.8469e-23
-3.10908e-25
-1.74611e-27
-7.56317e-30
-2.39989e-32
-3.51504e-35
-1.93977e-38
-2.83429e-42
-5.89018e-47
-1.6626e-52
-2.49716e-58
-8.68806e-64
-2.76344e-65
-9.58165e-67
-3.10659e-68
-9.35756e-70
-2.61747e-71
-6.798e-73
-1.63952e-74
-3.66919e-76
-7.6278e-78
-1.47181e-79
-2.62957e-81
-4.33992e-83
-6.59358e-85
-9.18883e-87
-1.16988e-88
-1.47867e-90
-5.87546e-91
-2.69008e-90
-1.26932e-89
-5.97697e-89
-2.77937e-88
-1.26384e-87
-5.55988e-87
-2.34534e-86
-9.40766e-86
-3.55767e-85
-1.25911e-84
-4.1335e-84
-1.24639e-83
-3.41291e-83
-8.36727e-83
-1.80369e-82
-3.33835e-82
-5.16197e-82
-6.50456e-82
0.229299
0.198951
1
1
1
1
1
1
0.572078
-2.22359e-21
-1.45545e-21
-1.3452e-21
-4.99525e-22
-2.25562e-23
-2.57332e-25
-1.2197e-27
-3.51264e-30
-8.14252e-33
-1.07859e-35
-5.9768e-39
-9.49061e-43
-2.26219e-47
-6.17576e-53
-6.42144e-59
-3.8176e-64
-1.2127e-65
-4.1459e-67
-1.32688e-68
-3.94247e-70
-1.08685e-71
-2.78089e-73
-6.6019e-75
-1.45484e-76
-2.97672e-78
-5.65415e-80
-9.94983e-82
-1.6187e-83
-2.42642e-85
-3.33837e-87
-4.19983e-89
-4.81514e-91
-6.36355e-93
-6.10794e-93
-2.69456e-92
-1.18743e-91
-5.16969e-91
-2.21028e-90
-9.21435e-90
-3.71206e-89
-1.43407e-88
-5.25844e-88
-1.81356e-87
-5.82525e-87
-1.72309e-86
-4.63734e-86
-1.11886e-85
-2.38148e-85
-4.36895e-85
-6.73028e-85
-8.47214e-85
1
1
1
1
1
1
1
1
1
1
1
1
1
1
1
1
1
1
1
1
1
1
1
1
1
1
1
1
1
1
1
1
1
1
1
1
1
1
1
1
1
1
1
1
1
1
1
1
1
1
1
1
1
1
1
1
1
1
1
1
1
1
1
1
1
1
1
1
1
1
1
1
1
1
1
1
1
1
1
1
1
1
1
1
1
1
1
1
1
1
1
1
1
1
1
1
1
1
1
1
1
1
1
1
1
1
1
1
1
1
1
1
1
1
1
1
1
1
1
1
1
1
1
1
1
1
1
1
1
1
1
1
1
1
1
1
1
1
1
1
1
1
1
1
1
1
1
1
1
1
1
1
1
1
1
1
1
1
1
1
1
1
1
1
1
1
1
1
1
1
1
1
1
1
1
1
1
1
1
1
1
1
1
1
1
1
1
1
1
1
1
1
1
1
1
1
1
1
1
1
1
1
1
1
1
1
1
1
1
1
1
1
1
1
1
1
1
1
1
1
1
1
1
1
1
1
1
1
1
1
1
1
1
1
1
1
1
1
1
1
1
1
1
1
1
1
1
1
1
1
1
1
1
1
0.998695
0.983267
0.940342
0.865983
0.757689
0.572627
-8.52168e-34
0.248917
0.245934
0.234105
0.21674
0.194996
0.169832
0.142244
0.112996
0.0827813
0.0526618
0.0242113
-9.6911e-21
-3.55022e-21
-1.695e-21
-1.08091e-21
-1.47692e-21
-1.97675e-21
-2.40435e-21
-1.96182e-21
-6.27953e-34
-1.02281e-34
-1.45103e-34
-2.48019e-34
-4.07541e-34
-5.5729e-34
-6.97767e-34
-8.20577e-34
-9.12699e-34
-9.63445e-34
-9.75348e-34
-9.99496e-34
-2.73622e-23
-1.49053e-23
-1.24465e-23
-7.11279e-24
-1.86279e-24
-1.98983e-25
-8.88767e-27
-6.22402e-28
-5.99777e-34
-5.83691e-35
-1.3167e-36
-3.53694e-36
-1.00977e-35
-1.89116e-35
-2.88291e-35
-3.79027e-35
-4.44078e-35
-4.74959e-35
-4.78448e-35
-4.85125e-35
-6.20218e-35
-1.00265e-34
-1.26194e-34
-1.23606e-34
-9.12716e-35
-4.99638e-35
-2.16724e-35
-9.20087e-36
-5.98451e-34
-1.81033e-35
-2.49662e-38
-4.94569e-38
-1.44861e-37
-3.32951e-37
-5.94606e-37
-8.73025e-37
-1.10483e-36
-1.24886e-36
-1.30677e-36
-1.32651e-36
-1.40816e-36
-1.56424e-36
-1.52139e-36
-1.19627e-36
-7.5322e-37
-3.85339e-37
-1.66657e-37
-6.4929e-38
-2.63944e-34
-3.11386e-37
-7.04941e-40
-9.72746e-40
-3.02212e-39
-7.39489e-39
-1.42931e-38
-2.20122e-38
-2.82653e-38
-3.1617e-38
-3.18857e-38
-2.98458e-38
-2.65439e-38
-2.22648e-38
-1.67407e-38
-1.08001e-38
-5.87845e-39
-2.70908e-39
-1.07855e-39
-3.82265e-40
-8.59873e-35
-5.38397e-38
-5.66338e-40
-2.41353e-41
-6.74114e-41
-1.7323e-40
-3.38723e-40
-5.18258e-40
-6.45089e-40
-6.85821e-40
-6.44047e-40
-5.4532e-40
-4.20261e-40
-2.93901e-40
-1.83386e-40
-1.00299e-40
-4.76388e-41
-1.96488e-41
-7.09192e-42
-2.267e-42
-2.10622e-35
-5.46858e-38
-5.20807e-40
-4.39542e-42
-1.36736e-42
-3.5741e-42
-6.87289e-42
-1.00632e-41
-1.18251e-41
-1.17646e-41
-1.02321e-41
-7.88815e-42
-5.41036e-42
-3.29552e-42
-1.77311e-42
-8.37737e-43
-3.46349e-43
-1.25314e-43
-3.9832e-44
-1.11939e-44
-1.52438e-36
-1.79553e-38
-1.61483e-40
-1.06969e-42
-2.67827e-44
-5.69746e-44
-1.0502e-43
-1.43887e-43
-1.57571e-43
-1.46458e-43
-1.18579e-43
-8.39162e-44
-5.17398e-44
-2.77314e-44
-1.29191e-44
-5.23725e-45
-1.85125e-45
-5.72397e-46
-1.55549e-46
-3.73816e-47
-2.85747e-39
-6.40577e-40
-6.32504e-42
-3.94796e-44
-4.0327e-46
-6.06413e-46
-1.03838e-45
-1.31242e-45
-1.33614e-45
-1.1671e-45
-8.84593e-46
-5.74316e-46
-3.15974e-46
-1.47168e-46
-5.83813e-47
-1.99008e-47
-5.88168e-48
-1.51975e-48
-3.46008e-49
-6.99438e-50
-4.29943e-44
-3.02479e-43
-4.02149e-45
-2.58914e-47
-1.64956e-48
-3.37609e-48
-5.2609e-48
-6.10099e-48
-5.81624e-48
-4.82274e-48
-3.42485e-48
-2.01525e-48
-9.67863e-49
-3.81458e-49
-1.25504e-49
-3.51683e-50
-8.54009e-51
-1.81984e-51
-3.43205e-52
-5.76645e-53
-1.51047e-49
-1.75938e-48
-2.01181e-50
-1.3933e-51
-3.13818e-51
-5.89085e-51
-8.35917e-51
-8.97801e-51
-8.15209e-51
-6.48836e-51
-4.28669e-51
-2.23146e-51
-9.03792e-52
-2.90899e-52
-7.72601e-53
-1.75285e-53
-3.46217e-54
-5.9879e-55
-9.10175e-56
-1.22693e-56
1