/*--------------------------------*- C++ -*----------------------------------*\
| =========                 |                                                 |
| \\      /  F ield         | OpenFOAM: The Open Source CFD Toolbox           |
|  \\    /   O peration     | Version:  v1912                                 |
|   \\  /    A nd           | Website:  www.openfoam.com                      |
|    \\/     M anipulation  |                                                 |
\*---------------------------------------------------------------------------*/
FoamFile
{
    version     2.0;
    format      ascii;
    class       surfaceScalarField;
    location    "44";
    object      alphaPhi0.water;
}
// * * * * * * * * * * * * * * * * * * * * * * * * * * * * * * * * * * * * * //

dimensions      [0 3 -1 0 0 0 0];
oriented        oriented;


internalField   nonuniform List<scalar> 
40282
(
0.00277762
0.00264582
1.91974
-1.92635
1.92076
0.0055845
-1.91173
1.89954
0.0121885
-1.88436
1.86622
0.0181398
-1.8452
1.82133
0.0238742
-1.79471
1.76534
0.0293666
-1.73335
1.69873
0.0346229
-1.66158
1.62191
0.0396772
-1.57985
1.53539
0.0444649
-1.48868
1.4397
0.0489743
-1.38864
1.33541
0.0532263
-1.28024
1.22305
0.0571818
-1.1641
1.10333
0.0607675
-1.04097
0.976881
0.0640914
-0.911312
0.844178
0.0671343
-0.775652
0.705427
0.0702249
-0.633688
0.560236
0.0734523
-0.484889
0.407267
0.077622
-0.326584
0.242782
0.0838017
-0.154121
0.0615001
0.0926206
-0.00422667
0.0056052
1.85481
-1.85035
1.84341
-0.0141066
0.0210478
-1.83373
1.82128
-0.0256254
0.0380741
-1.80605
1.78806
-0.0369178
0.0549067
-1.76736
1.74398
-0.0479898
0.0713666
-1.71797
1.68936
-0.0587987
0.0874103
-1.65817
1.62446
-0.0692476
0.102961
-1.58826
1.54963
-0.0792969
0.117929
-1.50861
1.46528
-0.0889079
0.132241
-1.41968
1.37188
-0.0980533
0.145852
-1.32193
1.26989
-0.106683
0.158718
-1.21582
1.15977
-0.114748
0.170793
-1.1018
1.04196
-0.12219
0.18203
-0.9803
0.916924
-0.128957
0.192333
-0.85188
0.785264
-0.134973
0.201589
-0.717162
0.647711
-0.14027
0.209721
-0.577006
0.50524
-0.144937
0.216703
-0.432634
0.359527
-0.149719
0.222827
-0.286185
0.213133
-0.156071
0.229123
-0.140197
0.0747042
-0.170834
0.236327
-0.00701133
0.00836026
1.78834
-1.78416
1.77734
-0.0281823
0.0350023
-1.76787
1.75576
-0.0506991
0.0628044
-1.74103
1.72369
-0.0729581
0.0902986
-1.70375
1.68122
-0.094783
0.117316
-1.65612
1.62849
-0.116059
0.143685
-1.59838
1.56581
-0.13669
0.169255
-1.53085
1.49352
-0.156562
0.193885
-1.4539
1.41202
-0.175568
0.217442
-1.36796
1.32178
-0.193627
0.239808
-1.27355
1.22334
-0.210692
0.260902
-1.17122
1.11726
-0.226728
0.280684
-1.06153
1.0041
-0.241701
0.299137
-0.945006
0.884312
-0.25554
0.316233
-0.822061
0.758303
-0.268089
0.331847
-0.693089
0.626481
-0.279078
0.345685
-0.558549
0.489388
-0.288176
0.357337
-0.41913
0.347984
-0.295322
0.366468
-0.276243
0.204393
-0.301359
0.373208
-0.133045
0.0641213
-0.308721
0.377644
-0.00964458
0.0109212
1.72431
-1.72044
1.71402
-0.0417161
0.0481398
-1.70504
1.69351
-0.0748451
0.0863747
-1.67944
1.66286
-0.107597
0.12418
-1.64377
1.6222
-0.139787
0.161357
-1.59818
1.57171
-0.171239
0.197704
-1.54284
1.51159
-0.201776
0.233024
-1.478
1.44211
-0.231215
0.267109
-1.40395
1.36358
-0.259378
0.299747
-1.32105
1.27642
-0.286105
0.330734
-1.22976
1.18114
-0.311267
0.359891
-1.13063
1.07834
-0.334791
0.387086
-1.02434
0.968736
-0.356651
0.412255
-0.911616
0.853064
-0.376858
0.43541
-0.793156
0.731951
-0.395362
0.456567
-0.669498
0.605838
-0.411903
0.475563
-0.541009
0.475051
-0.425896
0.491854
-0.40801
0.339956
-0.436496
0.504549
-0.271023
0.201482
-0.443352
0.512893
-0.131713
0.0632433
-0.447339
0.515808
-0.0121411
0.0133472
1.66255
-1.6589
1.65281
-0.0545119
0.0605999
-1.6443
1.63336
-0.097822
0.108759
-1.62001
1.60427
-0.140657
0.156404
-1.58613
1.56563
-0.182795
0.203299
-1.54277
1.51758
-0.224021
0.249215
-1.49007
1.46027
-0.264119
0.293914
-1.42822
1.39393
-0.302855
0.337139
-1.35746
1.31882
-0.339987
0.37862
-1.27808
1.23527
-0.375274
0.418083
-1.19045
1.14368
-0.408489
0.45526
-1.09502
1.04456
-0.439438
0.489902
-0.992367
0.938548
-0.467992
0.521811
-0.883199
0.826429
-0.494126
0.550897
-0.768341
0.709035
-0.517883
0.577188
-0.648597
0.587093
-0.539194
0.600698
-0.524569
0.461055
-0.557566
0.62108
-0.396569
0.331123
-0.571888
0.637334
-0.264747
0.197529
-0.580811
0.648028
-0.129544
0.0624429
-0.58389
0.650991
-0.0144938
0.0156206
1.60313
-1.59952
1.59381
-0.0666174
0.0723359
-1.5858
1.57552
-0.11957
0.12985
-1.56297
1.54815
-0.171982
0.186806
-1.53106
1.51172
-0.223602
0.24294
-1.49014
1.46633
-0.274185
0.297997
-1.4403
1.41207
-0.323478
0.351708
-1.38166
1.34909
-0.371198
0.403769
-1.31438
1.27758
-0.417048
0.453855
-1.2387
1.1978
-0.460722
0.501627
-1.15491
1.11008
-0.501912
0.546742
-1.06336
1.01483
-0.540319
0.588853
-0.964545
0.91259
-0.575678
0.627633
-0.859053
0.804038
-0.60782
0.662835
-0.747653
0.690013
-0.636725
0.694365
-0.631229
0.571404
-0.662441
0.722267
-0.510619
0.448933
-0.684726
0.746412
-0.386382
0.322982
-0.702545
0.765945
-0.258727
0.193605
-0.713998
0.77912
-0.127469
0.0623455
-0.717623
0.782747
-0.0166848
0.0177228
1.54551
-1.54248
1.53717
-0.077957
0.0832651
-1.52974
1.52019
-0.139961
0.149515
-1.50851
1.49471
-0.201398
0.215202
-1.47878
1.46073
-0.261998
0.280052
-1.44055
1.41825
-0.321498
0.343796
-1.39383
1.3673
-0.379614
0.406145
-1.33867
1.30794
-0.436024
0.466754
-1.27513
1.24026
-0.490373
0.525244
-1.20335
1.16443
-0.542291
0.581212
-1.12353
1.08069
-0.591397
0.634238
-1.03595
0.989358
-0.637296
0.683884
-0.940981
0.89088
-0.679603
0.729704
-0.839132
0.785827
-0.717991
0.771296
-0.731066
0.674963
-0.752279
0.808382
-0.617638
0.559216
-0.782473
0.840896
-0.499807
0.439506
-0.808512
0.868812
-0.378387
0.316496
-0.829598
0.891489
-0.253843
0.190381
-0.843652
0.907114
-0.125746
0.062772
-0.84853
0.911504
-0.0186947
0.0196331
1.49032
-1.48756
1.48271
-0.0884432
0.0932922
-1.47592
1.46717
-0.158843
0.167586
-1.45647
1.4438
-0.228695
0.241362
-1.42916
1.41254
-0.297728
0.314355
-1.39391
1.37329
-0.365674
0.3863
-1.35065
1.32598
-0.432234
0.456899
-1.29929
1.27056
-0.497049
0.525776
-1.2398
1.20701
-0.559714
0.592503
-1.1722
1.13538
-0.619792
0.656611
-1.09657
1.05579
-0.676825
0.717603
-1.01308
0.968462
-0.730325
0.77494
-0.921991
0.87372
-0.779787
0.828059
-0.823712
0.772044
-0.824733
0.876401
-0.718806
0.664105
-0.864783
0.919485
-0.608061
0.550807
-0.899787
0.957041
-0.492477
0.433199
-0.929716
0.988995
-0.373083
0.312217
-0.953987
1.01485
-0.250646
0.188338
-0.97054
1.03285
-0.124643
0.0637897
-0.977149
1.038
-0.0205013
0.021328
1.43699
-1.43435
1.43002
-0.0979755
0.102309
-1.42394
1.4161
-0.176041
0.183875
-1.4065
1.3951
-0.253632
0.265026
-1.3819
1.36687
-0.330497
0.345528
-1.34999
1.33123
-0.406382
0.425143
-1.31056
1.28797
-0.480989
0.50358
-1.26343
1.23692
-0.553934
0.580447
-1.20841
1.17791
-0.624762
0.655271
-1.14538
1.11083
-0.692976
0.727523
-1.07426
1.03568
-0.758035
0.796621
-0.995088
0.952516
-0.819348
0.86192
-0.907992
0.861554
-0.876286
0.922724
-0.813253
0.763153
-0.928213
0.978313
-0.711331
0.657884
-0.974541
1.02799
-0.602929
0.546601
-1.01489
1.07121
-0.48905
0.430433
-1.04912
1.10774
-0.370902
0.310597
-1.07681
1.13711
-0.249618
0.187988
-1.096
1.15763
-0.124651
0.0658142
-1.10448
1.16332
-0.0220804
0.0227829
1.38572
-1.38341
1.37965
-0.106439
0.110199
-1.37437
1.36755
-0.191353
0.198176
-1.35916
1.34919
-0.275927
0.285903
-1.33759
1.32434
-0.359955
0.373207
-1.30939
1.29271
-0.443219
0.459899
-1.27425
1.25398
-0.525443
0.545723
-1.23183
1.20778
-0.60623
0.630282
-1.18178
1.15379
-0.685093
0.713078
-1.12379
1.09173
-0.761471
0.793526
-1.05761
1.02139
-0.834741
0.870957
-0.983076
0.942662
-0.904199
0.944613
-0.900158
0.855584
-0.969077
1.01365
-0.808974
0.760375
-1.02857
1.07717
-0.70985
0.657485
-1.08186
1.13422
-0.603388
0.547697
-1.12827
1.18396
-0.490575
0.432205
-1.16745
1.22582
-0.372784
0.312515
-1.19898
1.25925
-0.251568
0.190063
-1.22103
1.28254
-0.126171
0.0693192
-1.23163
1.28848
-0.0234071
0.0239732
1.33613
-1.3342
1.33107
-0.113714
0.11684
-1.32667
1.32097
-0.204567
0.21027
-1.31393
1.30553
-0.295282
0.303683
-1.29572
1.28445
-0.385721
0.396992
-1.27167
1.25731
-0.475736
0.49009
-1.24132
1.22364
-0.565094
0.58278
-1.20419
1.18291
-0.65341
0.674692
-1.15973
1.13459
-0.740178
0.765319
-1.10742
1.07817
-0.824789
0.854038
-1.04679
1.01322
-0.906536
0.940102
-0.977434
0.939395
-0.9846
1.02264
-0.899088
0.856504
-1.05806
1.10064
-0.811653
0.764558
-1.1259
1.173
-0.715264
0.663836
-1.18707
1.2385
-0.610373
0.555008
-1.24053
1.2959
-0.497913
0.439299
-1.28559
1.3442
-0.379409
0.318519
-1.32167
1.38256
-0.256898
0.194792
-1.34705
1.40915
-0.129072
0.0743747
-1.36029
1.41499
-0.0244579
0.0248769
1.2884
-1.2867
1.28426
-0.11968
0.122117
-1.28082
1.27634
-0.215467
0.219947
-1.27078
1.26411
-0.31138
0.318056
-1.25626
1.24717
-0.407385
0.416471
-1.23678
1.22501
-0.503428
0.515199
-1.21178
1.19699
-0.599356
0.614138
-1.18057
1.16242
-0.694823
0.712978
-1.14244
1.12053
-0.789333
0.811238
-1.09661
1.07058
-0.88225
0.908284
-1.04234
1.01182
-0.972799
1.00332
-0.978936
0.94362
-1.06005
1.09537
-0.905813
0.865471
-1.14292
1.18326
-0.822564
0.777082
-1.22017
1.26565
-0.729035
0.678463
-1.29045
1.34102
-0.625442
0.570092
-1.35231
1.40766
-0.512591
0.453178
-1.40456
1.46397
-0.39216
0.329926
-1.44633
1.50856
-0.266906
0.203606
-1.47587
1.53917
-0.135144
0.0829692
-1.49246
1.54463
-0.0252131
0.0254773
1.24254
-1.24127
1.23957
-0.12423
0.125931
-1.23715
1.23398
-0.223853
0.227025
-1.23001
1.22519
-0.323925
0.328743
-1.21946
1.21275
-0.42454
0.431254
-1.20497
1.19603
-0.525776
0.534712
-1.18584
1.17428
-0.627594
0.639151
-1.16125
1.14661
-0.729729
0.744363
-1.13025
1.11205
-0.831731
0.84994
-1.09185
1.06954
-0.932979
0.955288
-1.04498
1.01804
-1.03266
1.05961
-0.988591
0.956509
-1.12977
1.16185
-0.921685
0.884016
-1.22306
1.26073
-0.843418
0.799824
-1.31107
1.35467
-0.753194
0.703516
-1.3921
1.44178
-0.650824
0.595206
-1.46421
1.51983
-0.536827
0.475945
-1.52556
1.58644
-0.412933
0.34832
-1.57472
1.63933
-0.282775
0.217234
-1.60984
1.67538
-0.1447
0.0951212
-1.63081
1.68039
-0.0256591
0.0257647
1.19798
-1.19736
1.19642
-0.127278
0.128215
-1.19507
1.19326
-0.229565
0.231368
-1.19096
1.1881
-0.332663
0.335522
-1.18462
1.18044
-0.436822
0.441007
-1.17546
1.16958
-0.542281
0.548154
-1.1627
1.15469
-0.649159
0.657175
-1.1454
1.13471
-0.757317
0.768013
-1.12245
1.10846
-0.866408
0.880395
-1.09258
1.07463
-0.975883
0.993836
-1.05442
1.03177
-1.08497
1.10761
-1.0065
0.978413
-1.19261
1.2207
-0.947326
0.91306
-1.29748
1.33175
-0.875449
0.834343
-1.39791
1.43902
-0.789612
0.741162
-1.49183
1.54028
-0.688944
0.632977
-1.57673
1.63269
-0.573375
0.510385
-1.64987
1.71286
-0.444428
0.376194
-1.70892
1.77716
-0.306668
0.237407
-1.75162
1.82088
-0.159006
0.111975
-1.77851
1.82554
-0.0257908
0.0257392
1.15528
-1.15511
1.15495
-0.128776
0.128941
-1.15468
1.15427
-0.232497
0.232909
-1.15367
1.15282
-0.337412
0.338259
-1.15166
1.1501
-0.443939
0.445494
-1.14806
1.14542
-0.552505
0.555143
-1.14207
1.13786
-0.663427
0.667629
-1.13267
1.12631
-0.776745
0.783103
-1.11862
1.1094
-0.892279
0.901492
-1.09847
1.08559
-1.00963
1.02251
-1.07054
1.05307
-1.12816
1.14562
-1.03294
1.00987
-1.2469
1.26997
-0.983602
0.953842
-1.36453
1.39428
-0.920317
0.88275
-1.47925
1.51682
-0.840879
0.794466
-1.58874
1.63516
-0.743314
0.687299
-1.68985
1.74587
-0.626408
0.560805
-1.77874
1.84434
-0.490906
0.417557
-1.85163
1.92498
-0.342144
0.267155
-1.90533
1.98031
-0.180563
0.136415
-1.94095
1.9851
-0.0256135
0.0254114
1.11405
-1.11416
1.11475
-0.12872
0.128129
-1.11554
1.11649
-0.232626
0.231669
-1.11758
1.11873
-0.338098
0.336945
-1.11989
1.12099
-0.445726
0.44463
-1.12193
1.12261
-0.556141
0.555457
-1.12292
1.12272
-0.669889
0.67009
-1.12186
1.12017
-0.787237
0.788925
-1.11747
1.11355
-0.908241
0.912159
-1.10819
1.10115
-1.03276
1.0398
-1.09214
1.08089
-1.16039
1.17164
-1.06707
1.05034
-1.29042
1.30715
-1.03034
1.00666
-1.42173
1.44541
-0.978884
0.94658
-1.55268
1.58498
-0.909289
0.866551
-1.68084
1.72358
-0.817924
0.763012
-1.80263
1.85754
-0.701532
0.6334
-1.91295
1.98108
-0.558878
0.478878
-2.00595
2.08594
-0.395236
0.311823
-2.0765
2.15992
-0.213623
0.175053
-2.12703
2.1656
-0.025143
0.0248023
1.0743
-1.07502
1.07632
-0.127157
0.125854
-1.07811
1.08037
-0.23002
0.227762
-1.08306
1.08613
-0.334778
0.331705
-1.08954
1.09322
-0.442183
0.438504
-1.0971
1.10108
-0.553069
0.549088
-1.10506
1.10892
-0.668225
0.664365
-1.11252
1.1157
-0.78818
0.784999
-1.11828
1.12007
-0.913288
0.911503
-1.12082
1.1203
-1.04374
1.04426
-1.11821
1.11422
-1.17953
1.18351
-1.10799
1.09911
-1.32039
1.32927
-1.08713
1.07155
-1.4657
1.48128
-1.05181
1.02729
-1.61431
1.63883
-0.997296
0.961076
-1.76426
1.80048
-0.917817
0.86668
-1.91206
1.9632
-0.806854
0.737681
-2.05172
2.12089
-0.658857
0.570919
-2.17471
2.26265
-0.475799
0.37855
-2.27196
2.36921
-0.262185
0.225475
-2.34755
2.38426
-0.0244054
0.0239425
1.03582
-1.03694
1.03888
-0.124188
0.12224
-1.04159
1.04503
-0.224841
0.221398
-1.04919
1.05403
-0.32765
0.322808
-1.05952
1.06562
-0.4335
0.427406
-1.07226
1.07938
-0.543406
0.536286
-1.08689
1.09471
-0.658394
0.650576
-1.10271
1.11077
-0.779262
0.771204
-1.11873
1.12642
-0.90669
0.899004
-1.13362
1.14012
-1.04127
1.03478
-1.14562
1.14984
-1.1835
1.17929
-1.15239
1.15288
-1.33373
1.33324
-1.15083
1.14567
-1.49214
1.4973
-1.13675
1.12332
-1.65862
1.67205
-1.10448
1.07919
-1.83248
1.85777
-1.04621
1.00412
-2.01157
2.05366
-0.951306
0.886084
-2.19055
2.25577
-0.806883
0.712902
-2.35914
2.45312
-0.604976
0.488558
-2.50214
2.61856
-0.349157
0.306821
-2.62193
2.66427
-0.0234349
0.0228695
0.998817
-1.00046
1.00296
-0.11996
0.117454
-1.00646
1.01093
-0.217344
0.212867
-1.01638
1.02278
-0.317054
0.310654
-1.03012
1.03836
-0.420066
0.411817
-1.04749
1.05747
-0.527539
0.517567
-1.06823
1.07972
-0.640697
0.629206
-1.09187
1.10457
-0.760585
0.747877
-1.11774
1.13123
-0.888189
0.8747
-1.14489
1.15854
-1.02451
1.01086
-1.17197
1.18493
-1.17058
1.15763
-1.1971
1.20815
-1.32748
1.31644
-1.21763
1.22505
-1.4964
1.48898
-1.22978
1.23107
-1.67869
1.6774
-1.22797
1.21932
-1.87584
1.88449
-1.20363
1.17902
-2.08892
2.11353
-1.14311
1.09294
-2.3166
2.36677
-1.02497
0.935365
-2.55172
2.64132
-0.820956
0.682974
-2.77606
2.91404
-0.514094
0.443779
-2.9885
3.05881
-0.0222716
0.0216249
0.963273
-0.965007
0.96797
-0.114656
0.111692
-0.972116
0.977446
-0.207851
0.202521
-0.98396
0.991657
-0.303441
0.295744
-1.00054
1.01061
-0.402446
0.392379
-1.02186
1.03427
-0.506109
0.49369
-1.04785
1.06256
-0.615798
0.60109
-1.07837
1.09525
-0.732737
0.71586
-1.11314
1.13199
-0.858159
0.839314
-1.1517
1.17219
-0.993403
0.972916
-1.19332
1.21495
-1.13997
1.11833
-1.2369
1.25893
-1.29959
1.27756
-1.28078
1.3021
-1.47444
1.45311
-1.32248
1.34138
-1.66739
1.64849
-1.35812
1.3718
-1.88256
1.86889
-1.3812
1.38465
-2.12565
2.12219
-1.37983
1.36345
-2.40346
2.41984
-1.33092
1.27587
-2.72191
2.77696
-1.19003
1.06137
-3.08205
3.21071
-0.890903
0.810625
-3.50482
3.58509
0.00371373
-0.000144425
-0.00357148
-1.29531e-05
-0.00276027
0.00277527
-0.00286829
0.0154902
-0.0126285
-0.0363708
0.0623338
-0.025891
-0.0849552
0.10385
-0.0188188
-0.12324
0.146919
-0.0206321
-0.158078
0.136134
0.0219449
-0.0660124
-0.0527322
0.118744
0.229019
-0.450717
0.228784
0.647923
-0.736085
0.0882015
0.704896
-0.56295
-0.14571
0.398483
-0.26894
-0.13424
0.168434
-0.0810635
-0.0900247
0.00885844
0.0325103
-0.0433736
-0.0384739
0.0190921
0.0191501
0.0129987
-0.0446266
0.0301139
0.0610039
-0.0760981
0.0150812
0.117201
-0.199255
0.0820458
0.287108
-0.250825
0.0222223
0.197662
-0.102842
0.0140735
0.0172027
0.00696607
0.0037957
-0.0424801
0.0900285
-0.0172123
-0.474489
1.07664
-0.403195
-1.71795
2.70204
-0.116947
-2.95796
2.8498
-0.0776098
-2.83494
2.76587
0.0297536
-5.25007
4.04523
0.0390449
-3.53272
3.51138
0.021339
-3.47643
3.42502
0.0514178
-6.02784
6.43304
0.0494051
-6.43846
6.38733
-0.0140807
-3.39987
1.64367
-0.00367806
-1.73514
1.78324
0.0235549
-1.84671
5.5407
0.0681229
-6.27408
6.23688
0.0370255
-6.20846
6.18528
0.0230902
-6.16905
6.15158
0.0170715
-6.12335
6.08675
0.0118002
-6.11506
6.14833
-0.018278
-1.13081
0.48985
0.00154861
-0.497475
0.499529
0.000463062
-2.16113
2.15675
0.00674931
-2.14771
2.14913
0.000953698
-2.14414
0.0317033
0.000382475
-0.0309401
0.0304912
0.000383407
-0.031445
0.0306067
-0.000924567
-0.0338705
0.0340024
-0.000458876
-0.0346888
0.0352126
-0.000216483
-0.0420754
0.151266
-0.00514648
-0.388011
0.428607
-0.0811569
-0.450376
3.74595
-0.210331
-5.88125
5.26557
-0.0921577
-4.55078
5.29367
0.322505
-5.55339
5.24158
0.315012
-5.0613
5.00958
0.044306
-5.22513
5.49922
-0.0825694
-5.62405
5.75361
-0.129561
-5.86893
5.96281
-0.0938725
-6.02835
6.08736
-0.0590079
-6.12111
6.14338
-0.0264259
-0.0124739
0.0340074
-0.0215335
0.0212143
-0.0264941
-0.00742646
0.0127065
0.0294648
-0.0278212
0.0186746
-0.0203176
0.0195042
-0.00362744
0.0484377
-0.0643145
-0.014939
0.0308021
0.0367869
-0.0527807
-0.0428591
0.0504474
0.0314612
-0.0390499
-0.0491057
0.0309513
-0.0433988
0.0615535
0.0126104
-0.076509
-0.201914
0.265814
0.150045
-0.220818
-0.357375
0.431787
0.353239
-0.463478
-0.198235
0.29813
0.507568
-0.528222
0.21105
-0.214168
0.452747
-0.353432
0.24888
-0.343135
0.265149
-0.191246
0.172092
-0.233975
0.127807
-0.0848731
0.0859873
-0.126487
0.0637305
-0.0607833
-0.0259648
0.0224488
0.0704968
-0.0856746
-0.0522358
0.0670757
0.0983184
-0.107159
-0.0313211
0.0401618
0.0876626
-0.0169665
-0.111846
0.0096836
0.000954672
1.0811e-22
-0.000954672
1.28859e-19
2.1899e-19
0.0398809
0.00810324
-0.0479841
-0.775752
2.84728
0.0688712
-2.06814
-5.00646
5.46408
1.43745
-1.89507
-5.61667
5.81848
0.861306
-1.06312
-6.03204
6.21696
0.332431
-0.517347
-6.3566
6.45805
0.20773
-0.309183
-6.54342
6.62417
0.0104403
-0.0911883
-6.68744
6.71918
-0.0227758
-0.0101678
-6.72347
6.72987
-0.044742
0.0540425
-6.74753
6.75104
-0.112721
0.10855
-6.59282
6.60469
-0.0501118
0.0586762
-6.61054
6.59748
0.0202224
-0.0102165
-6.44307
5.48424
0.00858054
0.0106215
-4.28393
4.55119
-0.0458443
0.133554
-6.06892
6.6063
-0.125766
0.147314
-6.57783
6.54711
-0.0702671
0.100821
-6.51832
0.899848
-0.0479819
0.0560737
-0.798616
0.81587
-0.0255126
0.00507938
-0.8334
0.850502
-0.001749
-0.0185319
-2.77226
6.06372
0.0746014
-0.119673
-6.12199
5.38907
0.0617374
-0.116584
-4.03172
4.22463
0.00306621
-0.040616
-5.32484
6.32658
0.00384769
-0.0228098
-6.36342
6.31504
0.00666808
-0.0124786
-6.04048
5.3768
-0.00626269
0.0193631
-5.17627
5.25639
-0.0177691
0.0364303
-5.84139
6.52495
0.00922558
-0.0257622
-6.63922
6.66705
0.0647639
-0.0926014
-6.69832
6.74607
0.136209
-0.183958
-6.81095
6.88576
0.255565
-0.330382
-6.98021
7.10927
0.253905
-0.38296
-7.25703
7.3696
0.359893
-0.472463
-7.45514
7.57472
-0.0616147
-0.0579738
-7.64756
2.02104
-0.452877
0.594696
0.0257501
-3.04619e-18
-0.0257501
-3.24885e-19
-2.93064e-20
0.00877908
-0.00877908
1.7016e-21
-0.654498
4.51607
0.135132
-0.0637944
-6.15154
6.24462
0.243613
-0.336686
-6.32371
6.38796
0.172896
-0.23715
-6.44014
6.47749
0.103852
-0.141204
-6.507
6.52856
0.0525866
-0.0741419
-0.0688797
0.103688
-0.0519963
0.0477306
-0.0512319
-0.0178248
0.0190951
0.0522896
-0.0538238
0.0184925
-0.0129211
0.0565307
-0.0572242
0.0730486
-0.0788772
0.0469101
-0.0346948
0.0668624
-0.0788131
0.0237058
-0.0169408
0.0455162
-0.0390579
0.0173234
-0.0246543
-0.0750336
0.0752575
0.0524861
-0.101086
-0.318321
0.302447
0.138903
-0.168325
-0.490697
0.543199
0.209047
-0.222425
-0.336173
0.274736
0.290795
-0.435232
0.183961
-0.158964
0.417368
-0.334418
0.397977
-0.396408
0.28011
-0.226111
0.27168
-0.325679
0.194658
-0.171447
0.162633
-0.207954
0.153375
-0.146319
-0.0152291
0.00673432
0.146894
-0.153548
-0.0770175
0.0836712
0.150417
-0.0144776
-0.0358997
0.0227445
-1.79799e-22
-1.00206e-18
7.06359e-23
1.00217e-18
-0.170774
2.10086
0.0122311
-2.16199
-4.43811
5.20292
2.54304
-3.30785
-5.30835
5.41007
2.62764
-2.72936
-5.5106
5.61798
1.99065
-2.09803
-5.7484
5.90304
1.23049
-1.38514
-6.06489
6.21216
0.677926
-0.825193
-6.33151
6.42546
0.405962
-0.49991
-6.50601
6.57979
0.169668
-0.243444
-6.63997
6.68144
0.0501807
-0.0916428
-6.71014
6.73237
-0.0353093
0.0130706
-6.75055
6.76473
-0.0967857
0.0826102
-6.77131
6.7677
-0.0646507
0.0682577
-6.75602
6.73728
-0.00818085
0.0269134
-6.71406
6.69449
-0.0314278
0.0509985
-6.6846
6.68248
-0.146164
0.148281
-6.67873
6.53354
-0.162268
0.17172
-6.53529
6.52205
-0.113988
0.146174
-6.55881
6.60652
-0.100914
0.112233
-6.60121
6.59548
-0.0442642
0.0499977
-6.59346
6.59391
0.0256191
-0.0260692
-6.59012
6.58178
0.113476
-0.105127
-6.57341
6.57078
0.114711
-0.11208
-6.57769
6.59051
0.0560482
-0.0688648
-6.60346
6.61409
0.0347171
-0.0453431
-6.62198
6.62827
0.0172114
-0.0234953
-6.63548
6.6455
-0.0103747
0.00035441
-6.65875
6.67374
-0.0188901
0.00389688
-6.68547
6.69242
0.0350096
-0.0419608
-6.69914
6.70969
0.108725
-0.119269
-6.72673
6.74959
0.218282
-0.241168
-6.77376
6.79656
0.375257
-0.398065
-6.82202
6.85149
0.460436
-0.489912
-6.87188
6.63257
0.540301
-0.503834
-1.50728
-0.00356046
0.0546606
-0.00586991
-0.00203283
5.4209e-19
0.00209987
-6.70401e-05
7.26463e-36
1.61579e-37
-1.49618e-35
7.53555e-36
-0.000201753
8.43773e-06
1.66648e-22
5.29127e-06
-2.43106e-20
0.00943058
2.35627e-05
-0.00945415
-6.38786
6.58366
0.397006
-0.41893
-6.60976
6.63677
0.282394
-0.309411
-6.66257
6.68286
0.169881
-0.190169
-6.69963
6.71089
0.0903648
-0.101621
-0.155124
0.214464
-0.0563127
0.0722498
-0.0831553
-0.0170367
0.0263098
0.0893316
-0.0964788
0.0130162
-0.0141875
0.101804
-0.113616
0.0754996
-0.0653529
0.105147
-0.0878325
0.0763237
-0.065006
0.0816504
-0.0834173
0.046549
-0.0632227
0.0830515
-0.0835375
-0.0873619
0.0917789
0.0914984
-0.136492
-0.324714
0.39659
0.178001
-0.189878
-0.56118
0.573058
0.189991
-0.146942
-0.347524
0.48483
0.117265
-0.361155
0.117518
-0.0742433
0.375576
-0.332679
0.429541
-0.448343
0.322607
-0.332165
0.367199
-0.48388
0.29344
-0.264804
0.240261
-0.268897
0.255069
-0.254262
-3.38888e-05
-0.000773121
0.22176
-0.0452909
-0.0760156
0.00659842
0.00178593
0.0029083
6.25794e-22
-0.00469423
-0.597978
3.85648
0.357246
-3.87723
-4.8326
4.97645
3.9288
-4.07265
-5.0959
5.22189
3.42124
-3.54723
-5.34988
5.47736
2.84284
-2.97032
-5.60285
5.73019
2.21546
-2.3428
-5.86391
6.00522
1.53075
-1.67205
-6.14546
6.2739
0.960772
-1.08922
-6.38155
6.46873
0.58979
-0.676969
-6.54097
6.60246
0.310376
-0.371864
-6.65183
6.68819
0.130898
-0.167259
-6.71453
6.7349
0.00889176
-0.0292619
-6.75129
6.7634
-0.0689277
0.0568126
-6.7691
6.76673
-0.0710065
0.0733721
-6.75697
6.74129
-0.0443515
0.0600336
-6.72295
6.70759
-0.0684119
0.0837676
-6.69956
6.69804
-0.149898
0.151385
-6.69822
6.69592
-0.178216
0.180512
-6.69064
6.6842
-0.156603
0.163042
-6.67853
6.67482
-0.118648
0.122353
-6.67158
6.66788
-0.0547375
0.058437
-6.66403
6.65963
0.0231149
-0.0187208
-6.65309
6.64489
0.0963915
-0.0881934
-6.63791
6.63564
0.109435
-0.107165
-6.63989
6.64912
0.0794072
-0.0886374
-6.65999
6.67002
0.0553626
-0.06539
-6.67816
6.68527
0.0302871
-0.0373972
-6.6929
6.70195
0.00919448
-0.0182507
-6.71264
6.72369
0.00872146
-0.0197745
-6.73141
6.73356
0.0463624
-0.0485117
-6.73186
6.72917
0.123242
-0.120558
-6.72787
6.72875
0.252779
-0.253661
-6.72945
6.72559
0.405029
-0.401172
-6.71154
6.67981
0.476744
-0.445009
-6.61216
3.85037
0.397077
-0.282428
0.000575671
-0.000575671
-1.01317e-20
-9.88561e-22
-0.00509115
0.0064316
-0.000923151
0.000686893
-0.00634082
0.00149538
-0.00129019
0.000453288
0
-2.04512e-22
-2.28334e-23
-1.09107e-23
-0
3.51814
0.00424184
-0.0381346
-6.87697
6.85512
0.411007
-0.389156
-6.84739
6.84847
0.321137
-0.322219
-6.85411
6.85999
0.202483
-0.208372
-6.86558
6.86814
0.108134
-0.1107
-0.247463
0.334772
-0.0174254
0.082931
-0.111499
-0.04329
0.0718585
0.130007
-0.143924
0.00843236
0.00434563
0.145224
-0.140765
0.0475993
-0.0303734
0.158245
-0.175324
0.0692995
-0.0667627
0.193523
-0.184819
0.0895875
-0.0982922
0.167993
-0.144823
-0.0831819
0.0610489
0.111019
-0.149691
-0.394812
0.10828
0.253099
-0.25889
-0.583132
0.588924
0.230048
-0.0798214
-0.523649
0.430268
0.0864645
-0.340463
0.0510933
-0.0265156
0.374383
-0.394516
0.499791
-0.479658
0.40025
-0.395652
0.505863
-0.510461
0.333368
-0.0518519
0.267523
-0.0588003
0.00114551
2.17516e-21
-0.00114551
-5.37361e-22
-1.08667e-22
7.11376e-19
-8.67362e-19
7.91353e-20
-0.679101
3.85874
1.00774
-4.61088
-4.55178
4.68586
4.67257
-4.80665
-4.82869
4.9752
4.20215
-4.34866
-5.12546
5.27591
3.68421
-3.83466
-5.42566
5.57057
3.10642
-3.25134
-5.71076
5.84537
2.47399
-2.6086
-5.97731
6.10574
1.80606
-1.93449
-6.22841
6.33915
1.2077
-1.31844
-6.43305
6.50937
0.758592
-0.834916
-6.57085
6.62065
0.426905
-0.476704
-6.65961
6.68864
0.199548
-0.228578
-6.70978
6.72567
0.0470826
-0.0629736
-6.73789
6.74664
-0.0467235
0.0379747
-6.75091
6.74986
-0.0752761
0.0763307
-6.74369
6.73359
-0.0730826
0.0831888
-6.72198
6.71234
-0.0963812
0.106022
-6.70752
6.7077
-0.152322
0.152138
-6.7107
6.71386
-0.179944
0.176788
-6.71606
6.71763
-0.165187
0.163617
-6.71929
6.72145
-0.123189
0.121027
-6.72293
6.72253
-0.0606714
0.0610724
-6.72008
6.71618
0.014201
-0.0103005
-6.71116
6.70588
0.0813185
-0.076043
-6.70205
6.7014
0.105597
-0.104953
-6.70523
6.71336
0.0969914
-0.105122
-6.72408
6.73486
0.0755566
-0.0863331
-6.74388
6.75141
0.0446188
-0.0521501
-6.75885
6.76719
0.0267558
-0.0350955
-6.7769
6.78703
0.0298643
-0.0399913
-6.794
6.79381
0.0489607
-0.0487787
-6.7857
6.77142
0.111624
-0.0973501
-6.75296
6.73297
0.244014
-0.224025
-6.71365
6.69463
0.388963
-0.36995
-6.66904
6.62871
0.405394
-0.365059
-6.56557
4.52118
0.179234
-0.0941056
-0.00196785
-1.78173e-06
1.17348e-19
0.00196963
-5.74011e-06
2.51058e-05
-6.25883e-05
3.74812e-19
-9.9591e-07
1.10403e-22
9.9591e-07
1.04387e-23
1.7908e-19
0
2.44196e-23
0
-4.72177
7.10546
0.139952
-0.169086
-7.07606
7.05168
0.363426
-0.33904
-7.03628
7.02763
0.316838
-0.308186
-7.02284
7.0194
0.209001
-0.205558
-7.01698
7.01346
0.109911
-0.106387
-0.353189
0.379588
-0.0263996
0.0739206
-0.117661
-0.108519
0.150288
0.152244
-0.181464
-0.0231578
0.0495114
0.200199
-0.19162
0.0171058
-0.000638033
0.211667
-0.258505
0.0602116
-0.0436331
0.275032
-0.288467
0.0977274
-0.0842921
0.290773
-0.107355
-0.0275287
0.0127217
0.0067245
-0.00291204
-0.00766584
0.00459403
0.0131124
-0.054002
-0.156564
0.00446953
0.0138484
-7.78554e-05
-0.042709
0.00308399
0.0575168
-0.275335
0.0113344
-0.00502119
0.323403
-0.365593
0.447543
-0.385763
0.422272
-0.283363
0.494503
-0.432024
0
3.37254e-20
0
-9.57614e-21
-8.7257e-20
-3.28663e-20
7.57753e-21
8.4555e-35
-0.26349
3.01005
0.486693
-3.47577
-4.2232
4.36202
5.37163
-5.51045
-4.51582
4.68093
4.95593
-5.12103
-4.85266
5.02696
4.50951
-4.68381
-5.19967
5.36673
3.99454
-4.16161
-5.52729
5.67783
3.40083
-3.55137
-5.81894
5.94944
2.74174
-2.87224
-6.07047
6.18157
2.0541
-2.1652
-6.28303
6.37291
1.41817
-1.50804
-6.44842
6.51
0.903251
-0.964832
-6.55954
6.59954
0.520607
-0.560604
-6.63155
6.6567
0.254611
-0.279761
-6.67633
6.69183
0.077699
-0.0932005
-6.70429
6.71411
-0.0295677
0.0197448
-6.72077
6.72404
-0.0756968
0.0724317
-6.72411
6.72181
-0.0895598
0.0918595
-6.71866
6.71664
-0.11197
0.113998
-6.71751
6.72198
-0.150082
0.14561
-6.72935
6.73799
-0.170995
0.162354
-6.74658
6.75485
-0.158719
0.150447
-6.76316
6.77171
-0.115777
0.107228
-6.7793
6.78376
-0.0592489
0.054783
-6.78448
6.78308
0.00756689
-0.00616758
-6.781
6.77926
0.0726204
-0.0708745
-6.77879
6.7802
0.105364
-0.106769
-6.78415
6.79179
0.113013
-0.12066
-6.80293
6.81523
0.0977532
-0.110049
-6.82569
6.83411
0.0599642
-0.0683847
-6.84231
6.851
0.0433782
-0.0520746
-6.86098
6.87249
0.0506098
-0.0621194
-6.88287
6.8861
0.0494046
-0.0526383
-6.8782
6.86033
0.079829
-0.0619626
-6.83089
6.78998
0.193959
-0.153046
-6.74629
6.71292
0.344616
-0.311248
-6.68555
6.65574
0.329468
-0.299659
-6.62316
6.59724
0.0372922
-0.0113654
-4.72754
0.474225
-0.0720976
0.297296
-0.0232933
1.14447e-19
-3.84022e-21
0.0232933
2.80089e-20
2.83571
4.35106e-20
0.222132
-6.96339
7.22732
-0.144811
0.146811
-7.24017
7.23491
0.159781
-0.154521
-7.2203
7.20518
0.31916
-0.304038
-7.19293
7.18274
0.298317
-0.288121
-7.17314
7.1638
0.19905
-0.189708
-7.15581
7.14842
0.100751
-0.0933608
-0.41778
0.446049
-0.0541754
0.0846415
-0.13697
-0.191751
0.237912
0.175601
-0.208133
-0.0798508
0.112385
0.236972
-0.260252
-0.0202431
0.0442004
0.280541
-0.304273
0.0242557
-0.00160258
0.332188
-0.366619
0.0590468
-0.0246169
0.359636
-0.0151069
-0.0196506
0.0399776
0.00349346
-0.00295765
-0.00438761
0.00473468
0.00267314
-0.00295758
-0.0052895
0.00565537
0.00281302
-0.00706118
-0.00665855
0.011524
0.196343
-0.232219
-0.00788047
0.0444766
0.27046
-0.376402
0.306879
-0.232649
0.41275
-0.158656
0.352608
-0.222761
0
1.03939e-21
3.16198e-20
-8.31064e-20
3.06592e-21
0.594177
1.1345e-17
-0.594177
-3.74933
4.05634
5.80263
-6.10964
-4.19511
4.35979
5.66085
-5.82553
-4.54047
4.72955
5.29678
-5.48586
-4.92089
5.10918
4.86542
-5.05371
-5.28991
5.45979
4.33179
-4.50167
-5.61743
5.75928
3.69876
-3.84061
-5.8883
6.00316
2.99501
-3.10987
-6.10564
6.19444
2.26424
-2.35304
-6.27295
6.34281
1.58673
-1.65659
-6.40291
6.45449
1.01938
-1.07096
-6.49938
6.53903
0.598103
-0.637749
-6.57418
6.6054
0.305996
-0.337216
-6.63287
6.65681
0.111457
-0.135397
-6.67741
6.69517
-0.00680857
-0.0109546
-6.70932
6.72007
-0.0657107
0.0549558
-6.728
6.73389
-0.0898719
0.0839789
-6.73893
6.7444
-0.112028
0.106555
-6.75143
6.76086
-0.138536
0.129106
-6.77322
6.78753
-0.150897
0.136587
-6.80214
6.81629
-0.139204
0.125055
-6.83028
6.84463
-0.0956645
0.0813208
-6.85866
6.86929
-0.0474353
0.0368034
-6.87409
6.87567
0.00617457
-0.00775426
-6.87611
6.87647
0.070512
-0.0708707
-6.87801
6.8809
0.108967
-0.111857
-6.88417
6.88909
0.127494
-0.131741
-6.89774
6.89035
0.122734
-0.131717
-6.80609
6.65559
0.0775095
-0.0303197
-6.41563
5.96191
0.0615346
5.26259e-18
-5.78569
5.76201
0.073793
-5.35766e-14
-5.38694
2.77156
0.0610707
-6.61618e-13
-0.200103
0.0261059
0.0130014
-1.0572e-12
-0.013337
0.00693539
0.0235813
-3.54926e-13
-0.3439
3.45977
0.174587
3.06662e-29
-6.5844
6.72449
0.278612
-0.263684
-6.72133
6.73235
0.0060623
-0.0170882
-6.77055
6.84425
-0.327915
0.254211
-6.94518