/*--------------------------------*- C++ -*----------------------------------*\
| =========                 |                                                 |
| \\      /  F ield         | OpenFOAM: The Open Source CFD Toolbox           |
|  \\    /   O peration     | Version:  v1912                                 |
|   \\  /    A nd           | Website:  www.openfoam.com                      |
|    \\/     M anipulation  |                                                 |
\*---------------------------------------------------------------------------*/
FoamFile
{
    version     2.0;
    format      ascii;
    class       volScalarField;
    location    "44";
    object      epsilon;
}
// * * * * * * * * * * * * * * * * * * * * * * * * * * * * * * * * * * * * * //

dimensions      [0 2 -3 0 0 0 0];


internalField   nonuniform List<scalar> 
20320
(
4.44149e-05
0.000214355
0.000220199
0.000225979
0.00023165
0.000237165
0.000242465
0.000247477
0.00025212
0.0002563
0.00025991
0.000262829
0.000264924
0.000266033
0.000265961
0.000264447
0.000260979
0.000254279
0.000240797
0.000206842
4.40126e-05
4.39266e-05
4.46719e-05
4.64494e-05
4.97775e-05
5.53172e-05
6.39102e-05
7.66189e-05
9.4796e-05
0.000120157
0.000154846
0.000201503
0.000263321
0.000343885
0.000447041
0.000575795
0.000729421
0.000893392
0.00102285
0.00113861
4.44239e-05
4.49233e-05
4.6136e-05
4.81811e-05
5.15031e-05
5.67159e-05
6.47115e-05
7.68262e-05
9.50595e-05
0.000122334
0.00016276
0.000221875
0.000306777
0.000426127
0.000589585
0.000805674
0.00107579
0.00137811
0.00163286
0.00190383
4.5011e-05
4.65126e-05
4.88047e-05
5.19443e-05
5.63971e-05
6.2808e-05
7.21169e-05
8.57447e-05
0.00010589
0.000135971
0.000181196
0.000249144
0.000350137
0.000497142
0.000704958
0.000987648
0.00135048
0.00176756
0.00213483
0.00259894
4.57376e-05
4.85769e-05
5.23196e-05
5.69543e-05
6.29697e-05
7.10502e-05
8.21871e-05
9.78752e-05
0.00012044
0.000153566
0.000203096
0.000278071
0.000391674
0.000561313
0.000806973
0.00114713
0.00158923
0.00210425
0.00257508
0.00328853
4.6582e-05
5.11012e-05
5.67039e-05
6.33112e-05
7.14215e-05
8.17526e-05
9.53429e-05
0.00011375
0.000139389
0.000176093
0.000230037
0.000311143
0.00043479
0.000622753
0.00090128
0.00129438
0.00181057
0.00241449
0.00297955
0.00398147
4.75156e-05
5.40269e-05
6.18931e-05
7.09742e-05
8.17661e-05
9.50052e-05
0.000111761
0.00013364
0.000163135
0.000204194
0.000263199
0.000350589
0.000483234
0.000686604
0.000993646
0.00143587
0.00202396
0.0027137
0.00336776
0.00468398
4.85038e-05
5.72721e-05
6.77819e-05
7.98475e-05
9.39531e-05
0.00011084
0.000131588
0.00015783
0.00019212
0.000238511
0.000303551
0.000398034
0.000539859
0.000757416
0.00109005
0.00157822
0.00223712
0.00301318
0.00375594
0.00540656
4.95042e-05
6.07221e-05
7.41947e-05
8.97245e-05
0.000107788
0.000129127
0.000154814
0.000186484
0.000226733
0.000279706
0.000352105
0.000455023
0.00060715
0.000839222
0.00119639
0.00172882
0.00245861
0.00332367
0.00415786
0.00616127
5.04678e-05
6.42244e-05
8.08709e-05
0.000100258
0.000122883
0.000149509
0.000181197
0.000219571
0.000267245
0.000328444
0.000410019
0.000523355
0.000687848
0.000936231
0.00131892
0.001896
0.00269846
0.0036569
0.00458664
0.00696677
5.13404e-05
6.75909e-05
8.74632e-05
0.000110947
0.000138627
0.000171344
0.000210186
0.000256769
0.000313726
0.000385346
0.000478634
0.000605284
0.00078541
0.00105364
0.00146536
0.00209077
0.0029716
0.00403258
0.00506673
0.00785094
5.20676e-05
7.06085e-05
9.35526e-05
0.000121149
0.00015418
0.000193679
0.000240854
0.000297378
0.000365937
0.000450904
0.000559458
0.000703655
0.000904422
0.00119839
0.001646
0.00232802
0.00329866
0.00447761
0.0056292
0.00884904
5.26005e-05
7.3061e-05
9.86894e-05
0.000130132
0.000168521
0.000215268
0.000271878
0.000340241
0.000423216
0.000525363
0.00065412
0.00082203
0.00105106
0.00138023
0.00187562
0.00262964
0.00371133
0.00503561
0.00632651
0.0100105
5.29024e-05
7.47577e-05
0.000102451
0.000137159
0.000180544
0.00023464
0.00030154
0.000383644
0.000484278
0.000608448
0.000764112
0.000964607
0.00123343
0.00161284
0.00217596
0.0030292
0.00425978
0.00577718
0.00724408
0.0114234
5.29548e-05
7.55639e-05
0.000104508
0.000141595
0.000189192
0.000250236
0.000327803
0.000425284
0.000547003
0.000698986
0.000890316
0.00113586
0.0014617
0.00191519
0.00257965
0.00358074
0.00503069
0.00683234
0.0085456
0.013256
5.27609e-05
7.54263e-05
0.000104691
0.000143027
0.000193631
0.000260614
0.000348492
0.000462311
0.000608256
0.000794404
0.0010322
0.00133961
0.00174763
0.00231254
0.00313502
0.0043721
0.00617775
0.00844898
0.0105549
0.0158387
5.23445e-05
7.43834e-05
0.000103018
0.00014134
0.000193404
0.000264675
0.00036155
0.000491513
0.00066379
0.000890151
0.00118659
0.00157716
0.00210236
0.00283555
0.00391048
0.005546
0.00798716
0.0111594
0.0140741
0.0201357
5.17468e-05
7.25588e-05
9.97018e-05
0.000136754
0.000188538
0.000261892
0.000365383
0.000509673
0.000708403
0.000979239
0.00134605
0.00184403
0.00253138
0.00351403
0.00499187
0.00731922
0.0109825
0.016139
0.0211943
0.0288507
5.10187e-05
7.01371e-05
9.51003e-05
0.000129781
0.000179559
0.000252455
0.000359221
0.000514153
0.000736545
0.00105241
0.00149774
0.00212602
0.00302585
0.00436137
0.00645943
0.00997047
0.0160482
0.0260583
0.0385778
0.0533956
5.02139e-05
6.7332e-05
8.96544e-05
0.000121132
0.000167403
0.000237292
0.000343383
0.00050355
0.000743375
0.0010992
0.00162343
0.00239598
0.00355151
0.00534636
0.00832347
0.0137084
0.0242808
0.0459547
0.0871223
0.168558
0.862476
2.44154
3.85187
5.69739
7.90488
10.8391
12.7875
13.6202
20.6014
52.119
100.276
142.722
194.434
271.447
391.46
631.258
1080.83
1859.28
2794.18
3229.16
3040.15
1792.76
1000.68
613.557
422.127
301.355
227.464
180.578
148.158
127.343
114.72
101.577
87.5483
77.2273
71.1102
67.5001
65.3443
64.7442
65.9876
64.5479
59.7266
55.6804
53.1888
51.9276
51.1665
51.6438
53.3669
55.4333
56.6492
55.2163
52.8681
46.5058
35.7112
27.1715
25.5066
27.8917
29.9912
30.5618
30.5675
30.5956
1.83709
0.960694
1.40664
2.04873
2.98554
4.30834
5.89068
7.98188
12.8634
26.5652
48.0746
78.3673
124.727
202.843
327.435
553.554
1021.41
2063.95
3975.85
3323.43
1723.63
911.88
525.59
337.036
233.337
170.507
129.647
101.671
82.1998
68.2778
57.9484
49.8913
43.5351
38.4496
34.4427
31.4306
29.1886
27.5088
26.0931
24.7511
23.4721
22.3258
21.408
20.8113
20.4464
20.2187
20.2625
20.5302
20.9261
21.3678
21.5224
20.9257
21.2485
20.5246
16.1778
14.0545
12.9737
12.0579
11.3422
10.8426
2.85288
1.07948
1.44496
2.08627
3.06693
4.46787
6.3007
8.95076
14.029
27.7755
55.0022
102.916
195.431
383.201
672.438
1121.31
2104.42
4743.49
3307.41
1738.81
992.322
603.61
393.156
272.728
198.5
150.442
117.729
94.5464
77.7338
65.2308
55.6301
48.0499
42.0446
37.2989
33.4868
30.4297
28.0034
26.0631
24.4595
23.0883
21.9427
21.0108
20.2842
19.7726
19.4726
19.367
19.4572
19.7342
20.1238
20.6232
21.2553
22.4882
22.8175
20.6693
17.0987
15.2345
13.9689
12.8631
11.9333
11.1993
3.56179
1.35309
1.69994
2.42725
3.59189
5.28585
7.58393
11.0387
17.2393
32.5549
68.5607
144.549
329.301
817.81
1627.35
2598.95
4842.75
3186.99
1695.52
956.591
586.047
387.186
273.429
203.369
156.867
124.545
101.191
83.8404
70.7082
60.5143
52.4113
45.8814
40.6429
36.4346
32.9818
30.1338
27.7958
25.8729
24.2753
22.9492
21.8861
21.0555
20.4287
19.9967
19.7475
19.6696
19.7628
19.9949
20.2699
20.6565
21.7303
23.6674
22.8191
20.6242
18.0819
16.6253
15.6284
14.678
13.7641
12.9518
4.0565
1.68759
2.04939
2.8777
4.26839
6.39433
9.37009
14.0144
22.2484
40.726
86.8366
200.398
531.019
1714.98
4391.62
6619.84
3690.71
1710.11
902.059
530.313
343.232
241.023
180.807
142.346
115.772
96.3751
81.6316
70.1162
60.9609
53.5192
47.3658
42.2663
38.0839
34.6494
31.7792
29.3632
27.3378
25.6516
24.2517
23.1047
22.195
21.4898
20.9641
20.6064
20.3958
20.3173
20.3839
20.5672
20.7532
20.9789
21.7678
23.8111
23.4785
22.198
20.0494
18.8037
17.9745
17.1606
16.2926
15.4464
4.97724
2.05492
2.45123
3.38264
5.0054
7.63612
11.5231
17.5982
28.7647
52.4952
110.054
269.393
772.98
2899.14
9421.53
4837.92
1950.76
905.486
487.12
298.02
202.592
149.725
117.989
97.3641
82.8913
72.0578
63.5253
56.5648
50.764
45.8387
41.6144
38.0191
35.0062
32.4876
30.3608
28.5544
27.0263
25.754
24.702
23.8362
23.1383
22.5863
22.1727
21.897
21.7295
21.6436
21.6677
21.8174
21.9823
22.1153
22.5354
23.6618
24.5472
23.2177
22.2785
21.7345
21.2108
20.5305
19.6804
18.7846
6.26236
2.44839
2.88608
3.9316
5.77565
8.88244
13.7455
21.1777
35.1561
65.5431
139.237
352.74
1047.44
3591.08
4609.38
2024.41
917.866
463.439
266.765
173.218
124.27
96.4421
79.4395
68.2725
60.3907
54.4247
49.6427
45.6549
42.2454
39.292
36.7177
34.5044
32.6338
31.0703
29.7708
28.6848
27.7646
27.0035
26.3621
25.7936
25.2922
24.8635
24.5494
24.3654
24.2367
24.1255
24.0845
24.2114
24.3165
24.4245
24.7629
25.3596
25.8356
25.9392
25.9987
26.0131
25.7631
25.1447
24.229
23.2281
7.52931
2.88377
3.35554
4.52273
6.59288
10.1378
15.8436
24.9135
41.5758
78.8924
178.157
457.682
1312.41
4928.92
2076.85
915.616
450.747
249.695
155.688
108.064
82.1184
67.0173
57.5991
51.3149
46.8349
43.5074
40.928
38.8557
37.1403
35.6914
34.4579
33.4144
32.5256
31.8135
31.3184
30.9784
30.6791
30.4584
30.1886
29.8017
29.3725
28.9252
28.6244
28.4179
28.2383
28.0289
27.8831
27.7903
27.898
28.1057
28.6662
29.4249
30.2526
31.0337
31.7838
32.2514
32.1546
31.4321
30.3014
29.1123
8.98687
3.36911
3.8717
5.16753
7.47938
11.5053
18.3339
29.8867
51.5369
100.923
233.584
608.908
1710.35
2142.04
976.284
470.38
251.113
150.195
100.453
74.4765
60.1805
51.7759
46.2564
42.4835
39.8318
38.1253
37.1048
36.5434
36.2591
36.1077
36.0185
35.9781
36.0185
36.1308
36.3476
36.5673
36.3795
35.7837
34.9179
34.1115
33.4355
32.7521
32.1365
31.7227
31.411
31.2597
31.3802
31.7985
32.4578
33.1921
34.4274
35.7236
37.0751
38.6257
40.2762
41.178
40.9632
39.5041
37.7685
36.2741
10.2604
3.89139
4.44038
5.88885
8.4756
13.0806
21.327
36.3047
65.7504
133.566
314.73
836.753
2582.88
1211.53
553.482
280.712
158.871
100.897
72.1398
57.4749
49.6061
44.5325
40.6571
37.7518
35.7399
34.5111
33.9844
33.9735
34.3063
34.8317
35.465
36.2523
37.2198
38.1943
38.8565
38.872
38.1573
37.2982
36.4702
35.458
34.5567
33.7912
33.3725
33.3411
33.3451
33.5568
34.2235
35.4285
37.0189
38.7647
41.1146
44.0197
46.6178
48.9607
50.418
49.4034
46.9971
44.0524
41.358
39.4135
10.7373
4.43218
5.06315
6.70804
9.62738
14.9104
24.8237
44.0436
84.0244
178.877
436.215
1182.46
1741.47
759.861
356.521
187.184
110.575
74.4636
57.6251
49.7476
44.9289
40.8512
37.4321
34.7699
32.9426
31.8362
31.397
31.4913
31.9616
32.6733
33.536
34.5008
35.379
36.0155
36.5209
36.7246
36.4506
36.0704
35.6185
34.8432
34.0516
33.4815
33.399
33.7303
34.157
34.8268
36.005
37.7762
39.962
42.3558
45.1293
48.5329
51.807
53.4305
52.8879
50.2506
46.8756
43.7302
40.9391
38.8815
10.9803
4.97847
5.74103
7.63038
10.9648
17.0647
28.8903
53.0876
106.397
238.725
618.38
1726.08
1202.88
515.38
247.303
133.55
82.4886
59.9434
51.1683
46.5118
42.3568
38.3682
34.8472
32.0669
30.1791
29.0962
28.7094
28.8672
29.4002
30.1649
31.0491
31.9408
32.6333
33.0368
33.3399
33.5447
33.5469
33.5245
33.3948
32.9697
32.4852
32.2391
32.4593
33.0513
33.797
34.7897
36.2194
38.114
40.2744
42.4513
44.5622
46.7744
48.808
49.6915
48.9617
46.4317
43.3778
40.5618
38.1171
36.2968
11.8729
5.53399
6.47389
8.65967
12.504
19.595
33.6525
63.6056
133.178
314.263
842.041
2226.66
842.105
365.39
178.928
99.571
65.5142
52.7057
48.7141
45.048
40.4016
35.8276
31.9057
28.9033
26.9088
25.8287
25.5062
25.7496
26.3591
27.1643
28.0271
28.8173
29.3812
29.682
29.8704
30.0201
30.1365
30.294
30.3779
30.2623
30.1067
30.1638
30.5917
31.3151
32.1993
33.2837
34.6577
36.2825
37.9578
39.4546
40.6877
41.8199
42.8235
43.2535
42.5961
40.6754
38.3322
36.1136
34.2116
32.8053
13.4338
6.11628
7.26005
9.80023
14.2534
22.5311
39.2317
75.991
165.042
403.908
1189.95
1499.69
590.911
264.619
132.828
77.1636
55.771
50.5033
48.0941
43.2312
37.7021
32.5196
28.2498
25.0998
23.0726
22.0351
21.7907
22.1161
22.7889
23.6171
24.4485
25.1591
25.6494
25.9158
26.0701
26.2073
26.3828
26.6261
26.8408
26.9482
27.0499
27.3179
27.8449
28.5782
29.4337
30.4092
31.5159
32.6797
33.7406
34.5577
35.1356
35.6471
36.1383
36.3477
35.8537
34.5527
32.9291
31.3564
30.0211
29.0466
14.7893
6.72671
8.10244
11.071
16.2352
25.9127
45.7921
90.6654
202.744
511.889
1379.59
1006.22
424.029
195.556
100.908
62.6314
51.2775
50.8175
46.9751
40.5423
34.0375
28.3961
23.9738
20.8365
18.8915
17.9517
17.7879
18.1613
18.8455
19.6482
20.4214
21.0603
21.506
21.7733
21.9483
22.1207
22.3505
22.6465
22.9423
23.194
23.4605
23.84
24.3776
25.0366
25.761
26.5252
27.3026
28.023
28.593
28.9691
29.2197
29.4859
29.7864
29.9226
29.6188
28.8193
27.7921
26.7812
25.9299
25.3174
14.6468
7.34838
9.02935
12.5243
18.537
29.863
53.5119
107.858
245.827
631.309
1865.25
723.968
312.017
147.486
78.7165
53.8948
50.9654
50.8417
44.7453
36.8861
29.6351
23.7694
19.4083
16.4464
14.6849
13.8792
13.7779
14.1453
14.7716
15.4859
16.1627
16.7227
17.1345
17.4207
17.6462
17.8806
18.1679
18.5072
18.8578
19.1961
19.5507
19.9688
20.4666
21.0183
21.5853
22.1379
22.6442
23.061
23.3559
23.5456
23.7081
23.9257
24.1761
24.3103
24.1679
23.7368
23.1537
22.5694
22.0808
21.7364
14.5558
8.01451
10.1232
14.2691
21.3459
34.6236
62.6166
127.635
295.88
772.528
1252.37
529.832
235.865
113.478
63.5163
49.6286
52.3905
49.7438
41.4127
32.4465
24.8201
19.014
14.9162
12.26
10.7454
10.0806
10.0082
10.3133
10.8213
11.3978
11.9497
12.4243
12.8071
13.119
13.4039
13.7055
14.0478
14.4252
14.8137
15.1991
15.5914
16.0082
16.4522
16.906
17.345
17.7466
18.0902
18.3603
18.56
18.7239
18.9067
19.1393
19.3819
19.5353
19.5154
19.3248
19.0409
18.7498
18.5108
18.3525
16.4069
8.91576
11.5068
16.4861
24.9791
40.7074
73.7097
150.583
347.116
940.807
979.21
402.752
182.775
89.0202
53.5044
49.038
53.6426
47.1885
37.0908
27.5237
19.9337
14.4619
10.7937
8.52835
7.28627
6.74861
6.67151
6.87709
7.23639
7.65753
8.08066
8.47464
8.83262
9.16743
9.50227
9.85745
10.2407
10.6446
11.0536
11.4577
11.8576
12.2572
12.6547
13.0399
13.3993
13.7208
13.9964
14.2267
14.4263
14.623
14.8441
15.0917
15.3296
15.4993
15.561
15.5214
15.4238
15.3178
15.2393
15.2047
19.1497
10.4116
13.4548
19.5461
29.9747
49.0177
88.1286
178.487
414.034
1064.98
719.37
316.871
144.954
71.1292
47.478
51.5101
52.8363
43.4193
32.1531
22.4851
15.2845
10.365
7.24152
5.41139
4.44283
4.01543
3.918
4.01984
4.23868
4.52111
4.83375
5.15882
5.49076
5.83241
6.19027
6.56863
6.96556
7.3728
7.77965
8.17833
8.5659
8.94166
9.30334
9.646
9.96383
10.2524
10.511
10.7455
10.9685
11.1954
11.4354
11.6813
11.9078
12.0845
12.194
12.243
12.2565
12.2634
12.2865
12.3331
24.1946
12.9863
16.6305
24.0996
37.381
61.3056
108.981
214.876
490.03
1363.82
584.591
258.139
116.498
57.8456
44.6877
53.8986
50.5408
38.7812
26.9771
17.6476
11.1023
6.88462
4.37453
2.9976
2.29641
1.97499
1.86903
1.89551
2.01035
2.18853
2.41293
2.67357
2.96394
3.28031
3.62007
3.97947
4.35272
4.7321
5.1096
5.47904
5.83676
6.18081
6.5095
6.8208
7.11281
7.38468
7.63824
7.87832
8.11242
8.34696
8.58318
8.81366
9.02418
9.20012
9.33505
9.4344
9.5132
9.58948
9.67791
9.77805
33.8878
17.0953
21.8967
31.4318
49.0706
81.0278
143.01
274.309
593.655
1087.18
490.607
215.583
93.6051
48.0388
44.689
55.1438
46.7812
33.588
21.8675
13.2324
7.52983
4.10669
2.25868
1.334
0.886585
0.679317
0.599019
0.595973
0.649036
0.749042
0.891577
1.07339
1.29161
1.54112
1.81737
2.1143
2.42619
2.74595
3.06739
3.38514
3.69557
3.99635
4.28591
4.56314
4.82727
5.07851
5.31828
5.54941
5.7752
5.99772
6.21604
6.42548
6.619
6.79045
6.93806
7.06619
7.18437
7.30442
7.43541
7.56975
50.698
23.1348
30.0741
43.3427
68.2158
114.692
204.13
382.217
811.499
1029.59
430.164
179.698
74.0047
41.1744
47.3671
53.6922
42.1655
28.2604
17.0859
9.3866
4.64244
2.11161
0.908057
0.388768
0.18039
0.100265
0.0729106
0.0710551
0.0872891
0.122496
0.180822
0.26662
0.382857
0.529906
0.706424
0.907834
1.13042
1.36622
1.61094
1.85906
2.10714
2.3523
2.59262
2.82681
3.05408
3.2742
3.48777
3.69581
3.8994
4.09903
4.2938
4.48138
4.65887
4.82414
4.97731
5.12172
5.26369
5.41079
5.56773
5.72089
57.7182
31.1039
41.4763
61.4127
98.6537
171.659
320.089
613.537
1142.92
955.607
379.613
145.247
57.0862
37.0553
51.1109
50.9236
36.878
23.0578
12.8003
6.18647
2.55124
0.862626
0.221505
0.0420261
0.0066984
0.00134539
0.000592879
0.000623368
0.00118787
0.00304239
0.00831127
0.0211556
0.0474856
0.0932736
0.162726
0.257189
0.375504
0.514292
0.669727
0.836957
1.01277
1.19285
1.37537
1.55825
1.74026
1.92059
2.09885
2.27497
2.44907
2.62105
2.79048
2.95646
3.11813
3.2751
3.42819
3.57972
3.73367
3.89445
4.06297
4.22136
66.99
39.7925
56.1564
87.1005
144.291
261.196
516.419
1126.45
2285.14
902.727
315.929
110.317
43.2428
35.5843
53.3002
46.7771
31.4537
18.2338
9.11426
3.75178
1.18722
0.228478
0.0181667
0.00060328
7.8298e-05
5.45223e-05
4.97424e-05
4.7721e-05
4.77573e-05
5.22318e-05
7.33157e-05
0.000173529
0.000679587
0.00283956
0.00972957
0.0261426
0.0569169
0.105166
0.171659
0.255138
0.353253
0.463245
0.582646
0.709004
0.840675
0.975808
1.11342
1.25282
1.39352
1.53523
1.67776
1.82092
1.96471
2.10942
2.25592
2.40573
2.56088
2.72304
2.8899
3.04154
100.08
50.3643
74.2943
121.588
208.296
392.238
805.439
1651.84
2350.7
723.054
234.688
77.5335
33.1473
36.6282
53.365
41.6078
26.0684
13.8995
6.0841
2.05764
0.415885
0.0258831
0.000356586
6.22311e-05
5.30223e-05
4.97633e-05
4.71848e-05
4.52652e-05
4.39886e-05
4.33451e-05
4.3375e-05
4.41232e-05
4.60791e-05
5.24408e-05
8.05176e-05
0.000226718
0.000989744
0.00399023
0.0123501
0.0298386
0.0594524
0.102551
0.158905
0.227242
0.305822
0.392853
0.486759
0.586355
0.690773
0.799725
0.912795
1.0301
1.15194
1.27877
1.41128
1.55029
1.69635
1.84882
2.00261
2.13772
93.518
62.7068
94.6269
165.208
294.65
519.522
890.019
1738.42
1391.18
470.337
155.65
51.3868
27.0184
40.0179
50.5421
36.3658
21.0818
10.1522
3.83031
0.96332
0.0877235
0.000933445
6.45949e-05
5.41387e-05
5.09638e-05
4.83134e-05
4.60836e-05
4.43465e-05
4.31008e-05
4.23521e-05
4.20799e-05
4.22114e-05
4.26562e-05
4.33665e-05
4.43288e-05
4.563e-05
4.80471e-05
5.5781e-05
9.26626e-05
0.00029704
0.00133896
0.00513477
0.014884
0.0337963
0.0636387
0.104412
0.155077
0.214404
0.281414
0.355509
0.436484
0.524469
0.619751
0.723036
0.834406
0.954378
1.08236
1.21602
1.34811
1.45971
87.0618
70.9281
112.262
192.252
298.111
477.32
819.717
1394.2
766.949
282.188
96.3803
33.5431
24.4005
45.2509
46.2676
30.6051
16.4835
7.04172
2.2152
0.348284
0.00813948
8.70102e-05
5.51166e-05
5.2022e-05
4.94159e-05
4.71162e-05
4.5157e-05
4.35969e-05
4.24343e-05
4.16701e-05
4.12672e-05
4.11813e-05
4.13735e-05
4.17801e-05
4.23436e-05
4.30172e-05
4.37604e-05
4.45678e-05
4.55203e-05
4.70692e-05
5.15232e-05
7.19652e-05
0.000192368
0.00090182
0.00390969
0.0122083
0.0283098
0.0530943
0.0864229
0.12797
0.177612
0.2355
0.302
0.377603
0.462665
0.557251
0.660174
0.768327
0.872759
0.955403
102.157
77.1614
120.618
175.795
263.828
423.38
717.977
929.593
414.508
164.753
57.9901
22.8662
24.5772
47.6073
41.7734
25.3421
12.4665
4.661
1.12585
0.0818011
0.000405126
5.68565e-05
5.25962e-05
5.02415e-05
4.80696e-05
4.608e-05
4.43561e-05
4.29475e-05
4.18661e-05
4.11204e-05
4.06671e-05
4.04698e-05
4.05027e-05
4.07115e-05
4.10492e-05
4.14891e-05
4.20071e-05
4.2579e-05
4.31865e-05
4.38578e-05
4.47463e-05
4.63752e-05
5.08412e-05
6.76765e-05
0.00014646
0.00055345
0.00231908
0.00751741
0.0181549
0.0353476
0.0596728
0.0916047
0.131686
0.18046
0.238254
0.304872
0.3789
0.456422
0.528117
0.572283
131.444
75.8291
114
156.939
233.19
370.138
613.489
529.657
243.72
98.1123
34.7885
17.393
26.9538
48.2135
35.8214
20.3494
8.99924
2.87702
0.465716
0.00990054
7.66997e-05
5.30062e-05
5.08693e-05
4.87817e-05
4.68594e-05
4.51305e-05
4.36325e-05
4.23834e-05
4.13966e-05
4.06823e-05
4.02038e-05
3.99385e-05
3.98698e-05
3.995e-05
4.01413e-05
4.04233e-05
4.07764e-05
4.11806e-05
4.16265e-05
4.21302e-05
4.27224e-05
4.34956e-05
4.48183e-05
4.79338e-05
5.73676e-05
9.13089e-05
0.000227563
0.00078053
0.00265725
0.00733978
0.0162353
0.0303901
0.0506266
0.0776078
0.11167
0.152454
0.198213
0.244534
0.281344
0.284133
108.592
84.7245
102.906
143.403
217.531
346.951
507.641
329.513
149.382
58.8262
21.3122
15.4563
31.0324
44.6313
30.3893
15.9054
6.20258
1.5986
0.137319
0.000641448
5.46984e-05
5.10401e-05
4.9219e-05
4.74032e-05
4.57468e-05
4.42361e-05
4.29442e-05
4.1861e-05
4.09847e-05
4.03204e-05
3.98347e-05
3.9521e-05
3.93778e-05
3.93661e-05
3.94583e-05
3.96397e-05
3.98867e-05
4.0177e-05
4.05063e-05
4.08874e-05
4.13299e-05
4.18726e-05
4.26213e-05
4.38299e-05
4.63426e-05
5.30216e-05
7.37729e-05
0.000144556
0.000394253
0.00121655
0.0034426
0.00816656
0.016379
0.028791
0.0456949
0.0666151
0.0896866
0.110524
0.120089
0.10051
99.6539
89.0357
99.0228
137.374
220.061
357.26
398.618
210.352
93.4866
34.9478
14.0756
15.8955
36.6993
39.594
24.8688
11.966
4.03568
0.753399
0.0234486
9.24825e-05
5.13476e-05
4.96223e-05
4.78808e-05
4.62299e-05
4.47615e-05
4.34312e-05
4.22957e-05
4.13359e-05
4.05598e-05
3.99615e-05
3.94965e-05
3.91652e-05
3.89775e-05
3.89008e-05
3.89187e-05
3.90273e-05
3.92053e-05
3.94281e-05
3.96841e-05
3.99787e-05
4.03221e-05
4.07384e-05
4.12727e-05
4.20039e-05
4.31272e-05
4.52069e-05
4.99839e-05
6.28442e-05
0.000100913
0.00021864
0.000577403
0.00156547
0.00383049
0.00805544
0.0145891
0.0230806
0.0320494
0.0383726
0.0369094
0.0216677
105.7
81.0869
95.0004
136.87
235.085
360.848
292.954
140.658
57.9449
20.4678
10.8399
18.0326
40.1566
34.4408
19.7471
8.53426
2.40011
0.27054
0.00195836
5.51221e-05
4.96541e-05
4.82616e-05
4.66644e-05
4.52008e-05
4.38926e-05
4.27151e-05
4.17032e-05
4.0834e-05
4.01312e-05
3.95863e-05
3.91511e-05
3.88315e-05
3.86369e-05
3.85287e-05
3.84945e-05
3.85444e-05
3.8666e-05
3.88368e-05
3.90428e-05
3.92862e-05
3.95702e-05
3.99021e-05
4.03132e-05
4.0849e-05
4.15729e-05
4.26299e-05
4.43761e-05
4.77473e-05
5.52949e-05
7.39802e-05
0.000122608
0.000250087
0.000572368
0.00130538
0.0026912
0.00472456
0.00679728
0.00757226
0.00561818
0.00170409
132.508
72.6151
91.5743
145.759
266.816
364.445
205.618
91.6129
34.0698
12.2383
10.146
21.7029
40.0913
28.4518
15.0905
5.6939
1.2437
0.0615337
0.000158366
5.02423e-05
4.84391e-05
4.70639e-05
4.55396e-05
4.42285e-05
4.30589e-05
4.20263e-05
4.11442e-05
4.03751e-05
3.97475e-05
3.92496e-05
3.88391e-05
3.85348e-05
3.83457e-05
3.82276e-05
3.81669e-05
3.81782e-05
3.82517e-05
3.83705e-05
3.85276e-05
3.87284e-05
3.8971e-05
3.92507e-05
3.95868e-05
4.00074e-05
4.05464e-05
4.12692e-05
4.22839e-05
4.37936e-05
4.62475e-05
5.0666e-05
5.92574e-05
7.66246e-05
0.000111273
0.000176451
0.000285899
0.000431101
0.000538243
0.000482397
0.000269418
0.000114203
126.314
77.339
97.181
173.683
326.261
304.228
139.95
55.3769
18.5947
8.26279
11.1653
26.7252
35.7076
22.9062
11.016
3.5112
0.513243
0.00683937
6.01195e-05
4.8339e-05
4.71092e-05
4.58149e-05
4.4436e-05
4.32958e-05
4.22675e-05
4.13707e-05
4.06069e-05
3.99388e-05
3.93991e-05
3.89643e-05
3.85898e-05
3.83021e-05
3.81149e-05
3.79885e-05
3.79123e-05
3.7902e-05
3.7945e-05
3.80243e-05
3.81364e-05
3.82901e-05
3.84871e-05
3.87225e-05
3.90067e-05
3.93538e-05
3.97817e-05
4.03277e-05
4.105e-05
4.20272e-05
4.33833e-05
4.53373e-05
4.82798e-05
5.278e-05
5.96072e-05
6.9466e-05
8.19782e-05
9.42785e-05
0.000100868
9.71772e-05
8.42803e-05
6.72287e-05
126.811
82.2258
116.671
220.95
383.109
209.259
85.3403
29.2032
9.85654
7.04021
13.5497
32.8406
30.09
17.5274
7.54375
1.91587
0.143472
0.000399201
4.98927e-05
4.71358e-05
4.59825e-05
4.46893e-05
4.34196e-05
4.24201e-05
4.15276e-05
4.0763e-05
4.01097e-05
3.95317e-05
3.90669e-05
3.86928e-05
3.83654e-05
3.81079e-05
3.79312e-05
3.78006e-05
3.77121e-05
3.76854e-05
3.77094e-05
3.7767e-05
3.78517e-05
3.79695e-05
3.81235e-05
3.83115e-05
3.85438e-05
3.88318e-05
3.91827e-05
3.96159e-05
4.01643e-05
4.08721e-05
4.18041e-05
4.30529e-05
4.47398e-05
4.70464e-05
5.01856e-05
5.42848e-05
5.92572e-05
6.45774e-05
6.90596e-05
7.09524e-05
6.82992e-05
6.02194e-05
95.4613
78.7054
140.814
285.176
294.497
121.859
42.6921
13.3613
6.03123
7.5777
17.3567
33.6219
24.6289
12.9086
4.70619
0.85977
0.0206017
7.41137e-05
4.76761e-05
4.60154e-05
4.49279e-05
4.36995e-05
4.25512e-05
4.16548e-05
4.08631e-05
4.0201e-05
3.96441e-05
3.91511e-05
3.87492e-05
3.84213e-05
3.81342e-05
3.7909e-05
3.77537e-05
3.7635e-05
3.75476e-05
3.75109e-05
3.75192e-05
3.75596e-05
3.76268e-05
3.77246e-05
3.78524e-05
3.80046e-05
3.81899e-05
3.842e-05
3.87019e-05
3.90487e-05
3.94782e-05
4.00131e-05
4.06889e-05
4.156e-05
4.27014e-05
4.41906e-05
4.61103e-05
4.85495e-05
5.15231e-05
5.48126e-05
5.77616e-05
5.92136e-05
5.79915e-05
5.38063e-05
74.5205
75.1199
170.595
340.566
157.77
55.6558
17.3097
6.24963
5.14715
9.40716
22.7163
29.8345
19.1687
8.95266
2.58438
0.272664
0.00119975
5.05245e-05
4.63353e-05
4.49976e-05
4.3977e-05
4.28437e-05
4.18252e-05
4.1019e-05
4.03115e-05
3.97171e-05
3.92203e-05
3.87895e-05
3.84381e-05
3.81503e-05
3.78994e-05
3.77009e-05
3.75625e-05
3.74595e-05
3.73844e-05
3.73499e-05
3.73519e-05
3.73798e-05
3.7431e-05
3.75115e-05
3.76211e-05
3.77527e-05
3.79082e-05
3.8094e-05
3.83166e-05
3.85868e-05
3.89185e-05
3.93257e-05
3.98275e-05
4.04522e-05
4.12366e-05
4.22311e-05
4.34967e-05
4.5075e-05
4.69669e-05
4.90813e-05
5.11125e-05
5.24158e-05
5.21872e-05
5.0218e-05
66.297
116.666
428.838
185.933
65.2025
20.4125
6.7422
4.05233
5.90417
12.4792
28.3225
24.4848
14.2184
5.69068
1.17357
0.0461419
0.000102528
4.68155e-05
4.49915e-05
4.39252e-05
4.30139e-05
4.20387e-05
4.11809e-05
4.04831e-05
3.9873e-05
3.93523e-05
3.89104e-05
3.8527e-05
3.82096e-05
3.79497e-05
3.77286e-05
3.7551e-05
3.74199e-05
3.73203e-05
3.7247e-05
3.72097e-05
3.72062e-05
3.72268e-05
3.72667e-05
3.73301e-05
3.74186e-05
3.75288e-05
3.76609e-05
3.78172e-05
3.79995e-05
3.82117e-05
3.8463e-05
3.87642e-05
3.91296e-05
3.95759e-05
4.01239e-05
4.07957e-05
4.16144e-05
4.2605e-05
4.37785e-05
4.51014e-05
4.64408e-05
4.74965e-05
4.78828e-05
4.74872e-05
81.0772
347.673
211.002
70.2588
21.3546
6.77791
3.3923
4.09794
7.85931
17.2278
26.6987
19.9448
10.0363
3.08949
0.376078
0.00298028
5.19899e-05
4.51386e-05
4.38383e-05
4.29101e-05
4.20504e-05
4.12035e-05
4.04846e-05
3.99042e-05
3.94074e-05
3.89815e-05
3.86196e-05
3.83066e-05
3.80426e-05
3.78227e-05
3.76361e-05
3.7484e-05
3.7367e-05
3.72756e-05
3.72049e-05
3.71611e-05
3.71453e-05
3.71523e-05
3.71784e-05
3.7225e-05
3.72908e-05
3.73736e-05
3.74744e-05
3.75958e-05
3.77397e-05
3.79061e-05
3.80969e-05
3.83164e-05
3.85733e-05
3.88794e-05
3.92464e-05
3.96866e-05
4.02139e-05
4.08378e-05
4.15592e-05
4.23626e-05
4.32019e-05
4.39814e-05
4.46454e-05
4.5346e-05
36.9618
151.223
46.6121
14.4223
5.0488
2.68646
2.96741
5.43423
11.1367
23.2956
24.3458
15.2356
6.2816
1.33159
0.0690054
0.000217519
4.65037e-05
4.3959e-05
4.28541e-05
4.1996e-05
4.12181e-05
4.04804e-05
3.98402e-05
3.93208e-05
3.88954e-05
3.85402e-05
3.82422e-05
3.79901e-05
3.77789e-05
3.76048e-05
3.74615e-05
3.7345e-05
3.72539e-05
3.71851e-05
3.71353e-05
3.71054e-05
3.70947e-05
3.71005e-05
3.7121e-05
3.71577e-05
3.72103e-05
3.72765e-05
3.73554e-05
3.74468e-05
3.75526e-05
3.76738e-05
3.78117e-05
3.79672e-05
3.81425e-05
3.8342e-05
3.85727e-05
3.8843e-05
3.91598e-05
3.95278e-05
3.99478e-05
4.04166e-05
4.09285e-05
4.14893e-05
4.22512e-05
4.36625e-05
4.93821e-05
6.43528e-05
8.38113e-05
0.000111584
0.000153251
0.000217922
0.00031934
0.000478246
0.000726127
0.00111027
0.00170216
0.00261462
0.00404195
0.00636288
0.0104202
0.0183181
0.0357829
0.0795329
0.207335
0.893188
4.85418e-05
6.13488e-05
7.7895e-05
0.000101733
0.000138096
0.000195838
0.000288977
0.000439864
0.000684367
0.00107937
0.00171516
0.00273934
0.004411
0.00724028
0.0123839
0.0228625
0.0474952
0.113326
0.305792
1.19418
4.772e-05
5.83899e-05
7.20897e-05
9.19865e-05
0.000122737
0.000172448
0.000254464
0.000391106
0.000620042
0.00100412
0.00164783
0.00272789
0.00455871
0.0077549
0.0136845
0.0258451
0.0540781
0.125782
0.312142
0.778971
4.69455e-05
5.55895e-05
6.66324e-05
8.28016e-05
0.000108054
0.000149404
0.000218719
0.000336615
0.000539385
0.000890274
0.0014989
0.00255645
0.00440632
0.00770708
0.0138582
0.0262087
0.0534284
0.117156
0.26173
0.552124
4.624e-05
5.30339e-05
6.16996e-05
7.45189e-05
9.47228e-05
0.000128077
0.000184489
0.000281612
0.000451501
0.000751924
0.0012864
0.00224029
0.00394932
0.00704387
0.0127904
0.0239698
0.0470807
0.096612
0.198297
0.388072
4.56184e-05
5.07784e-05
5.73939e-05
6.73327e-05
8.31514e-05
0.000109391
0.000153871
0.000230698
0.000365945
0.000607576
0.00104343
0.00183372
0.00327064
0.00589371
0.0107321
0.0198534
0.037581
0.0725848
0.139274
0.254915
4.50888e-05
4.88503e-05
5.37526e-05
6.13035e-05
7.34867e-05
9.37671e-05
0.000128045
0.000186956
0.000290228
0.000474355
0.000806614
0.00141043
0.00251096
0.00451799
0.0081814
0.0148955
0.0272848
0.0501067
0.090761
0.157437
4.4654e-05
4.72535e-05
5.07629e-05
5.63919e-05
6.56722e-05
8.12022e-05
0.000107302
0.000151658
0.000228379
0.000363309
0.000603618
0.00103484
0.00181074
0.00320521
0.00570108
0.0101413
0.0179768
0.0315963
0.0544617
0.090353
4.4313e-05
4.59756e-05
4.8375e-05
5.24883e-05
5.9518e-05
7.1407e-05
9.1281e-05
0.000124573
0.00018103
0.00027809
0.000446782
0.000741737
0.00125781
0.00215708
0.00371085
0.00636185
0.0108113
0.0181162
0.029705
0.0470975
4.40629e-05
4.49903e-05
4.65111e-05
4.94439e-05
5.47697e-05
6.39543e-05
7.92807e-05
0.0001046
0.000146582
0.000216753
0.000334915
0.000534585
0.000871284
0.00143407
0.00235931
0.00384483
0.00616673
0.00969988
0.0149163
0.0222805
4.39015e-05
4.42511e-05
4.50633e-05
4.71051e-05
5.11969e-05
5.84418e-05
7.05652e-05
9.03851e-05
0.00012255
0.000174734
0.000259552
0.000397577
0.000621995
0.000983912
0.0015525
0.00240554
0.00362024
0.00528498
0.00753307
0.0105155
4.40336e-05
4.37529e-05
4.41379e-05
4.57752e-05
4.92979e-05
5.55465e-05
6.58962e-05
8.24522e-05
0.000108436
0.000148892
0.000211745
0.000309651
0.000464539
0.000720556
0.00114613
0.00185469
0.00310686
0.00550004
0.010578
0.0217138
0.00049923
8.89339e-05
0.000141619
0.000197244
0.000251062
0.000305517
0.000371565
0.000468002
0.000627619
0.000984532
0.00182494
0.00364838
0.00702948
0.0130588
0.0239387
0.042383
0.0713704
0.117811
0.177738
0.26232
0.0305103
0.0133168
0.0148832
0.0162747
0.0186317
0.022679
0.0291092
0.0386772
0.0526463
0.072816
0.101259
0.138289
0.148632
0.1723
0.237195
0.334566
0.494565
0.739834