/*--------------------------------*- C++ -*----------------------------------*\
| =========                 |                                                 |
| \\      /  F ield         | OpenFOAM: The Open Source CFD Toolbox           |
|  \\    /   O peration     | Version:  v1912                                 |
|   \\  /    A nd           | Website:  www.openfoam.com                      |
|    \\/     M anipulation  |                                                 |
\*---------------------------------------------------------------------------*/
FoamFile
{
    version     2.0;
    format      ascii;
    class       volScalarField;
    location    "44";
    object      k;
}
// * * * * * * * * * * * * * * * * * * * * * * * * * * * * * * * * * * * * * //

dimensions      [0 2 -2 0 0 0 0];


internalField   nonuniform List<scalar> 
20320
(
0.00413929
0.00425412
0.00433109
0.00440656
0.00447997
0.0045508
0.00461834
0.00468177
0.00474015
0.00479239
0.00483729
0.00487345
0.00489931
0.00491297
0.00491209
0.00489343
0.00485055
0.00476718
0.00459714
0.0041541
0.00415075
0.00414921
0.00419452
0.00429123
0.00445946
0.00471972
0.00509136
0.00559084
0.006232
0.00702665
0.0079852
0.00911661
0.0104285
0.0119211
0.0135853
0.0153836
0.0172116
0.0187654
0.0193323
0.0174829
0.0041774
0.00421755
0.00430402
0.00444355
0.00466169
0.00498997
0.0054679
0.00614461
0.00707834
0.00833207
0.00996497
0.0120214
0.0145199
0.017444
0.0207295
0.0242354
0.0276824
0.0304923
0.0313501
0.0274958
0.00421515
0.00432002
0.00447458
0.00468076
0.0049644
0.00535835
0.00590599
0.0066656
0.00771545
0.00915738
0.0111134
0.013709
0.0170402
0.0211305
0.0258896
0.031072
0.0361974
0.0403503
0.041585
0.0358963
0.00426145
0.004451
0.00469408
0.00498725
0.00535602
0.00583337
0.00646302
0.00730488
0.00844275
0.00999364
0.0121154
0.0150028
0.0188556
0.0238042
0.0298032
0.0365308
0.0432933
0.0488195
0.0505494
0.0434874
0.00431466
0.00460806
0.00496029
0.00536271
0.00583954
0.0064232
0.00715691
0.00810027
0.00933775
0.0109904
0.0132303
0.0162923
0.0204616
0.0260003
0.0329847
0.0410948
0.0494364
0.05633
0.0585766
0.0504623
0.00437276
0.00478601
0.00526551
0.00579782
0.00640515
0.00711844
0.00797949
0.00904665
0.0104036
0.0121721
0.014529
0.0177286
0.0221122
0.0280589
0.0358036
0.0451131
0.0549516
0.0632013
0.0659647
0.056979
0.00443344
0.00497863
0.00560024
0.00628091
0.00704024
0.00790699
0.00892047
0.0101366
0.0116375
0.013544
0.0160345
0.0193723
0.0239329
0.030186
0.0385261
0.0488653
0.0601036
0.069694
0.0729823
0.063218
0.00449403
0.00517825
0.00595214
0.00679599
0.00772676
0.00877063
0.00996352
0.0113578
0.0130328
0.0151075
0.0177599
0.0212573
0.0259967
0.0325148
0.04135
0.0525886
0.0651362
0.076049
0.079868
0.0693523
0.0045516
0.0053758
0.00630595
0.0073225
0.00844056
0.00968407
0.0110851
0.0126914
0.0145783
0.0168616
0.0197174
0.0234144
0.0283632
0.0351507
0.0444388
0.0564962
0.0702858
0.0825044
0.0868466
0.0755877
0.00460307
0.00556116
0.00664395
0.00783568
0.00915152
0.0106146
0.0122536
0.014111
0.016257
0.0188028
0.0219206
0.0258788
0.0310969
0.0382007
0.0479586
0.0608196
0.0758418
0.0893945
0.0942685
0.0821758
0.00464549
0.00572372
0.00694694
0.00830776
0.00982459
0.0115226
0.0134288
0.0155812
0.0180441
0.0209226
0.0243837
0.0286931
0.0342765
0.041792
0.0521018
0.0658304
0.0821551
0.0971302
0.102547
0.0894211
0.00467631
0.00585344
0.00719605
0.00871026
0.0104221
0.0123633
0.0145631
0.0170572
0.019905
0.0232055
0.0271193
0.0319078
0.0380016
0.0460882
0.057118
0.0718883
0.0897125
0.10632
0.112326
0.0977133
0.00469366
0.0059419
0.0073747
0.00901665
0.0109067
0.0130893
0.0156017
0.0184829
0.0217916
0.0256228
0.0301315
0.0355759
0.0423925
0.051301
0.0633432
0.0794953
0.0992186
0.11787
0.124575
0.107709
0.00469666
0.00598348
0.00747072
0.00920556
0.0112451
0.0136538
0.0164857
0.0197917
0.0236385
0.0281243
0.033405
0.0397411
0.0475833
0.057697
0.0712372
0.0893905
0.111792
0.133324
0.141026
0.120593
0.00468551
0.00597615
0.00747825
0.00926385
0.0114127
0.0140162
0.0171559
0.0209077
0.0253602
0.0306303
0.0368895
0.0444173
0.0537007
0.0655875
0.0814086
0.102656
0.129228
0.155359
0.164826
0.138574
0.00466149
0.00592186
0.00739863
0.0091886
0.0113965
0.014147
0.0175592
0.0217501
0.0268509
0.0330215
0.0404777
0.0495522
0.0608163
0.07528
0.0945994
0.120834
0.154488
0.189108
0.202998
0.16745
0.00462679
0.00582619
0.00724034
0.00898799
0.0111986
0.0140325
0.0176555
0.0222413
0.0279887
0.0351343
0.0439822
0.0549767
0.0688586
0.0869505
0.111537
0.145871
0.192161
0.244197
0.271112
0.221739
0.00458413
0.00569763
0.00701778
0.00868026
0.0108357
0.0136789
0.0174258
0.0223194
0.0286496
0.0367685
0.0471249
0.0603559
0.0774985
0.100419
0.132545
0.179573
0.248311
0.337989
0.408202
0.350426
0.00453648
0.00554621
0.00674908
0.00829118
0.0103382
0.013113
0.016879
0.0219521
0.0287295
0.0377121
0.0495506
0.0651655
0.0860349
0.114844
0.156816
0.221967
0.327243
0.492347
0.695439
0.753372
0.615648
0.855954
1.16021
1.50609
1.87292
2.30999
2.57782
2.68849
3.54992
6.58753
10.1852
12.8856
15.843
19.8026
25.2849
34.7543
49.7126
71.3936
93.8649
103.136
99.1416
69.898
47.4392
34.1845
26.6245
21.2853
17.6248
15.1015
13.2244
11.9349
11.1215
10.2814
9.31547
8.55782
8.08875
7.80641
7.63454
7.57897
7.67502
7.58622
7.21158
6.87789
6.66419
6.55442
6.48851
6.51907
6.66021
6.8315
6.93867
6.83687
6.64091
6.13459
5.16964
4.28951
4.07519
4.31569
4.54438
4.61099
4.61299
4.6145
1.02221
2.41646
3.23463
4.1389
5.19275
6.39764
7.49511
8.48211
10.6407
17.5124
26.8595
36.6617
48.5988
65.1248
86.9403
119.334
172.55
260.957
381.49
326.455
206.974
135.822
95.6372
72.3176
57.5921
47.3886
40.0932
34.6335
30.4799
27.5169
25.2123
23.0702
21.0229
19.4877
18.4725
17.7612
17.2671
16.9167
16.5973
16.1302
15.5562
15.0194
14.5538
14.1551
13.8915
13.8409
13.8825
13.9391
13.8986
13.554
12.686
10.7753
9.0612
8.99435
9.03778
9.60141
10.0802
10.2309
10.2611
10.2923
1.37489
3.17368
4.21427
5.36769
6.75051
8.3611
10.0292
11.8477
14.8266
22.3633
34.5378
49.8425
71.5667
105.17
147.204
199.936
289.626
464.574
366.028
243.006
169.963
124.464
95.7185
76.7877
63.6088
54.0797
46.9559
41.4534
37.1574
33.8258
31.1158
28.7241
26.6036
24.9216
23.6566
22.7091
22.0169
21.4832
20.9989
20.4683
19.9137
19.3934
18.9291
18.5441
18.2839
18.1624
18.1255
18.0906
17.8803
17.3146
16.2936
14.8785
12.9906
12.0616
12.2019
13.1551
13.9345
14.2661
14.3636
14.3814
1.59897
3.85958
5.0761
6.43035
8.10003
10.0915
12.2924
14.9041
18.8011
26.8984
41.563
63.1185
99.4501
167.133
253.551
335.756
481.648
371.895
250.306
175.724
130.569
102.052
83.3098
70.2714
60.6547
53.3264
47.5882
43.0063
39.3028
36.2826
33.7458
31.5319
29.6191
28.0633
26.8394
25.8958
25.18
24.6146
24.114
23.6188
23.1364
22.686
22.2822
21.9519
21.7144
21.5699
21.4979
21.4092
21.0956
20.4089
19.5551
18.7236
16.6158
15.8015
16.1141
17.1148
17.9975
18.4355
18.5487
18.5082
1.74853
4.53415
5.92268
7.44114
9.3645
11.7661
14.5405
18.0225
23.0513
32.1501
49.1241
77.8444
133.42
261.842
464.892
589.336
406.654
253.259
171.938
125.653
97.9463
80.4488
68.7795
60.4619
54.1432
49.151
45.0947
41.7376
38.928
36.5467
34.4913
32.6957
31.161
29.9073
28.9149
28.1489
27.567
27.1142
26.7262
26.3581
26.0043
25.6656
25.3553
25.101
24.9078
24.7653
24.6782
24.5852
24.2834
23.6277
22.881
22.706
21.5996
21.2326
21.2496
21.9731
22.7005
23.0755
23.1195
22.9825
2.00962
5.20106
6.76171
8.41933
10.5589
13.3704
16.803
21.1685
27.5705
38.335
57.6507
94.3592
170.313
367.268
739.418
484.416
274.187
172.428
120.341
91.6039
74.5946
63.8613
56.656
51.4767
47.5094
44.3253
41.6802
39.4327
37.5027
35.832
34.3767
33.1191
32.0699
31.2383
30.6105
30.1561
29.8336
29.6061
29.4224
29.2384
29.0429
28.834
28.6318
28.4699
28.3388
28.2129
28.1158
28.046
27.8444
27.352
26.7758
26.6113
26.7926
26.3294
26.6743
27.4262
28.0401
28.302
28.2281
27.9723
2.34932
5.85311
7.58834
9.3842
11.6987
14.8437
18.91
24.0214
31.6705
44.6039
67.3265
112.981
209.108
429.994
489.403
289.735
177.899
119.134
87.7335
70.0403
59.4593
52.7483
48.2247
44.9656
42.4715
40.4708
38.8133
37.4158
36.233
35.2376
34.4095
33.7416
33.2345
32.8935
32.7115
32.6536
32.665
32.7227
32.7775
32.7785
32.7202
32.6139
32.5113
32.4532
32.3873
32.2774
32.1659
32.1286
31.9956
31.7091
31.4462
31.4074
31.6245
32.0318
32.7603
33.5747
34.1206
34.2525
34.0273
33.6404
2.6647
6.51521
8.41525
10.3471
12.8186
16.2168
20.7393
26.6728
35.4
50.2911
78.8316
134.738
247.097
523.108
306.449
185.409
121.763
87.2843
68.05
56.928
50.2365
45.9995
43.1181
41.0278
39.4396
38.2361
37.3286
36.6547
36.1702
35.8412
35.6494
35.5782
35.6015
35.7371
36.0145
36.383
36.7426
37.1103
37.3825
37.4965
37.4958
37.3957
37.3331
37.2991
37.2404
37.1029
36.9636
36.8215
36.7877
36.7419
36.8983
37.2493
37.863
38.7094
39.7539
40.6763
41.16
41.114
40.6893
40.1631
3.00741
7.20558
9.26406
11.3294
13.9544
17.5982
22.6685
29.6846
40.1353
58.2219
93.3603
162.247
296.356
332.573
202.773
130.317
90.682
68.65
56.2154
49.1235
44.9812
42.388
40.5192
39.1505
38.1866
37.6525
37.4811
37.583
37.8717
38.2706
38.7403
39.2746
39.8816
40.5301
41.2337
41.9223
42.3105
42.4024
42.2717
42.1072
41.951
41.707
41.4492
41.3057
41.1908
41.1388
41.2444
41.536
41.9722
42.4009
43.1736
44.0394
45.0767
46.423
47.9813
49.0808
49.4098
48.8421
48.0212
47.3265
3.29668
7.90646
10.143
12.3596
15.1543
19.0893
24.8158
33.2142
46.1816
68.7087
112.187
198.333
382.29
241.321
149.143
99.6077
72.3127
57.2254
49.0846
44.8075
42.4859
40.8271
39.3667
38.1993
37.4347
37.0976
37.1936
37.6314
38.3119
39.1429
40.0722
41.1307
42.3232
43.5036
44.4596
44.9758
44.9722
44.8371
44.6968
44.3615
44.0329
43.729
43.6261
43.7875
43.9302
44.1781
44.7263
45.6396
46.7938
47.9887
49.5675
51.5417
53.4006
55.2294
56.6394
56.4851
55.3723
53.8105
52.3247
51.3077
3.40973
8.59958
11.0521
13.4591
16.4601
20.7341
27.2034
37.2139
53.3452
81.7859
136.75
245.573
309.432
184.88
116.991
80.3695
60.4361
50.0144
45.1265
43.0051
41.5922
40.0617
38.5928
37.4022
36.6569
36.3563
36.5081
37.0393
37.8453
38.8325
39.9376
41.1254
42.2536
43.1948
44.0241
44.626
44.8694
45.012
45.0881
44.8793
44.5998
44.4278
44.5855
45.0385
45.5236
46.1473
47.1175
48.4965
50.1315
51.8402
53.7513
56.08
58.4024
59.8018
59.9411
58.7124
56.8815
55.1014
53.4613
52.2835
3.47188
9.27486
11.99
14.6287
17.8907
22.5706
29.8546
41.634
61.4475
97.3367
168.561
309.485
247.778
147.73
95.2376
67.062
52.3962
45.7213
43.5951
42.4977
41.0444
39.2891
37.5652
36.1725
35.3153
35.0007
35.1883
35.7822
36.659
37.7098
38.8493
39.9924
40.9796
41.7358
42.4046
42.9905
43.4078
43.7857
44.0679
44.087
44.0132
44.0805
44.4849
45.1633
45.927
46.8415
48.0589
49.5992
51.2955
52.9443
54.4971
56.1268
57.7318
58.6875
58.6581
57.377
55.6195
53.9276
52.4063
51.2875
3.66702
9.93234
12.9538
15.8666
19.4485
24.6117
32.7984
46.4694
70.3749
115.015
204.726
361.471
200.565
120.969
79.2673
57.3756
47.0953
43.7101
43.3352
42.3606
40.3392
38.0104
35.8568
34.1839
33.1656
32.8073
33.0269
33.6879
34.6341
35.7285
36.8613
37.9295
38.81
39.472
40.0401
40.5742
41.0684
41.5778
42.013
42.2578
42.4324
42.7455
43.3391
44.1566
45.075
46.1201
47.3683
48.7901
50.221
51.477
52.5068
53.4821
54.4553
55.1234
55.0811
54.0837
52.6746
51.2639
50.0127
49.0964
3.99481
10.5862
13.9382
17.171
21.1298
26.8544
36.0509
51.7824
80.1473
134.254
250.792
289.089
163.377
100.338
66.9731
50.3134
44.0133
43.56
43.5775
41.6374
38.8393
35.8928
33.3008
31.3563
30.1915
29.7884
30.0293
30.7415
31.7382
32.8568
33.9699
34.9753
35.7908
36.4144
36.9436
37.4578
37.9951
38.5772
39.1214
39.5499
39.9425
40.4494
41.1594
42.0291
42.9784
44.0026
45.1161
46.2613
47.3038
48.1265
48.7441
49.3338
49.982
50.4945
50.5022
49.8358
48.8282
47.7801
46.8616
46.2015
4.2756
11.2378
14.9422
18.552
22.943
29.3053
39.6461
57.6664
90.8478
155.283
281.155
229.26
134.735
84.1162
57.3955
45.4176
42.8105
44.2982
43.2262
40.1097
36.4338
32.9067
29.9494
27.797
26.5312
26.0961
26.3403
27.0649
28.0661
29.1692
30.2418
31.1926
31.9708
32.5909
33.131
33.6692
34.254
34.8906
35.5158
36.0812
36.6345
37.2675
38.0271
38.8809
39.7743
40.6844
41.5924
42.4402
43.1448
43.6664
44.0739
44.5179
45.047
45.4941
45.5848
45.2122
44.5747
43.8876
43.2948
42.8822
4.2667
11.8697
15.9886
20.0441
24.939
32.0204
43.6395
64.1571
102.49
177.574
333.244
189.092
112.621
71.221
50.0236
42.4051
43.2833
44.5903
42.0056
37.7426
33.2536
29.2299
26.0011
23.7202
22.4031
21.9454
22.1645
22.8484
23.7922
24.8262
25.8279
26.7216
27.478
28.1186
28.7048
29.3009
29.9458
30.6363
31.3283
31.9917
32.6506
33.3522
34.1163
34.9182
35.7197
36.4935
37.2133
37.8402
38.3422
38.7344
39.0994
39.5356
40.0411
40.4717
40.6451
40.5113
40.1834
39.8093
39.4956
39.2928
4.2602
12.5013
17.1476
21.7229
27.2219
35.1132
48.1184
71.2669
115.054
201.887
270.56
158.104
95.3413
60.8666
44.5424
41.0479
44.3461
44.0611
39.9358
34.6335
29.4847
25.0951
21.7024
19.3719
18.0442
17.5626
17.7209
18.3072
19.1328
20.0482
20.9506
21.7823
22.5265
23.2033
23.8562
24.5284
25.2422
25.9891
26.739
27.4716
28.1949
28.9288
29.6775
30.4239
31.1421
31.8104
32.41
32.9258
33.3602
33.7501
34.1607
34.6376
35.1484
35.5826
35.8305
35.8729
35.7832
35.6572
35.5648
35.5296
4.62835
13.3084
18.5181
23.7064
29.9536
38.798
53.2814
79.1392
127.92
228.935
232.395
134.381
81.447
52.4993
40.7197
41.1828
45.1191
42.564
37.0709
30.9423
25.3351
20.7357
17.2929
14.9861
13.6788
13.1664
13.23
13.6736
14.3378
15.1039
15.8931
16.6634
17.4028
18.1226
18.8468
19.5959
20.3762
21.1761
21.9733
22.7529
23.514
24.2618
24.995
25.7026
26.3699
26.9842
27.5382
28.0332
28.4862
28.9318
29.4074
29.9234
30.4402
30.8831
31.1927
31.3659
31.4508
31.5088
31.5831
31.6773
5.14962
14.6524
20.3145
26.2311
33.3897
43.4048
59.5249
88.0714
142.6
249.989
195.307
115.938
70.0427
45.7602
38.3694
42.6394
44.6638
40.2203
33.5987
26.8802
21.0173
16.3655
12.9861
10.7746
9.51941
8.9763
8.92848
9.20962
9.69883
10.3108
10.9896
11.7033
12.4382
13.1932
13.973
14.78
15.6086
16.4449
17.272
18.0776
18.8572
19.6103
20.3344
21.024
21.6726
22.2758
22.834
23.3555
23.8577
24.363
24.8871
25.4239
25.9408
26.3931
26.7519
27.0211
27.2329
27.4262
27.6262
27.8205
6.03559
16.7929
23.0439
29.6786
37.9921
49.5048
67.6437
98.922
158.568
285.745
171.214
101.133
60.3746
40.4222
37.3484
43.8692
43.3068
37.1986
29.7267
22.6552
16.724
12.1709
8.97253
6.94184
5.79006
5.24305
5.09942
5.23244
5.56126
6.03289
6.60727
7.259
7.9696
8.727
9.52224
10.3456
11.1849
12.0261
12.855
13.6615
14.44
15.1883
15.9047
16.587
17.2338
17.8449
18.4244
18.9801
19.5243
20.0683
20.6157
21.1572
21.6711
22.1337
22.5328
22.8748
23.1813
23.4769
23.7743
24.0472
7.58081
20.0993
27.2604
34.7333
44.5128
58.1455
79.1652
114.127
178.192
252.932
152.407
88.8611
51.9544
36.3463
37.5254
44.4336
41.0348
33.6517
25.6365
18.4399
12.6172
8.31512
5.45542
3.7268
2.7598
2.27571
2.09948
2.13599
2.33558
2.66968
3.11863
3.66545
4.29484
4.98854
5.73145
6.50735
7.3027
8.10234
8.89437
9.66916
10.421
11.147
11.8454
12.5158
13.1581
13.7737
14.3663
14.9414
15.5058
16.064
16.6157
17.1535
17.6656
18.1409
18.5757
18.9763
19.357
19.7332
20.108
20.4423
9.95671
24.6767
33.2591
42.1744
54.0827
71.1144
97.0053
137.918
211.269
241.181
138.015
77.7246
44.4664
33.4534
38.8873
43.5439
38.156
29.8042
21.5048
14.3815
8.83561
5.02294
2.67897
1.38951
0.754377
0.47307
0.373005
0.376977
0.461297
0.626831
0.881577
1.23003
1.67005
2.19212
2.78387
3.42717
4.109
4.80825
5.51507
6.21746
6.90943
7.58622
8.2454
8.88579
9.50713
10.1101
10.6968
11.2702
11.8332
12.3878
12.9329
13.4647
13.9779
14.4685
14.9361
15.3859
15.8271
16.2675
16.7024
17.0813
10.9145
29.9149
40.8176
52.3623
67.7831
90.6227
126.162
180.686
258.317
226.693
125.262
66.8682
37.853
31.7007
40.658
41.9061
34.7358
25.8063
17.471
10.5972
5.61685
2.48624
0.845745
0.210444
0.0453342
0.014341
0.0092513
0.00957045
0.0140846
0.0281605
0.0650886
0.146815
0.29767
0.533963
0.859158
1.2653
1.73855
2.26184
2.82046
3.39937
3.99019
4.58237
5.17282
5.75745
6.33452
6.90307
7.46298
8.01491
8.55996
9.09875
9.63107
10.1556
10.6709
11.176
11.6719
12.1618
12.6501
13.1385
13.6149
14.0202
12.0843
34.9991
49.6057
65.3885
86.2809
118.168
169.989
259.805
381.618
216.153
110.504
55.8484
32.2411
31.0634
41.5502
39.4661
31.0536
21.825
13.651
7.28917
3.08925
0.835093
0.0973318
0.00886159
0.00537666
0.00501518
0.00480596
0.004667
0.00459854
0.00461985
0.00484586
0.00584903
0.0104407
0.0282235
0.0791336
0.187594
0.370127
0.629573
0.958249
1.34321
1.77114
2.23018
2.71146
3.20703
3.71224
4.22169
4.7331
5.24511
5.7569
6.26859
6.78033
7.29223
7.80448
8.31744
8.83188
9.34874
9.86792
10.3849
10.8809
11.2923
15.8762
40.946
59.5313
81.1052
109.612
154.239
228.156
339.134
404.894
190.507
92.2599
44.9688
27.8358
31.5049
41.423
36.3572
27.1968
17.956
10.1435
4.58987
1.31977
0.126642
0.00720702
0.00531786
0.00506037
0.00485842
0.0046867
0.00455714
0.00447089
0.00442805
0.00443
0.00447101
0.00454539
0.00468695
0.00507719
0.00667732
0.014125
0.0405192
0.106475
0.230663
0.421596
0.677113
0.988667
1.34544
1.73682
2.15357
2.58847
3.03671
3.49518
3.96336
4.44005
4.92603
5.42178
5.92771
6.44354
6.96788
7.49636
8.01851
8.50901
8.90387
15.2324
47.5851
70.0301
99.1504
137.7
188.135
252.773
366.939
306.448
151.101
72.63
35.1371
24.8109
33.0025
39.8234
33.066
23.3795
14.2989
7.15696
2.51545
0.351582
0.0102463
0.00534988
0.00512605
0.00492768
0.00475192
0.00460192
0.00448407
0.00439955
0.0043497
0.00433367
0.0043466
0.00438195
0.00443562
0.00450401
0.00458217
0.00467547
0.00483588
0.00536053
0.00785815
0.0193733
0.0570469
0.143699
0.295146
0.512772
0.786944
1.10476
1.45538
1.83155
2.2292
2.64659
3.08342
3.53944
4.01514
4.5074
5.01324
5.52409
6.02416
6.48165
6.83462
14.5716
51.3702
79.1297
111.197
143.365
186.645
253.333
336.644
221.671
113.545
54.4733
27.0855
23.2214
35.399
37.4571
29.3221
19.6086
10.9363
4.69004
1.0925
0.0445181
0.00544823
0.00516461
0.0049865
0.00481529
0.00466169
0.00452929
0.00442307
0.00434387
0.00429247
0.00426676
0.00426389
0.00428117
0.00431402
0.00435825
0.00441042
0.00446727
0.00452705
0.00458968
0.00466122
0.00478074
0.00516707
0.00710058
0.017201
0.0548492
0.145654
0.300677
0.513547
0.772909
1.06992
1.39939
1.75872
2.14637
2.5608
2.99879
3.45461
3.91637
4.36406
4.75791
5.03383
16.2683
53.2432
83.9128
108.386
137.629
180.342
242.967
272.116
157.17
82.5991
39.3003
21.1993
23.0197
36.3875
34.883
25.6629
16.0288
8.02607
2.74612
0.316519
0.00706578
0.00516205
0.00501267
0.00486003
0.00471601
0.00458247
0.00446557
0.00436943
0.00429556
0.00424511
0.00421546
0.00420427
0.00420981
0.0042282
0.0042561
0.00429153
0.00433274
0.00437792
0.00442548
0.00447597
0.00453416
0.00461254
0.00475771
0.00517884
0.00688103
0.0145989
0.0433417
0.115107
0.240483
0.416462
0.63666
0.896114
1.19148
1.51952
1.87536
2.2508
2.63137
2.99158
3.28446
3.41578
19.3255
54.2635
81.9935
103.416
130.958
170.398
224.29
195.553
113.481
58.7015
27.4763
17.5606
24.0772
36.6148
31.4134
21.9735
12.6499
5.54807
1.33891
0.0502635
0.00521931
0.00501965
0.00489137
0.00475397
0.00462577
0.00450923
0.00440737
0.00432199
0.00425448
0.00420601
0.0041743
0.00415795
0.00415589
0.00416474
0.00418183
0.00420565
0.0042348
0.00426785
0.00430412
0.00434453
0.0043904
0.00444457
0.00451851
0.00464515
0.00493571
0.00582814
0.00905553
0.0206817
0.0544918
0.12554
0.239809
0.396058
0.590946
0.820372
1.0782
1.35416
1.63064
1.87708
2.03632
1.9802
17.0883
58.5607
78.02
98.9092
126.496
163.856
198.031
143.704
81.1988
40.2613
19.0584
15.9793
26.1115
34.8302
28.0169
18.4183
9.60961
3.50539
0.477463
0.00802021
0.0050001
0.00489238
0.00477376
0.00465318
0.00454203
0.00443978
0.00435173
0.00427762
0.00421768
0.00417256
0.00414014
0.0041201
0.00411244
0.00411442
0.00412408
0.00414036
0.00416159
0.00418617
0.0042138
0.00424538
0.00428152
0.00432435
0.00437875
0.00445273
0.00456987
0.0048057
0.00541087
0.0072543
0.0131587
0.0303473
0.0701696
0.141571
0.246953
0.383737
0.545588
0.721098
0.890874
1.0218
1.05486
0.874212
16.2303
57.8074
76.1001
95.9579
125.506
162.199
165.338
104.292
56.6849
26.4481
13.9057
16.0389
28.9931
32.1783
24.3761
14.9985
6.95107
1.91972
0.102079
0.00516186
0.00489028
0.0047913
0.00467621
0.00456586
0.00446683
0.00437646
0.00429891
0.00423319
0.00418013
0.00413952
0.00410841
0.00408692
0.00407585
0.00407293
0.00407698
0.00408775
0.00410373
0.00412314
0.00414517
0.00417023
0.00419908
0.00423337
0.00427592
0.00433061
0.00440474
0.00451542
0.00471052
0.00512877
0.00619401
0.00916385
0.017321
0.0370293
0.0757298
0.137162
0.218522
0.309978
0.393684
0.441458
0.411609
0.251309
16.9683
54.2188
72.9024
93.8633
126.177
155.804
129.384
75.3122
37.8249
16.8625
11.4817
17.2902
30.7881
29.2965
20.723
11.7296
4.66451
0.824023
0.0140559
0.00488777
0.00478364
0.00469302
0.00458655
0.00448809
0.00439947
0.00431924
0.00425003
0.00419046
0.00414241
0.00410546
0.00407633
0.00405552
0.00404377
0.00403838
0.00403846
0.00404477
0.00405642
0.00407182
0.00408995
0.004111
0.00413523
0.00416319
0.0041971
0.00424001
0.00429537
0.0043697
0.00447554
0.00464013
0.00493075
0.00552181
0.00685828
0.00999556
0.0170925
0.0312845
0.0545507
0.0840689
0.109873
0.115734
0.0861784
0.0303195
19.8025
51.413
69.7463
93.8051
129.004
146.579
95.9582
51.7593
23.5511
11.1232
11.0052
19.492
30.8621
25.7446
17.1199
8.70802
2.78538
0.230994
0.00537717
0.00478676
0.0046965
0.00460505
0.00450275
0.00441403
0.00433447
0.00426393
0.00420351
0.00415081
0.00410794
0.00407421
0.00404673
0.00402688
0.00401538
0.00400912
0.00400711
0.00401044
0.00401841
0.00402982
0.00404417
0.00406185
0.00408277
0.00410662
0.00413481
0.00416937
0.00421263
0.00426872
0.00434344
0.00444531
0.00458957
0.00480606
0.00515234
0.00574146
0.00676136
0.00846299
0.0110228
0.0140626
0.0159997
0.0146298
0.0102946
0.00691019
19.2717
53.4322
69.9443
98.1791
134.876
120.6
67.6995
32.5785
13.7457
8.48129
11.8171
22.3641
28.6959
22.1518
13.6479
6.05597
1.36519
0.0348204
0.00482692
0.00467962
0.0046004
0.00451342
0.00442015
0.00434253
0.00427231
0.00421089
0.00415854
0.00411279
0.00407601
0.00404667
0.00402166
0.0040029
0.00399143
0.00398443
0.00398116
0.00398277
0.00398836
0.00399671
0.00400758
0.00402162
0.00403898
0.00405931
0.00408339
0.00411229
0.00414729
0.00419106
0.00424749
0.0043214
0.00441934
0.00455114
0.00473194
0.00497919
0.00531355
0.00575105
0.00626829
0.00676231
0.00704987
0.00695791
0.00643487
0.00555652
19.3994
53.6303
73.0162
104.626
134.811
85.3314
42.6607
17.9967
8.28173
7.92588
13.5318
25.703
25.6551
18.3752
10.3582
3.80549
0.469586
0.00646085
0.00471244
0.00459489
0.0045173
0.00442974
0.00434324
0.00427481
0.00421362
0.00416116
0.00411637
0.00407683
0.00404526
0.00402015
0.00399842
0.00398173
0.00397091
0.0039635
0.00395923
0.0039595
0.00396357
0.00397018
0.00397888
0.00399011
0.00400412
0.00402075
0.00404078
0.00406505
0.0040941
0.00412936
0.00417317
0.0042286
0.00429997
0.00439305
0.00451468
0.00467428
0.00488157
0.00513953
0.00543837
0.00574375
0.0059831
0.00604863
0.00581828
0.00523431
16.1126
48.6233
72.957
107.025
100.529
51.4275
22.2225
9.10371
6.21743
8.62969
16.0341
26.2763
22.379
14.7608
7.30911
2.02446
0.087097
0.00484909
0.00461798
0.00451282
0.00443878
0.00435501
0.00427627
0.00421459
0.00416012
0.0041146
0.00407642
0.00404276
0.00401555
0.00399365
0.0039747
0.00396025
0.00395087
0.00394422
0.00393991
0.00393934
0.00394213
0.00394735
0.00395462
0.00396421
0.00397611
0.00398993
0.00400629
0.00402607
0.00404979
0.0040784
0.00411321
0.00415584
0.00420879
0.00427581
0.00436185
0.0044717
0.00460988
0.0047803
0.00498033
0.00518995
0.00535896
0.00540533
0.00524864
0.0048717
13.7332
41.9586
68.4448
95.3436
54.6881
24.3366
9.80013
5.46065
6.14265
10.1543
19.2455
24.3904
18.7754
11.2987
4.65064
0.792647
0.0100914
0.00466275
0.00452746
0.00443692
0.00436696
0.00428919
0.00421897
0.00416328
0.00411446
0.00407352
0.00403944
0.00401006
0.00398634
0.0039672
0.00395076
0.00393812
0.00392987
0.00392424
0.00392071
0.00392019
0.00392239
0.00392656
0.00393252
0.0039407
0.0039511
0.00396322
0.0039772
0.00399351
0.00401263
0.00403536
0.00406272
0.00409572
0.00413571
0.00418471
0.00424523
0.00432065
0.00441482
0.00452972
0.00466355
0.00480632
0.00493056
0.00498296
0.00489904
0.00465995
12.7664
44.2784
93.92
52.5053
23.8379
9.78023
5.01284
4.79205
7.08374
12.3659
22.4094
21.3731
15.1338
8.0587
2.51702
0.173347
0.00486131
0.00453727
0.00443048
0.00435697
0.00429399
0.00422661
0.00416718
0.00411884
0.00407666
0.00404078
0.00401049
0.00398437
0.003963
0.00394577
0.00393138
0.00392017
0.00391236
0.00390688
0.00390338
0.00390254
0.00390423
0.00390774
0.00391275
0.00391954
0.00392825
0.00393862
0.0039507
0.00396464
0.00398059
0.00399884
0.00402005
0.00404502
0.00407477
0.00411048
0.00415364
0.00420572
0.00426825
0.00434262
0.00442881
0.00452243
0.00460939
0.00465891
0.00462831
0.00449528
14.6187
73.1642
50.0616
21.935
8.97073
4.57875
3.99287
5.36744
8.7118
15.4046
21.6775
18.3917
11.6439
5.07118
1.00591
0.017745
0.00453691
0.00443149
0.00434515
0.00428053
0.00422069
0.00416175
0.00411167
0.00407131
0.00403692
0.00400758
0.00398285
0.00396165
0.003944
0.00392956
0.00391757
0.00390812
0.00390124
0.00389628
0.00389287
0.00389147
0.00389216
0.00389458
0.00389846
0.00390389
0.0039108
0.00391903
0.00392866
0.00393987
0.00395282
0.00396749
0.00398404
0.00400278
0.00402433
0.00404956
0.00407927
0.00411433
0.00415567
0.00420385
0.00425862
0.00431792
0.00437547
0.00441609
0.00441728
0.00436431
8.68289
29.3638
13.1177
6.21489
3.89188
3.52036
4.33047
6.6289
11.0553
18.8907
20.2379
14.9636
8.11811
2.6244
0.237621
0.00515631
0.00443574
0.00434689
0.0042708
0.00421062
0.00415609
0.00410442
0.0040596
0.00402335
0.00399382
0.00396935
0.00394904
0.00393207
0.00391809
0.00390685
0.00389788
0.00389089
0.00388579
0.00388236
0.00388036
0.00387986
0.00388081
0.00388302
0.00388637
0.00389096
0.00389677
0.00390365
0.00391152
0.00392038
0.00393036
0.00394154
0.00395401
0.00396784
0.00398319
0.00400037
0.00401988
0.00404231
0.00406814
0.00409764
0.00413079
0.00416693
0.004204
0.0042362
0.00425588
0.00426014
0.00448668
0.00538227
0.00645367
0.00785034
0.00974518
0.0123794
0.0160533
0.0211489
0.028171
0.037785
0.0508831
0.0687385
0.0933825
0.128513
0.181603
0.268514
0.422034
0.702371
1.19706
2.13894
0.00443577
0.00521351
0.00614624
0.00738119
0.00909034
0.0115212
0.0149956
0.0199437
0.0269611
0.0368678
0.0508022
0.0704129
0.09831
0.13918
0.202545
0.309377
0.505853
0.879979
1.54269
2.7941
0.00438541
0.00504362
0.00583546
0.00690026
0.00840129
0.0105795
0.0137593
0.0183926
0.0251301
0.0349051
0.0490579
0.069561
0.099505
0.144266
0.214391
0.332461
0.546142
0.93714
1.58727
2.37341
0.00433741
0.0048793
0.00553419
0.0064295
0.0077139
0.00961058
0.0124277
0.0166073
0.0228071
0.0320009
0.0456308
0.0658548
0.0960189
0.141701
0.213171
0.33091
0.535019
0.888579
1.43728
2.09391
0.00429322
0.00472615
0.00525343
0.0059881
0.00706053
0.00866842
0.0110885
0.0147258
0.0201952
0.0284272
0.0408313
0.0595506
0.0878876
0.131132
0.198334
0.305997
0.483761
0.774956
1.21026
1.76473
0.00425393
0.00458829
0.00500112
0.00559013
0.00646624
0.00779771
0.00982121
0.0128864
0.0175284
0.0245643
0.0352449
0.0514904
0.0762544
0.114134
0.172498
0.263583
0.407399
0.631647
0.959233
1.38253
0.00422017
0.00446834
0.00478194
0.00524391
0.00594662
0.00702887
0.00868492
0.0112019
0.0150185
0.0208006
0.0295615
0.0428517
0.0630424
0.0937535
0.140519
0.211824
0.320359
0.482852
0.714457
1.01552
0.00419226
0.00436746
0.00459766
0.00495245
0.00550811
0.00637689
0.00771346
0.00974489
0.0128146
0.0174349
0.0243686
0.0347545
0.0502952
0.0735286
0.108196
0.15971
0.235596
0.345278
0.497698
0.695757
0.00417026
0.00428567
0.00444746
0.00471406
0.00514928
0.00584309
0.00691654
0.00854507
0.0109895
0.0146302
0.0200157
0.0279301
0.0394892
0.0562731
0.0804885
0.115137
0.164136
0.232186
0.323852
0.441427
0.00415403
0.00422194
0.00432821
0.00452358
0.00486315
0.00541901
0.00628602
0.00759895
0.00955289
0.0124254
0.0166048
0.0226236
0.0311953
0.0432465
0.0599211
0.0825564
0.112686
0.152066
0.202473
0.264869
0.00414352
0.00417369
0.00423428
0.00437422
0.00464175
0.00509348
0.00580562
0.00688368
0.0084736
0.0107757
0.0140625
0.0187008
0.0251797
0.0341065
0.0460778
0.0614703
0.0803987
0.102999
0.12964
0.159666
0.00414355
0.00413832
0.00416374
0.00426422
0.00447626
0.00484225
0.0054224
0.00629309
0.00755019
0.00931754
0.011753
0.0150628
0.0195604
0.0257054
0.0337148
0.0430949
0.0533308
0.0656243
0.0847786
0.120296
0.00926761
0.00464184
0.0050977
0.00554041
0.00596055
0.00639766
0.00694013
0.00771223
0.00889957
0.0111276
0.0155488
0.0239399
0.0383743
0.0627162
0.1027
0.163897
0.250411
0.371753
0.516272
0.69802
0.0734157
0.0436431
0.0550896
0.0655125
0.0783752
0.0958516
0.119548
0.150811
0.191731
0.244926
0.312943
0.3946
0.429126
0.492795
0.637505
0.840759
1.12921
1.49614
1.58872
2.24047
0.0186685
0.0325
0.0549016
0.0885964
0.133998
0.187384
0.246827
0.315647
0.395793
0.485909
0.57249
0.644207
0.816778
0.894799
0.85245
0.804409
0.779361
0.747473
0.743817
1.00145
0.010179
0.00889947
0.00586078
0.00685433
0.00892502
0.0118657
0.0157538
0.020616
0.0264875
0.0334654
0.0421284
0.0568393
0.110032
0.195327
0.221782
0.205758
0.165206
0.115972
0.0790742
0.0796723
0.00659104
0.0083396
0.00448525
0.00430139
0.0044395
0.004715
0.00507776
0.00548158
0.00588807
0.00627986
0.00670617
0.00742184
0.00959293
0.0142896
0.0182085
0.018388
0.0153403
0.0114255
0.00854177
0.00723548
0.00620874
0.0088886
0.00427656
0.00393678
0.00388977
0.00392837
0.00401122
0.0041075
0.00419804
0.00427566
0.00434961
0.0044539
0.00464441
0.00494227
0.00526193
0.00550905
0.00562145
0.00560331
0.00552424
0.00550895
0.00640111
0.00929286
0.00434087
0.00387382
0.00378347
0.00378228
0.0038201
0.00387084
0.00392261
0.00397269
0.00402637
0.00409804
0.00420938
0.00437419
0.00457403
0.0047778
0.00494675
0.00505733
0.00511831
0.00516066
0.00687949
0.009123
0.00442603
0.00390311
0.00380082
0.00379295
0.00382037
0.00386016
0.00390419
0.00395121
0.00400463
0.00407196
0.00416247
0.00428141
0.00442193
0.00456678
0.00469562
0.00479569
0.00486721
0.00491789
0.00749449
0.00843465
0.00444727
0.00395798
0.00386035
0.00385149
0.00387199
0.00390316
0.00393951
0.00398036
0.00402761
0.00408494
0.00415631
0.00424321
0.00434182
0.00444324
0.00453703
0.00461563
0.00467676
0.00472185
0.00812585
0.00741439
0.00441275
0.00401561
0.0039343
0.00392512
0.00393814
0.00395992
0.00398688
0.00401844