/*--------------------------------*- C++ -*----------------------------------*\
| =========                 |                                                 |
| \\      /  F ield         | OpenFOAM: The Open Source CFD Toolbox           |
|  \\    /   O peration     | Version:  v1912                                 |
|   \\  /    A nd           | Website:  www.openfoam.com                      |
|    \\/     M anipulation  |                                                 |
\*---------------------------------------------------------------------------*/
FoamFile
{
    version     2.0;
    format      ascii;
    class       volScalarField;
    location    "44";
    object      nut;
}
// * * * * * * * * * * * * * * * * * * * * * * * * * * * * * * * * * * * * * //

dimensions      [0 2 -1 0 0 0 0];


internalField   nonuniform List<scalar> 
20320
(
0.0347188
0.00759851
0.00766695
0.00773345
0.0077976
0.007859
0.00791711
0.00797129
0.00802083
0.00806492
0.0081026
0.00813283
0.00815438
0.00816574
0.00816501
0.00814948
0.0081137
0.00804367
0.0078989
0.0075086
0.0352306
0.0352732
0.0354463
0.0356801
0.0359562
0.0362422
0.036504
0.0367165
0.0368729
0.0369821
0.0370607
0.0371217
0.0371704
0.037193
0.0371562
0.0369907
0.0365517
0.0354746
0.0328848
0.0241599
0.035354
0.0356363
0.036137
0.036883
0.0379748
0.0395124
0.0415817
0.0442305
0.0474362
0.0510743
0.0549093
0.0586201
0.0618509
0.0642684
0.0655957
0.0656122
0.0641096
0.0607209
0.0541716
0.0357394
0.0355264
0.0361114
0.0369221
0.037961
0.0393295
0.0411424
0.0435303
0.0466352
0.0505953
0.0555057
0.0613461
0.0678897
0.0746373
0.0808315
0.0855714
0.0879788
0.0873188
0.0829016
0.072904
0.0446218
0.0357342
0.0367053
0.0379035
0.0393041
0.0410011
0.0431039
0.0457414
0.0490677
0.0532646
0.0585321
0.065045
0.07285
0.0816959
0.0908542
0.0990624
0.1047
0.106144
0.101937
0.0893066
0.0517568
0.0359681
0.0373978
0.039052
0.0408819
0.0429706
0.0454196
0.048351
0.0519147
0.0562989
0.0617343
0.0684837
0.0767801
0.0866648
0.0976973
0.108645
0.117423
0.121484
0.118276
0.103643
0.0575616
0.0362175
0.0381575
0.0403164
0.0426257
0.0451572
0.0480026
0.0512747
0.0551163
0.0597125
0.0653021
0.0721824
0.0806852
0.0910644
0.103199
0.116109
0.127565
0.134277
0.132474
0.116285
0.0623818
0.0364711
0.038951
0.0416431
0.0444658
0.0474795
0.0507656
0.0544256
0.0585922
0.0634439
0.0692195
0.0762296
0.084856
0.0954886
0.108273
0.122548
0.136168
0.145329
0.14508
0.127632
0.0665277
0.0367175
0.039743
0.0429751
0.0463273
0.0498503
0.0536152
0.057711
0.0622571
0.0674218
0.0734388
0.0806214
0.089377
0.10018
0.113378
0.128623
0.143971
0.155309
0.156607
0.138076
0.0702577
0.0369451
0.0404976
0.0442539
0.0481329
0.0521785
0.0564536
0.0610337
0.066022
0.0715724
0.0779076
0.0853369
0.0942783
0.105259
0.118776
0.134756
0.15151
0.164764
0.167527
0.147997
0.0738097
0.0371432
0.0411799
0.0454223
0.0498058
0.0543726
0.0591808
0.064293
0.0697939
0.0758184
0.0825724
0.0903536
0.0995798
0.11081
0.124651
0.141264
0.159229
0.174208
0.178353
0.157851
0.077412
0.0373026
0.0417583
0.0464274
0.0512732
0.0563435
0.0616967
0.0673853
0.0734746
0.0800769
0.0873753
0.0956478
0.105302
0.116914
0.131169
0.148429
0.167537
0.184151
0.189629
0.16813
0.0813254
0.0374162
0.0422064
0.0472238
0.0524711
0.0580093
0.0639051
0.0702062
0.0769608
0.0842569
0.0922501
0.101191
0.111468
0.123658
0.138506
0.156547
0.176873
0.195173
0.202033
0.179489
0.0858408
0.0374792
0.0425047
0.0477766
0.0533469
0.0592985
0.0657159
0.0726511
0.0801411
0.0882525
0.0971115
0.106937
0.118087
0.131132
0.14686
0.165956
0.187757
0.20799
0.216439
0.192805
0.0914007
0.0374899
0.0426418
0.0480637
0.0538635
0.0601545
0.0670499
0.0746177
0.0828956
0.0919371
0.101845
0.112803
0.125141
0.13941
0.156436
0.17705
0.200841
0.223582
0.234148
0.209459
0.0987355
0.0374493
0.0426151
0.0480767
0.0540018
0.0605399
0.0678434
0.0760113
0.0850981
0.0951613
0.106293
0.118654
0.132546
0.148509
0.167415
0.190258
0.21693
0.243289
0.257104
0.231653
0.109115
0.0373613
0.0424309
0.0478223
0.0537622
0.0604398
0.0680546
0.0767512
0.086622
0.0977525
0.110248
0.124272
0.140117
0.158334
0.179872
0.205963
0.236941
0.26893
0.288418
0.263514
0.125327
0.0372322
0.0421039
0.0473214
0.0531653
0.0598645
0.0676691
0.076781
0.0873515
0.0995236
0.113453
0.129341
0.147514
0.168579
0.193634
0.224294
0.261648
0.302602
0.332543
0.312119
0.153381
0.0370704
0.0416565
0.0466079
0.0522512
0.0588508
0.0667056
0.0760797
0.0871997
0.100295
0.115614
0.133447
0.154211
0.178641
0.208092
0.244779
0.291078
0.345787
0.39455
0.388736
0.206981
0.0368856
0.0411163
0.0457257
0.0510759
0.0574599
0.0652176
0.0746715
0.0861296
0.0999291
0.116447
0.136116
0.159513
0.187576
0.222025
0.265901
0.32347
0.396935
0.47474
0.49961
0.303048
0.0395512
0.0270071
0.0314517
0.035832
0.0399378
0.0443065
0.0467693
0.0477612
0.0550531
0.0749362
0.093108
0.104704
0.116184
0.130018
0.146987
0.172207
0.205786
0.246726
0.283789
0.296468
0.290977
0.245273
0.202405
0.171414
0.151134
0.135308
0.122907
0.113663
0.106236
0.100671
0.097035
0.0936604
0.0892081
0.0853488
0.0828083
0.0812534
0.0802786
0.0798476
0.0803415
0.0802437
0.0783673
0.076463
0.0751481
0.0744583
0.0740538
0.074062
0.0748077
0.0757711
0.0764895
0.0761886
0.0750765
0.0728293
0.0673531
0.0609457
0.0585983
0.0600991
0.0619724
0.0626113
0.0626538
0.0626374
0.0511911
0.547036
0.669435
0.752537
0.812859
0.855013
0.85829
0.811232
0.792182
1.03902
1.35058
1.54359
1.70424
1.88181
2.07759
2.31531
2.62344
2.96948
3.29442
2.88605
2.23683
1.82072
1.56621
1.39655
1.27933
1.18536
1.1159
1.06179
1.01718
0.998076
0.987247
0.960112
0.91367
0.888939
0.89165
0.903304
0.919327
0.936269
0.950148
0.946082
0.927896
0.909369
0.890469
0.8665
0.849419
0.852737
0.856021
0.851767
0.830796
0.773776
0.672978
0.499363
0.347764
0.354738
0.454409
0.590332
0.704879
0.781269
0.835486
0.879294
0.0596339
0.839755
1.10619
1.24293
1.33725
1.40821
1.43677
1.4114
1.41026
1.62051
1.95187
2.1725
2.3587
2.59777
2.90021
3.20847
3.58746
4.09501
3.64571
3.05649
2.61999
2.30981
2.09734
1.94579
1.83449
1.74961
1.68554
1.63576
1.59854
1.57865
1.56637
1.54541
1.51501
1.49864
1.50409
1.52527
1.55791
1.59373
1.62251
1.63311
1.6265
1.61105
1.5898
1.56526
1.5451
1.53295
1.51964
1.49255
1.42981
1.30832
1.12411
0.885949
0.665633
0.633467
0.78367
1.02236
1.25102
1.424
1.55599
1.66209
0.0646029
0.99082
1.36417
1.5332
1.64397
1.73396
1.79317
1.81107
1.84539
2.00022
2.26767
2.48052
2.70309
3.07408
3.55543
3.90385
4.31132
3.90572
3.32569
2.90521
2.61814
2.42082
2.2845
2.18532
2.11077
2.05494
2.01419
1.98542
1.96617
1.95786
1.9555
1.95032
1.94269
1.94538
1.96568
2.00284
2.05293
2.10757
2.15584
2.18772
2.20124
2.19985
2.18735
2.16884
2.14895
2.12885
2.10467
2.06311
1.97594
1.81479
1.58379
1.33312
1.0889
1.08958
1.29245
1.58568
1.86532
2.08395
2.24969
2.38034
0.0678327
1.0964
1.54048
1.73171
1.84904
1.94855
2.03076
2.08592
2.14949
2.2842
2.50108
2.72147
3.01701
3.598
4.42918
4.72196
4.03258
3.37557
2.94954
2.67953
2.51554
2.4167
2.35475
2.31133
2.27892
2.25601
2.242
2.23604
2.23725
2.2461
2.26046
2.2763
2.29469
2.32327
2.36778
2.42863
2.50183
2.57943
2.65079
2.70625
2.74207
2.75876
2.75996
2.75185
2.73763
2.71685
2.68894
2.64493
2.55726
2.39499
2.1646
1.94869
1.78839
1.82783
2.02695
2.3109
2.58022
2.79263
2.95264
3.07758
0.073027
1.18477
1.6787
1.886
2.00465
2.10696
2.20519
2.29167
2.37832
2.5195
2.71798
2.97457
3.37729
4.18735
5.22278
4.36536
3.46841
2.95514
2.67569
2.53411
2.47192
2.45145
2.44845
2.44943
2.45072
2.45394
2.46125
2.47406
2.49351
2.52088
2.5558
2.59656
2.6442
2.70333
2.77761
2.86629
2.96393
3.0631
3.15404
3.22786
3.28089
3.31289
3.32753
3.33142
3.32625
3.30986
3.28345
3.24474
3.17427
3.04457
2.86327
2.69356
2.6319
2.68724
2.87436
3.11476
3.33615
3.51138
3.64396
3.74884
0.0793212
1.25932
1.79568
2.01589
2.13265
2.2325
2.34134
2.45223
2.56774
2.73187
2.92994
3.25684
3.75714
4.63385
4.67663
3.73205
3.10322
2.75627
2.59684
2.54886
2.56044
2.59652
2.63478
2.66537
2.68824
2.7085
2.73116
2.75973
2.79686
2.84413
2.90218
2.9696
3.04617
3.13413
3.23484
3.34545
3.45872
3.56878
3.66786
3.74894
3.80967
3.85022
3.87498
3.8903
3.8951
3.88654
3.86631
3.83714
3.78897
3.70496
3.594
3.50078
3.48394
3.55999
3.71523
3.90008
4.06703
4.19934
4.30093
4.38481
0.0848757
1.32477
1.89939
2.13048
2.24311
2.3347
2.4433
2.57008
2.71274
2.88529
3.13935
3.56995
4.18706
4.99659
4.06963
3.379
2.96032
2.74602
2.67698
2.69906
2.76592
2.84159
2.90501
2.95226
2.98908
3.02431
3.06412
3.11205
3.17029
3.23925
3.31939
3.40938
3.50714
3.61302
3.72732
3.84574
3.96041
4.06934
4.16616
4.24602
4.30791
4.3512
4.38223
4.40602
4.4201
4.4203
4.41012
4.3909
4.36592
4.32287
4.2745
4.2439
4.2649
4.34552
4.47502
4.61718
4.74188
4.84003
4.91747
4.98676
0.090577
1.38697
1.99501
2.23548
2.34314
2.42259
2.52251
2.65356
2.81305
3.02293
3.35833
3.89086
4.62153
4.64716
3.79041
3.24934
2.94725
2.82402
2.83133
2.9161
3.02585
3.1232
3.19443
3.2471
3.29484
3.3467
3.40752
3.47869
3.56003
3.65068
3.7501
3.85859
3.9743
4.09186
4.2099
4.32554
4.42874
4.52208
4.60568
4.67793
4.73718
4.77994
4.81144
4.84051
4.8614
4.87261
4.87885
4.88299
4.8848
4.87481
4.87277
4.88617
4.93248
5.02148
5.14445
5.26502
5.36382
5.43487
5.49514
5.55718
0.0953306
1.44578
2.08524
2.33465
2.43861
2.50723
2.59877
2.73481
2.91933
3.18104
3.59903
4.23092
5.09241
4.32611
3.61696
3.18102
2.96229
2.92107
3.00578
3.14388
3.27489
3.36869
3.43055
3.47869
3.5289
3.58901
3.66353
3.75148
3.85067
3.95889
4.075
4.19991
4.33137
4.45958
4.57836
4.68343
4.77038
4.85097
4.93011
4.99505
5.04969
5.09305
5.13272
5.17562
5.20878
5.23451
5.2607
5.29145
5.32349
5.34667
5.37824
5.43141
5.50532
5.60706
5.72657
5.81236
5.8716
5.91571
5.95795
6.01121
0.0974514
1.50169
2.17125
2.4304
2.5328
2.59492
2.68302
2.82989
3.04808
3.36547
3.85829
4.59008
4.94831
4.04845
3.45514
3.10569
2.97288
3.02334
3.1805
3.34587
3.46529
3.53587
3.58104
3.62105
3.67111
3.73663
3.82061
3.92083
4.03309
4.15373
4.28052
4.41199
4.54177
4.66247
4.7762
4.88046
4.97093
5.05532
5.13676
5.20256
5.2574
5.30576
5.35668
5.41241
5.46056
5.50327
5.54939
5.60331
5.66
5.71035
5.76184
5.83205
5.92537
6.02395
6.11414
6.17393
6.2121
6.24864
6.28323
6.32744
0.0988005
1.55511
2.25369
2.52409
2.62721
2.68676
2.7766
2.93863
3.19391
3.57189
4.13523
4.99416
4.59351
3.81111
3.30088
3.03076
2.99535
3.13862
3.34285
3.4947
3.57954
3.62089
3.64458
3.67234
3.71931
3.7893
3.88163
3.99183
4.11391
4.24277
4.37482
4.50663
4.63145
4.74527
4.85407
4.95866
5.05506
5.14688
5.23368
5.30576
5.36688
5.42439
5.48692
5.55426
5.61695
5.67613
5.73918
5.80908
5.87993
5.94279
5.99822
6.06141
6.14586
6.2381
6.32474
6.38121
6.41843
6.45279
6.4847
6.52224
0.101932
1.60438
2.33277
2.61642
2.72248
2.78215
2.87694
3.05549
3.34692
3.7884
4.47976
5.28126
4.29918
3.60441
3.16047
2.97553
3.04693
3.26249
3.46952
3.58501
3.62491
3.62934
3.62675
3.63864
3.67896
3.75044
3.84887
3.96663
4.09562
4.22935
4.36321
4.49308
4.61381
4.72419
4.83048
4.93549
5.03693
5.13581
5.22939
5.31074
5.3824
5.45175
5.52586
5.60377
5.67894
5.75165
5.82665
5.90485
5.98015
6.04467
6.09832
6.15569
6.23219
6.32257
6.41029
6.47209
6.5145
6.54929
6.58006
6.61299
0.106914
1.64905
2.40832
2.70769
2.81914
2.88066
2.98153
3.17573
3.50288
4.01622
4.75709
5.01539
4.06537
3.42417
3.03915
2.95255
3.12609
3.38142
3.55366
3.60922
3.60098
3.56544
3.53294
3.52551
3.55561
3.62429
3.72447
3.84576
3.97818
4.11402
4.24795
4.37594
4.49477
4.60493
4.71171
4.8184
4.92466
5.03034
5.13185
5.224
5.3082
5.39038
5.47565
5.56298
5.64804
5.73052
5.81269
5.89386
5.96873
6.03206
6.08611
6.1448
6.22159
6.31326
6.40219
6.4691
6.51635
6.55253
6.5834
6.61394
0.111247
1.68968
2.48004
2.79792
2.91801
2.98279
3.08925
3.30101
3.66373
4.23952
5.15686
4.70117
3.8531
3.25635
2.93815
2.96414
3.21674
3.47538
3.57988
3.57135
3.5099
3.43205
3.3673
3.33744
3.35342
3.4142
3.51043
3.63001
3.76184
3.89734
4.03063
4.15796
4.27749
4.39047
4.50103
4.61221
4.72472
4.83791
4.94823
5.0516
5.14856
5.2432
5.33873
5.43425
5.52694
5.61615
5.70252
5.78474
5.85921
5.92384
5.98314
6.04919
6.13136
6.2252
6.31416
6.38368
6.43426
6.47285
6.50597
6.537
0.111863
1.72555
2.54804
2.88709
3.01968
3.09002
3.20297
3.43461
3.84571
4.49532
5.35832
4.44497
3.65848
3.09533
2.86106
3.00284
3.30832
3.51968
3.54903
3.4757
3.35825
3.23502
3.135
3.07897
3.076
3.12295
3.20905
3.32157
3.44893
3.58202
3.71457
3.84293
3.96589
4.08473
4.20243
4.32136
4.44232
4.5643
4.68409
4.79851
4.9075
5.01349
5.11823
5.22095
5.31985
5.41425
5.50405
5.58818
5.66498
5.73491
5.80344
5.87971
5.96856
6.06395
6.15204
6.22262
6.27646
6.31962
6.35804
6.39266
0.112219
1.755
2.61416
2.97632
3.12438
3.20488
3.32793
3.58138
4.02656
4.74837
5.26063
4.24608
3.46849
2.93826
2.81129
3.05557
3.37831
3.51249
3.46604
3.32711
3.15234
2.98091
2.84183
2.75483
2.72704
2.7538
2.82394
2.92475
3.04453
3.17376
3.30582
3.43699
3.56599
3.69352
3.82133
3.95079
4.08215
4.21408
4.34379
4.46882
4.58882
4.70498
4.81809
4.92754
5.03227
5.13176
5.22586
5.31416
5.39659
5.47516
5.55494
5.64174
5.73665
5.83308
5.92067
5.99323
6.05221
6.10293
6.14976
6.19053
0.117508
1.78788
2.68211
3.068
3.2327
3.32804
3.46632
3.74327
4.24273
5.0138
4.96386
4.03534
3.26644
2.78651
2.78909
3.11274
3.41549
3.45533
3.33459
3.13069
2.89801
2.6758
2.49348
2.37003
2.31119
2.31185
2.36122
2.44682
2.55675
2.68121
2.81327
2.94883
3.08596
3.22431
3.36425
3.50596
3.64888
3.79143
3.93125
4.06648
4.19663
4.32212
4.44323
4.55958
4.67063
4.77619
4.87637
4.97144
5.06241
5.15175
5.24327
5.3398
5.44008
5.53824
5.62744
5.70464
5.77184
5.83323
5.89098
5.93967
0.124632
1.85585
2.76044
3.16822
3.34744
3.45912
3.61845
3.91117
4.42022
5.2813
4.77228
3.8178
3.04605
2.64954
2.79074
3.17667
3.39799
3.35312
3.15984
2.8921
2.60102
2.32558
2.0959
1.9308
1.83571
1.80595
1.83119
1.89897
1.99733
2.11633
2.24867
2.38951
2.53585
2.68593
2.83866
2.99307
3.14784
3.30119
3.45117
3.59634
3.73617
3.87072
4.00007
4.12408
4.24266
4.35595
4.46437
4.56872
4.6704
4.7716
4.87459
4.98011
5.08601
5.18797
5.28208
5.36736
5.44586
5.52032
5.5906
5.64809
0.135508
1.95439
2.87376
3.28941
3.47519
3.5978
3.77874
4.09865
4.61795
5.38819
4.51302
3.56597
2.81601
2.54222
2.8093
3.21355
3.33975
3.21126
2.94809
2.61753
2.26731
1.93644
1.65631
1.44683
1.31389
1.2527
1.25219
1.29994
1.38458
1.49672
1.62833
1.7738
1.92862
2.08957
2.25426
2.42062
2.58672
2.75065
2.91071
3.06573
3.2152
3.35905
3.49739
3.63031
3.75805
3.88098
3.99976
4.11534
4.22907
4.34244
4.45649
4.5709
4.68379
4.79245
4.89505
4.99164
5.08383
5.17282
5.25625
5.32255
0.152627
2.1268
3.05441
3.45434
3.63405
3.75526
3.94406
4.27348
4.81377
5.296
4.26108
3.29649
2.5953
2.47498
2.8359
3.22232
3.23948
3.0344
2.70496
2.3127
1.90277
1.51526
1.18589
0.937042
0.773176
0.686128
0.662252
0.688993
0.756419
0.856357
0.981772
1.12653
1.2853
1.45329
1.62678
1.80254
1.97827
2.15164
2.32115
2.48567
2.64474
2.79829
2.94647
3.08957
3.22793
3.36208
3.49268
3.62059
3.74683
3.87226
3.99727
4.12136
4.24331
4.36177
4.47604
4.58647
4.69387
4.79791
4.89415
4.96843
0.175988
2.36893
3.31033
3.69338
3.85899
3.9685
4.14883
4.47891
4.95024
5.08469
3.98528
3.02563
2.40463
2.44622
2.8733
3.17824
3.1075
2.82892
2.43599
1.9831
1.51346
1.07534
0.711318
0.446968
0.283927
0.200883
0.171744
0.180002
0.219404
0.288684
0.386823
0.510717
0.655636
0.81615
0.987355
1.16441
1.34424
1.52299
1.69928
1.87143
2.03908
2.20191
2.36008
2.51385
2.66355
2.80961
2.95259
3.09311
3.23186
3.36936
3.50583
3.64103
3.7744
3.90543
4.03387
4.1598
4.28305
4.40171
4.50942
4.59007
0.185753
2.58942
3.61524
4.01811
4.19153
4.30576
4.47536
4.78904
5.2545
4.83993
3.71996
2.77061
2.25898
2.44079
2.91086
3.10369
2.94463
2.59941
2.14614
1.63372
1.11295
0.644921
0.290629
0.0948412
0.0276136
0.0137579
0.0129922
0.013224
0.0150301
0.0234589
0.0458759
0.091697
0.167939
0.275109
0.408256
0.560244
0.724442
0.895278
1.06901
1.24262
1.41488
1.5843
1.75097
1.91455
2.07518
2.23301
2.38828
2.54135
2.69268
2.84269
2.99166
3.13966
3.2866
3.43231
3.57651
3.71867
3.8574
3.98923
4.10609
4.19084
0.196188
2.77048
3.94372
4.41799
4.64336
4.81141
5.03598
5.39293
5.73573
4.6581
3.47865
2.54462
2.16346
2.44052
2.91513
2.99681
2.75927
2.35111
1.84015
1.27456
0.723469
0.274706
0.0469328
0.0117151
0.033229
0.0415185
0.0417904
0.041078
0.0398514
0.0367759
0.0288262
0.0177434
0.0144363
0.0252471
0.0579257
0.121152
0.216621
0.339204
0.48143
0.636434
0.799216
0.966302
1.13565
1.30557
1.47532
1.64381
1.81082
1.97634
2.14046
2.30361
2.46612
2.62828
2.79018
2.9516
3.1119
3.26966
3.4222
3.56447
3.68716
3.77326
0.226667
2.99601
4.29316
4.86912
5.19137
5.45857
5.81668
6.2664
6.27664
4.51747
3.26421
2.34734
2.10379
2.43884
2.8938
2.85924
2.55367
2.08768
1.52203
0.921456
0.376933
0.055768
0.0131096
0.0408987
0.0434659
0.0426897
0.0418962
0.0412917
0.040897
0.0407125
0.0407202
0.0407743
0.0403535
0.037701
0.0288137
0.0176995
0.0181424
0.0370311
0.0826171
0.16048
0.26907
0.40237
0.553612
0.71694
0.887737
1.06251
1.23884
1.41543
1.59164
1.76778
1.94377
2.1201
2.29667
2.473
2.64777
2.81859
2.98144
3.12992
3.2539
3.33772
0.223298
3.2499
4.66442
5.35552
5.79166
6.13163
6.46107
6.97069
6.07536
4.36884
3.05019
2.16234
2.05053
2.44952
2.82401
2.7059
2.33347
1.81254
1.20355
0.591158
0.126818
0.0101225
0.0398779
0.0436819
0.0428811
0.0420642
0.0413594
0.0408064
0.040418
0.0402055
0.0401679
0.040282
0.0405131
0.0408317
0.0411866
0.0414128
0.0409473
0.0377317
0.0279096
0.0187098
0.025228
0.0570408
0.124862
0.231977
0.371851
0.533803
0.708323
0.889126
1.07283
1.25803
1.44427
1.63151
1.81926
2.00671
2.19137
2.37006
2.53743
2.68592
2.8047
2.88007
0.219496
3.34847
5.01982
5.78839
6.20511
6.5685
7.04631
7.31572
5.76627
4.1119
2.77091
1.96841
1.98894
2.49228
2.7292
2.52836
2.09935
1.52863
0.893683
0.308424
0.0219139
0.0307031
0.0435547
0.0430176
0.0422299
0.0415106
0.0408863
0.0403864
0.0400202
0.0397953
0.039704
0.0397334
0.0398699
0.0400901
0.040372
0.0406967
0.0410437
0.0413859
0.0416488
0.0415436
0.0399236
0.0333895
0.0235883
0.0295277
0.0692533
0.156398
0.287412
0.447049
0.622114
0.805069
0.992313
1.18207
1.37292
1.563
1.74932
1.92749
2.09098
2.23089
2.33443
2.387
0.233164
3.30651
5.25395
6.01424
6.46163
6.91364
7.39993
7.169
5.36347
3.72699
2.39707
1.76885
1.94047
2.50307
2.62163
2.3389
1.85482
1.24385
0.602836
0.110226
0.0110911
0.0421801
0.0429958
0.0423115
0.0416411
0.0410138
0.0404617
0.0400087
0.0396661
0.0394423
0.0393269
0.0393091
0.0393806
0.0395219
0.0397156
0.0399515
0.0402202
0.0405119
0.0408145
0.0411122
0.0413504
0.0412893
0.0400703
0.0356673
0.0290958
0.034658
0.0729021
0.158628
0.286692
0.441603
0.611338
0.788953
0.970229
1.15153
1.32853
1.49554
1.64468
1.76473
1.8384
1.8349
0.255721
3.4948
5.30758
6.13321
6.61908
7.06008
7.38001
6.49796
4.75549
3.16095
1.95309
1.59568
1.93569
2.50258
2.47931
2.13546
1.60034
0.962903
0.346437
0.0229662
0.0319651
0.0427822
0.04233
0.0416964
0.0410974
0.0405486
0.0400675
0.0396656
0.0393525
0.0391361
0.039007
0.0389591
0.0389875
0.0390753
0.0392088
0.0393801
0.0395821
0.0398078
0.0400535
0.0403213
0.0406064
0.0408748
0.0409994
0.0405135
0.0382187
0.0334803
0.0324317
0.0493204
0.100571
0.193253
0.318796
0.464544
0.620812
0.780475
0.936924
1.08255
1.20733
1.29678
1.32647
1.24205
0.242013
3.64289
5.32368
6.13984
6.62027
6.96468
6.9527
5.64036
3.97231
2.47997
1.53386
1.48681
1.97738
2.44633
2.32467
1.91954
1.33993
0.691791
0.149414
0.00902511
0.0411363
0.0422057
0.0416708
0.0411087
0.0405865
0.040104
0.0396882
0.0393403
0.0390633
0.0388618
0.0387268
0.0386572
0.0386535
0.0387023
0.0387934
0.0389214
0.039078
0.0392553
0.0394518
0.0396722
0.0399185
0.0401933
0.0404871
0.0407122
0.0405573
0.0392015
0.0357174
0.0327641
0.0395269
0.0681324
0.128722
0.220878
0.335106
0.460313
0.586279
0.70252
0.79643
0.850185
0.833932
0.684332
0.237905
3.37789
5.26354
6.03254
6.4421
6.62759
6.17205
4.65367
3.09334
1.80141
1.23641
1.45652
2.06145
2.35364
2.15038
1.69197
1.07753
0.440243
0.0399943
0.0259296
0.0419169
0.0416363
0.0411027
0.040585
0.0401177
0.0396905
0.0393244
0.0390167
0.0387726
0.0385924
0.038462
0.0383827
0.0383588
0.0383793
0.0384381
0.0385339
0.0386593
0.0388055
0.0389682
0.0391502
0.0393557
0.0395923
0.0398693
0.0401839
0.0404884
0.0405914
0.0399531
0.0376707
0.0342168
0.0345676
0.0467638
0.0788293
0.134748
0.210195
0.294579
0.374677
0.435231
0.45709
0.413118
0.262328
0.245156
3.26281
5.03502
5.79328
6.09506
6.05448
5.14287
3.62917
2.2222
1.2503
1.09454
1.49206
2.12448
2.24285
1.95724
1.45091
0.815872
0.225886
0.00907956
0.0390066
0.0414768
0.0410719
0.0405722
0.0401069
0.0396873
0.0393076
0.0389813
0.038703
0.0384828
0.0383197
0.0381977
0.0381198
0.0380902
0.0380954
0.0381308
0.0382005
0.0383002
0.0384217
0.0385601
0.0387166
0.0388932
0.0390931
0.0393274
0.039609
0.0399425
0.0403118
0.0406242
0.0405838
0.0395716
0.0370929
0.0345266
0.0359555
0.0459386
0.0674784
0.099517
0.134633
0.159841
0.1592
0.118972
0.0485505
0.266344
3.27613
4.78092
5.43325
5.61357
5.30587
4.03037
2.63186
1.4652
0.909873
1.07435
1.57557
2.13818
2.09655
1.748
1.19859
0.56143
0.0780425
0.016432
0.0410446
0.0409823
0.040553
0.040069
0.039647
0.0392691
0.0389351
0.0386508
0.0384056
0.0382103
0.0380623
0.0379473
0.0378727
0.0378425
0.037841
0.0378633
0.037915
0.0379927
0.0380904
0.0382057
0.0383408
0.0384956
0.0386691
0.038869
0.039106
0.039391
0.0397385
0.0401546
0.0406103
0.0409919
0.0410302
0.0403189
0.0387185
0.0369763
0.0365313
0.0382483
0.0412854
0.0428045
0.0399316
0.0354028
0.037631
0.264626
3.32239
4.5307
4.99485
5.01821
4.30269
2.94741
1.72495
0.914509
0.7835
1.12563
1.68431
2.0755
1.928
1.52178
0.940057
0.326815
0.0159549
0.0348793
0.0407724
0.0404322
0.0400171
0.0395714
0.0391997
0.0388652
0.0385743
0.0383287
0.0381171
0.0379514
0.0378244
0.0377208
0.0376504
0.0376187
0.0376117
0.0376255
0.037666
0.037729
0.0378082
0.0379025
0.0380153
0.0381479
0.0382986
0.0384721
0.0386744
0.0389125
0.0392
0.0395543
0.039991
0.0405169
0.0411174
0.0417403
0.0422757
0.0426298
0.0428514
0.0431363
0.0436536
0.0443457
0.0448369
0.0442176
0.0413326
0.267094
3.14814
4.11263
4.45888
4.26947
3.13168
1.91931
0.998157
0.626268
0.803067
1.21626
1.8105
1.96864
1.73376
1.28005
0.680293
0.138326
0.00941089
0.0400587
0.0403127
0.03994
0.0395181
0.0391007
0.0387707
0.0384784
0.03823
0.0380209
0.0378393
0.0376988
0.0375921
0.0375041
0.037443
0.0374133
0.0374027
0.0374096
0.0374413
0.0374943
0.0375621
0.0376425
0.0377379
0.0378498
0.0379777
0.0381258
0.0382989
0.0385004
0.0387381
0.0390242
0.0393739
0.0398066
0.0403435
0.0410017
0.0417971
0.042735
0.0437937
0.0449199
0.0459783
0.0466521
0.0464077
0.0446083
0.0409473
0.244763
2.70351
3.40196
3.61492
3.08849
1.95334
1.04108
0.558253
0.576845
0.884495
1.33311
1.8482
1.83012
1.51909
1.02165
0.429021
0.0331395
0.0285538
0.0402574
0.0398322
0.0394688
0.0390612
0.0386777
0.0383785
0.0381174
0.0379018
0.0377244
0.0375712
0.0374516
0.0373603
0.0372853
0.0372344
0.0372108
0.0372025
0.0372077
0.0372333
0.0372778
0.0373364
0.037407
0.0374914
0.0375895
0.0376996
0.037825
0.0379706
0.0381394
0.0383367
0.0385697
0.038847
0.0391816
0.0395916
0.0400998
0.0407247
0.0414785
0.0423612
0.0433269
0.0442271
0.044747
0.0444084
0.0427535
0.0396981
0.227777
2.10926
2.47148
2.40228
1.7061
0.957751
0.499362
0.429415
0.659762
0.986465
1.46746
1.79458
1.65512
1.28336
0.753203
0.207384
0.00763928
0.038728
0.0398144
0.0393747
0.0390278
0.0386461
0.0383016
0.0380302
0.0377954
0.0376014
0.0374433
0.0373104
0.0372074
0.037129
0.0370656
0.0370228
0.0370037
0.0369992
0.0370068
0.037031
0.0370707
0.0371219
0.0371837
0.0372585
0.0373463
0.0374447
0.0375546
0.0376785
0.0378194
0.0379813
0.0381699
0.0383907
0.038651
0.038961
0.0393335
0.039784
0.0403285
0.0409684
0.0416757
0.0423596
0.0428063
0.042634
0.0413905
0.0389175
0.22125
1.51245
1.85125
1.33442
0.784354
0.42174
0.335435
0.510014
0.764907
1.10283
1.59577
1.67912
1.44973
1.02709
0.485854
0.0586111
0.0207447
0.0395769
0.0392657
0.0388955
0.0385795
0.0382453
0.0379517
0.0377154
0.0375123
0.0373424
0.0372023
0.0370849
0.0369928
0.0369231
0.0368691
0.0368324
0.0368143
0.0368094
0.0368157
0.0368368
0.0368721
0.0369181
0.036973
0.0370385
0.0371153
0.0372021
0.0372992
0.0374077
0.0375283
0.0376629
0.0378149
0.0379886
0.0381894
0.0384236
0.0386986
0.039022
0.0394001
0.039837
0.0403234
0.0408128
0.0411747
0.0411292
0.0402632
0.0382983
0.237225
1.3857
1.06897
0.616337
0.339161
0.278382
0.42298
0.63272
0.869109
1.23969
1.58406
1.52636
1.21581
0.749156
0.242149
0.00950909
0.0356322
0.0391556
0.0387613
0.0384307
0.0381277
0.0378321
0.0375827
0.0373846
0.037219
0.0370808
0.0369677
0.0368741
0.0367999
0.0367433
0.0367005
0.0366717
0.0366573
0.0366537
0.0366591
0.0366759
0.0367046
0.0367433
0.0367906
0.0368471
0.0369124
0.0369859
0.0370678
0.0371593
0.0372613
0.0373736
0.0374973
0.037634
0.0377871
0.037961
0.0381599
0.0383881
0.0386499
0.0389471
0.0392747
0.0396103
0.039883
0.0399071
0.0393347
0.0378038
0.183577
0.513156
0.332247
0.241032
0.270006
0.415179
0.568768
0.72776
0.987712
1.37868
1.51409
1.32268
0.944238
0.465513
0.0736429
0.0110008
0.0380791
0.0386858
0.0383062
0.0379951
0.0377159
0.0374542
0.0372296
0.0370506
0.036908
0.0367932
0.0367013
0.0366281
0.0365716
0.0365303
0.0365017
0.0364845
0.0364779
0.0364809
0.0364922
0.0365122
0.0365407
0.0365766
0.0366194
0.0366697
0.0367273
0.0367916
0.0368621
0.0369389
0.0370227
0.0371138
0.0372128
0.0373201
0.0374365
0.0375637
0.0377041
0.0378607
0.0380358
0.0382304
0.0384428
0.0386648
0.0388636
0.0389277
0.0385817
0.0374094
0.0366879
0.0405141
0.0447253
0.0497069
0.0557724
0.0632909
0.0726306
0.0841721
0.0983636
0.115732
0.136896
0.162642
0.19417
0.233604
0.284849
0.354237
0.447984
0.55825
0.622018
0.460994
0.0364809
0.0398746
0.0436468
0.0481983
0.0538546
0.0610013
0.0700335
0.0813838
0.0955933
0.113335
0.135426
0.162892
0.197197
0.240793
0.298145
0.376786
0.484888
0.614973
0.700445
0.588378
0.0362712
0.0392094
0.0425128
0.0465853
0.0517558
0.0584135
0.0669592
0.0778453
0.0916663
0.109203
0.131446
0.159642
0.195474
0.241542
0.302291
0.384898
0.496401
0.628397
0.726426
0.650831
0.0360669
0.0385447
0.0413681
0.0449323
0.0495619
0.0556392
0.0635527
0.0737402
0.0867925
0.103525
0.125022
0.152679
0.188313
0.234478
0.295116
0.376025
0.48218
0.606554
0.710353
0.714698
0.035875
0.0379056
0.0402575
0.0433065
0.0473656
0.0528021
0.0599817
0.0693029
0.0812982
0.0967242
0.116641
0.142466
0.176026
0.219709
0.276791
0.351569
0.447364
0.559455
0.664787
0.722249
0.0357012
0.0373135
0.0392203
0.0417696
0.0452561
0.050026
0.0564178
0.0647829
0.0755637
0.0893823
0.107145
0.130126
0.160007
0.198922
0.249532
0.314952
0.39748
0.494704
0.594594
0.674837
0.0355495
0.0367848
0.038287
0.0403709
0.0433086
0.0474202
0.0530166
0.0604069
0.0699451
0.0820897
0.0975058
0.117173
0.142452
0.175095
0.217212
0.271105
0.338529
0.418769
0.506169
0.589537
0.0354225
0.0363301
0.0374775
0.0391441
0.0415782
0.0450705
0.0499036
0.0563547
0.0647133
0.0753015
0.0885405
0.105049
0.12573
0.15181
0.184804
0.226367
0.277884
0.339582
0.409338
0.482186
0.0353213
0.0359545
0.0367998
0.038104
0.0400947
0.0430315
0.0471672
0.0527531
0.0600407
0.0692725
0.0807032
0.094654
0.11158
0.132123
0.157122
0.187537
0.224272
0.267822
0.317764
0.372358
0.035246
0.0356572
0.0362496
0.0372472
0.0388631
0.041325
0.0448566
0.049684
0.0560314
0.0641056
0.0740926
0.0861685
0.100522
0.117374
0.136968
0.159539
0.185323
0.214555
0.247353
0.283386
0.0351967
0.035429
0.0358078
0.0365575
0.0378758
0.0399529
0.0429882
0.0471832
0.0527309
0.0598075
0.068571
0.0791664
0.0917398
0.106405
0.123082
0.141371
0.160696
0.18066
0.200794
0.218192
0.0350917
0.0352277
0.0353506
0.0357512
0.0365801
0.0379909
0.0401573
0.0432284
0.0473134
0.0524775
0.0587117
0.0659447
0.0741271
0.082532
0.0892585
0.0901204
0.0823904
0.0704704
0.0611519
0.0599807
0.0154838
0.021805
0.0165147
0.0140063
0.012736
0.0120573
0.0116666
0.0114381
0.0113576
0.0113192
0.0119231
0.014138
0.0188539
0.027108
0.0396538
0.0570418
0.0790736
0.105576
0.134965
0.167166
0.0158992
0.0128728
0.0183522
0.0237345
0.0296721
0.0364601
0.0441872
0.0529243
0.0628432
0.0741454
0.0870446
0.101337
0.111507
0.12685
0.154207
0.190153
0.232043
0.272303
0.288309
0.344282
0.00966504
0.0166719
0.0231566
0.0325208
0.0438177
0.0555987
0.0673244
0.0794446
0.0920292
0.104892
0.117348
0.130449
0.160163
0.182042
0.190185
0.195904
0.197293
0.186731
0.183415
0.213555
0.010968
0.0128317
0.0146253
0.0137905
0.0131015
0.0136758
0.0150015
0.0167582
0.0187574
0.0209661
0.023788
0.0294361
0.0486158
0.0745701
0.0867688
0.0868134
0.0767461
0.0594584
0.0436695
0.0384012
0.0106359
0.0124442
0.0183077
0.0269127
0.0269875
0.0250226
0.0232832
0.0219289
0.0208043
0.0197807
0.0188141
0.0178855
0.0167351
0.0170945
0.0191913
0.0198679
0.0188625
0.0177522
0.0183667
0.0202325
0.0115255
0.0130052
0.0174922
0.0296824
0.0335487
0.033593
0.0330148
0.0324272
0.0318941
0.0314251
0.0310315
0.0306883
0.0301275
0.0291589
0.0288445
0.0299214
0.0322544
0.0352184
0.0380084
0.0401908
0.0123089
0.0136022
0.0176111
0.0301124
0.0345031
0.0351182
0.0352101
0.0352959
0.035396
0.0355142
0.0356825
0.0359634
0.0364356
0.0371398
0.0380352
0.0390442
0.0399953
0.0407183
0.0411759
0.0414672
0.0131367
0.0140475
0.0188799
0.0311405
0.034759
0.0351964
0.0353366
0.0355073
0.0356996
0.0359084
0.0361514
0.0364658
0.0368952
0.0374589
0.0381154
0.0387765
0.0393465
0.0397696
0.0400513
0.0402308
0.0135292
0.0145549
0.0215586
0.0327271
0.0350335
0.0352162
0.0353099
0.0354485
0.0356129
0.035798
0.0360129
0.0362754
0.0366037
0.0370022
0.0374487
0.0378978
0.0383001
0.0386231
0.0388598
0.0390202
0.012061
0.0154164
0.0257254
0.0342731
0.0352388
0.0352519
0.0352999
0.0353922
0.0355099
0.0356488
0.0358124
0.0360081
0.0362428
0.0365161
0.0368155
0.0371174
0.0373953
0.037629
0.0378095
0.0379371
0.012287
0.0176146
0.0309152
0.0352065
0.0353098
0.0352614
0.0352777
0.0353283
0.0353999
0.0354887
0.0355953
0.0357221
0.0358713
0.0360414
0.0362257
0.0364118
0.0365858
0.0367359
0.0368553
0.0369424
0.0157282
0.0243869
0.0347784
0.0353692
0.0352599
0.0352229
0.0352244
0.0352443
0.0352758
0.0353167
0.0353667
0.0354262
0.0354959
0.0355749
0.0356601
0.0357467
0.0358285
0.0359003
0.0359588
0.0360026
0.0613643
0.0796493
0.0893818
0.0981553
0.105996
0.1111
0.113806
0.114616
0.114014
0.112997
0.112004
0.110754
0.109551
0.108809
0.109209
0.271478
0.309955
0.483879
0.648746
0.741706
0.782616