/*--------------------------------*- C++ -*----------------------------------*\
| =========                 |                                                 |
| \\      /  F ield         | OpenFOAM: The Open Source CFD Toolbox           |
|  \\    /   O peration     | Version:  v1912                                 |
|   \\  /    A nd           | Website:  www.openfoam.com                      |
|    \\/     M anipulation  |                                                 |
\*---------------------------------------------------------------------------*/
FoamFile
{
    version     2.0;
    format      ascii;
    class       volScalarField;
    location    "44";
    object      p;
}
// * * * * * * * * * * * * * * * * * * * * * * * * * * * * * * * * * * * * * //

dimensions      [1 -1 -2 0 0 0 0];


internalField   nonuniform List<scalar> 
20320
(
419303
429556
429583
429634
429706
429794
429897
430011
430135
430266
430399
430533
430664
430788
430904
431008
431098
431172
431227
431258
399380
409292
409327
409380
409453
409542
409645
409761
409885
410016
410150
410284
410414
410539
410654
410756
410843
410913
410964
410996
380055
389656
389692
389746
389819
389908
390012
390127
390252
390382
390516
390649
390779
390902
391016
391117
391203
391271
391320
391352
361331
370633
370667
370721
370794
370882
370985
371099
371223
371353
371485
371616
371744
371866
371977
372077
372162
372230
372280
372315
343193
352203
352237
352290
352361
352448
352550
352662
352784
352912
353042
353172
353298
353416
353525
353622
353705
353773
353824
353863
325629
334354
334387
334439
334508
334593
334691
334802
334921
335045
335173
335300
335423
335538
335644
335738
335819
335885
335936
335977
308626
317071
317103
317152
317219
317301
317396
317502
317617
317738
317861
317983
318102
318213
318315
318405
318482
318546
318596
318639
292171
300343
300373
300420
300483
300561
300651
300752
300860
300975
301091
301208
301320
301425
301521
301606
301678
301737
301786
301829
276253
284157
284185
284229
284287
284359
284442
284535
284635
284741
284848
284955
285058
285154
285241
285317
285382
285435
285480
285523
260861
268502
268527
268566
268619
268683
268757
268840
268929
269022
269116
269210
269299
269381
269455
269519
269572
269616
269654
269695
245983
253366
253388
253421
253466
253520
253583
253653
253727
253803
253880
253954
254023
254085
254139
254183
254219
254248
254277
254312
231610
238741
238758
238785
238820
238863
238911
238964
239018
239073
239125
239172
239213
239246
239270
239285
239294
239301
239314
239337
217731
224614
224627
224645
224670
224698
224729
224761
224791
224818
224838
224850
224851
224842
224822
224793
224760
224731
224717
224719
204337
210976
210983
210992
211004
211016
211027
211034
211035
211026
211006
210970
210919
210851
210767
210671
210573
210485
210427
210393
191418
197819
197819
197819
197817
197811
197799
197777
197743
197692
197622
197527
197405
197255
197079
196884
196682
196498
196363
196262
178965
185131
185125
185114
185097
185072
185035
184982
184909
184810
184679
184511
184299
184041
183736
183392
183027
182680
182405
182176
166965
172903
172890
172869
172837
172791
172728
172642
172527
172375
172177
171923
171603
171206
170726
170165
169542
168912
168373
167893
155409
161123
161104
161072
161026
160960
160871
160752
160594
160387
160117
159769
159324
158760
158056
157194
156177
155053
153977
152947
144284
149782
149757
149716
149655
149571
149457
149306
149107
148846
148505
148062
147485
146737
145770
144525
142943
140995
138797
136364
133580
138867
138837
138786
138713
138612
138476
138296
138060
137750
137345
136813
136113
135185
133947
132277
129996
126839
122444
116146
135862
137903
137328
136544
135511
134415
133603
133719
134081
133271
135574
137491
137813
137837
138594
141016
144392
145755
146393
149725
151973
157219
152131
117178
88490.1
69394.8
57968.4
49741.1
45268.5
42194.7
39743.7
37024.5
35372.7
35296.5
36276.1
35659.5
34608.9
33564.4
33333.3
32109.2
30987.5
30834.2
30708.6
30270.8
30031.9
30177.8
30634.6
31025.4
31064.4
30644.1
28782.2
25473.4
27495.8
21854.8
20451.1
23072.8
30159.3
34222.3
35865
36467.1
130900
132924
132348
131577
130516
129410
128790
129302
130331
128965
128609
129804
130576
131449
133106
135679
139916
142357
144562
148405
150526
148936
133709
106856
82200
65526.9
54153.7
46599.6
41853.7
38209.4
36099.6
34331.5
33786.8
33143.5
31963.3
31403
30773.8
30271.8
29809.8
29327.2
29580.9
29097.7
28718.4
28511
28783.4
28332
28120
28186.2
27553.1
25682.7
23170.9
19737.1
21067.6
18446.2
18376.5
18096.4
24335
28420.7
30238.2
31068.9
126043
127971
127477
126727
125516
124487
123841
124084
125139
123994
124395
124538
125269
125676
126709
128409
136730
140747
143001
141971
133645
125068
112452
92745.1
72884.5
57892.7
47453.8
40452.9
35963.3
32787
30508.9
29142.3
28866
28201.4
27574.7
27305.4
26830.2
26074.9
25156.5
24574.1
24522.5
23996.3
23558.2
23406.6
23333.8
22948.2
22667.7
22562.5
21997.4
20632
18153.7
17928.8
18318
18381.2
18369.1
18341.5
20415.4
23378.6
24955.8
25719.1
121917
123709
123256
122032
121209
120444
119076
119219
119687
119506
120562
120178
120330
119995
120036
121806
131397
137564
130029
121163
112740
103702
92333.7
76942.1
61124.9
48470.6
39455.6
33349.1
29429.1
26761.4
24882.4
23710.7
23265
22846.6
22380.5
22021.9
21508.4
20810
20057
19457.4
19139.3
18650.3
18174.7
17906.4
17721.8
17395.3
17158.9
17160.3
16970
16421
16975.5
18133
18297.3
18357.8
18363.9
18360.3
17381.6
18827.7
19901.6
20444.4
117674
118926
118333
117609
117178
115882
113930
112251
114196
114386
117024
115797
115322
115037
115447
119910
126413
119969
111374
102037
92466.3
82587.4
71842.6
59477.2
47181.2
37223.8
30082.4
25272.9
22202.8
20192.1
18810.2
17922.6
17514.6
17235.9
16898.3
16546
16043.5
15411.5
14786.8
14209.6
13741.7
13216.4
12652.1
12293.1
12030
11681.4
11444.1
11702.6
12015.6
12159.4
14428.5
18199.2
18311.3
18344.6
18337.4
15786.8
13900.9
14421.4
14948.4
15180.1
112383
114014
113436
113053
112474
111341
109862
109894
109989
111169
113383
111606
111239
113395
114776
116396
111801
103249
93496.5
82700.2
71732.8
61023.5
50669
40544.9
31355.1
24296.4
19408.7
16244.5
14298.8
13097.8
12324.8
11815.7
11570.6
11434.8
11208.5
10916
10435.3
9840.87
9372.33
8845.89
8291.04
7717.73
6949.27
6506.9
6230.77
5760.29
5258.43
5826.73
7276.34
7837.02
9645.75
16400
18281.2
17850.9
14145
11126.5
10013.8
10021.1
10025.4
9897.05
106908
108879
108252
107978
107593
106768
107381
109661
109796
110306
109458
107748
109084
111983
112503
106710
97039.6
86955.3
75336.6
62829.6
50378.6
38786.9
28469.2
19862.7
13211.4
9290.1
7132.19
6051.59
5631.39
5410.91
5401.78
5381.59
5375.63
5420.17
5278.84
5111.36
4680.23
4038.4
3867.66
3445.25
2822.02
2379.83
1287.23
1019.04
953.266
724.219
5.6347
-15.2851
845.465
3312.94
4154.64
7555.99
9819.5
9394.33
7712.37
6544.71
5851.8
5676.13
5064.82
4577.31
101413
103405
102850
102597
102469
102410
103443
106741
108897
108134
104971
103996
104757
110624
108599
94791.2
83116.9
70630.8
56930.3
42584.1
28410.1
14992.7
4256.5
1064.45
219.275
39.1152
6.10006
11.8144
47.8818
131.124
244.132
344.027
418.169
536.437
506.383
504.943
389.654
-20.7135
-30.4441
-32.0825
-33.1873
-36.6725
-21.8947
-30.9922
-35.1362
-37.419
-38.0149
-40.6977
-49.999
-14.703
-203.15
-69.1226
2307.75
2754.71
1217.7
1853.18
1441.16
1241.46
87.9363
12.3421
95501.7
97736.3
97294.6
97184
97125.7
97534.8
98394.5
99721.2
101098
100988
99653.7
98939
99189.2
104387
96876.5
83073.9
69216
54401.8
38611.5
22080.5
5855.25
128.338
19.2043
2.99164
-5.37755
-12.7971
-20.4061
-26.2911
-30.5522
-33.7957
-36.6753
-39.5636
-46.9444
-47.019
-41.6183
-32.2222
-31.8548
-30.4594
-32.86
-35.9037
-37.6675
-39.1572
-37.2737
-38.6987
-41.7343
-44.1274
-45.2919
-48.0885
-53.745
-66.3072
-86.7936
-380.816
-1153.48
-1003.82
-236.781
-86.445
-52.6127
-68.4399
-72.3715
-74.8671
89040.2
91769.8
91668.1
91737.4
91569.5
91829.7
92576.3
93585.3
94544.1
94687.5
93664.1
92310.6
97430
99352
86151.1
71171.8
55387.4
38508.3
20441.8
2773.54
18.609
-0.129998
-5.97156
-13.3857
-21.3978
-27.6625
-33.2423
-37.7904
-41.0908
-43.37
-45.0047
-46.8226
-49.9723
-50.4796
-47.7948
-43.7207
-41.9599
-39.5262
-39.7633
-41.8233
-43.6258
-45.1752
-44.8525
-45.6002
-48.0898
-50.6037
-52.7784
-56.1106
-62.0194
-72.6169
-88.0161
-101.872
-99.5067
-74.2629
-67.8639
-77.1392
-74.305
-73.8885
-76.0732
-78.684
83170.4
85652
85698.5
85885.8
86123.3
86537.9
86814.2
87406.5
88206.6
88324.5
87002.8
88494.9
90442.9
88235.6
74975.4
59180.7
41779.4
22998.4
3463.64
13.2446
-12.4679
-17.0802
-24.4056
-30.6601
-36.3954
-41.0215
-44.9325
-48.0663
-50.3203
-51.8272
-52.8698
-53.9281
-55.6715
-56.3401
-54.7179
-51.7626
-49.6226
-47.6119
-47.1225
-48.2783
-49.8253
-51.2912
-51.8739
-52.7184
-54.8035
-57.3283
-60.0087
-63.6545
-69.4684
-78.5892
-90.5142
-96.731
-95.6756
-90.0373
-83.8366
-83.1049
-80.9112
-80.3841
-81.8034
-83.5536
77578.7
79721.6
79636.9
79835.9
80179.3
80580.1
80783.7
81354.9
82176.1
82184.5
80695.4
82107.7
89726.1
77674.4
63874.2
47278.1
28526.9
7062.96
-12.1643
-25.6377
-29.513
-36.0238
-41.6123
-46.2637
-50.2721
-53.5377
-56.1707
-58.1805
-59.5553
-60.3815
-60.8413
-61.2733
-62.0615
-62.4291
-61.3902
-59.3197
-57.3276
-55.5291
-54.7219
-55.2437
-56.4387
-57.7876
-58.7747
-59.8534
-61.7481
-64.2428
-67.1589
-70.9793
-76.4977
-84.3297
-93.68
-100.285
-100.846
-96.5506
-91.4306
-89.2614
-87.5631
-86.8659
-87.4874
-88.5155
71777
73799
73441.5
73646.2
74040.7
74378.5
74971.6
75982.5
76359.5
76483
75346.5
82964.1
78266
67614.9
53109.5
35703.7
15149.4
177.193
-33.6963
-40.1204
-47.2845
-52.5068
-56.6894
-60.1147
-62.9062
-65.1196
-66.798
-67.9603
-68.6327
-68.8803
-68.8394
-68.7736
-68.9248
-68.9328
-68.146
-66.6119
-64.8928
-63.3019
-62.392
-62.5415
-63.4084
-64.5937
-65.7628
-67.0241
-68.8546
-71.3196
-74.329
-78.1646
-83.3546
-90.1303
-97.748
-103.406
-104.719
-102.188
-98.3051
-95.7777
-94.0797
-93.2236
-93.2335
-93.6168
64139.2
67435.5
67011.3
67251.2
67883.4
68495
69602.6
70167.8
70510.9
70705.5
72021
73672.2
70951
57878.7
42797.8
24601.5
2908.9
-36.9822
-49.2657
-56.9127
-62.6769
-66.7156
-69.8565
-72.3195
-74.24
-75.6982
-76.7025
-77.2699
-77.4277
-77.2271
-76.7939
-76.3491
-76.0576
-75.7476
-75.0264
-73.8095
-72.3676
-70.9865
-70.1056
-70.0573
-70.6649
-71.7022
-72.9035
-74.2665
-76.1004
-78.5387
-81.5597
-85.3159
-90.1004
-96.009
-102.335
-107.151
-108.771
-107.369
-104.552
-102.195
-100.513
-99.4961
-99.0602
-98.8982
56121.2
60106.6
60183.6
60655.6
61438.6
62444.6
63254
63944.6
64504.3
65290
64061.7
71863.1
60623.6
48574.1
33080.8
13528.7
74.3343
-58.1481
-64.5498
-71.4474
-75.9184
-79.0399
-81.3214
-83.0512
-84.3657
-85.3063
-85.8691
-86.0529
-85.8626
-85.3474
-84.6399
-83.929
-83.3363
-82.7865
-82.0538
-81.0208
-79.8113
-78.6468
-77.8679
-77.7102
-78.1564
-79.0645
-80.2243
-81.6323
-83.4732
-85.8785
-88.837
-92.4275
-96.818
-101.986
-107.26
-111.326
-113.024
-112.396
-110.435
-108.442
-106.849
-105.722
-104.988
-104.392
48683.1
52492.9
52997.9
53808.3
54828.7
55628.4
56580.6
57521.4
58397.1
56755
64778.8
58586.8
52183.2
39750.5
24073.8
3473.35
-64.9949
-71.6154
-78.6216
-83.9339
-87.4196
-89.7348
-91.3505
-92.5488
-93.4477
-94.052
-94.3529
-94.312
-93.9092
-93.2044
-92.3366
-91.4641
-90.6868
-89.9789
-89.2148
-88.3006
-87.2836
-86.3256
-85.6491
-85.4688
-85.8204
-86.6244
-87.7227
-89.1154
-90.9569
-93.2918
-96.1229
-99.5084
-103.51
-108.009
-112.455
-115.877
-117.559
-117.44
-116.148
-114.563
-113.125
-111.96
-111.035
-110.12
42268.4
45480.5
45903
47054.4
48113.8
48715.6
49782.9
50917.9
51869.9
52955.2
53453.3
54657
43794.2
31594.6
15427.4
180.469
-77.2457
-84.4918
-90.7897
-94.8343
-97.4612
-99.1182
-100.254
-101.082
-101.69
-102.098
-102.258
-102.095
-101.587
-100.802
-99.8742
-98.9313
-98.0635
-97.2752
-96.4941
-95.6705
-94.8094
-94.0224
-93.4768
-93.3144
-93.6148
-94.3302
-95.3545
-96.7235
-98.5169
-100.744
-103.424
-106.566
-110.17
-114.093
-117.848
-120.779
-122.395
-122.602
-121.821
-120.61
-119.364
-118.237
-117.208
-116.088
35523.8
39024.2
40261.7
41239.9
41602.2
42579.7
43271.6
44312.4
45495.2
40956
48822.9
44199.8
36216.1
24171.7
7383.55
-30.9701
-90.8146
-96.533
-101.455
-104.488
-106.378
-107.567
-108.341
-108.895
-109.321
-109.621
-109.706
-109.491
-108.958
-108.181
-107.27
-106.331
-105.445
-104.641
-103.878
-103.129
-102.406
-101.772
-101.34
-101.223
-101.499
-102.136
-103.107
-104.436
-106.137
-108.236
-110.733
-113.619
-116.856
-120.252
-123.447
-126.005
-127.528
-127.946
-127.534
-126.651
-125.611
-124.569
-123.509
-122.284
30549.6
33597.2
34069.7
34246
34980.4
36083.1
37213.4
38142.9
40169.8
36895.9
46051.2
37707
29192.9
17554.1
1365.02
-106.133
-101.198
-107.315
-110.995
-113.226
-114.556
-115.36
-115.875
-116.242
-116.561
-116.798
-116.839
-116.613
-116.112
-115.399
-114.559
-113.677
-112.828
-112.055
-111.346
-110.679
-110.071
-109.563
-109.231
-109.174
-109.437
-110.025
-110.95
-112.212
-113.811
-115.764
-118.063
-120.692
-123.573
-126.524
-129.288
-131.523
-132.947
-133.505
-133.352
-132.74
-131.907
-130.978
-129.944
-128.686
25055
28964
27860
26597.5
28252.8
28926.5
30198
31443.1
30787.8
38999.2
30259.4
31142.6
22834
11488.8
100.564
-103.878
-112.457
-117.04
-119.755
-121.351
-122.247
-122.775
-123.092
-123.347
-123.61
-123.794
-123.8
-123.583
-123.143
-122.523
-121.786
-120.998
-120.225
-119.515
-118.877
-118.299
-117.791
-117.388
-117.148
-117.138
-117.405
-117.971
-118.851
-120.037
-121.526
-123.323
-125.422
-127.792
-130.342
-132.925
-135.331
-137.297
-138.625
-139.264
-139.3
-138.913
-138.274
-137.477
-136.51
-135.273
17226
21508.5
21391.8
21129.9
22092.2
22504.5
22945.5
24466.7
24821.7
26767.4
29492.6
24180.2
17231.6
6209.89
-77.7206
-119.722
-122.92
-126.124
-128.033
-129.102
-129.697
-130.017
-130.203
-130.413
-130.63
-130.754
-130.725
-130.524
-130.152
-129.632
-129.009
-128.333
-127.659
-127.03
-126.469
-125.977
-125.561
-125.249
-125.083
-125.117
-125.4
-125.955
-126.786
-127.892
-129.269
-130.915
-132.818
-134.94
-137.193
-139.454
-141.554
-143.291
-144.522
-145.202
-145.384
-145.19
-144.731
-144.072
-143.202
-142.033
9873.67
14743.6
16311.6
17139.3
16646.6
16155.7
15692.2
15809.8
22909.8
17380.7
24192.6
18938.3
12372.3
1978.38
-115.704
-128.491
-132.23
-134.672
-135.995
-136.688
-137.068
-137.239
-137.38
-137.567
-137.731
-137.798
-137.739
-137.553
-137.237
-136.805
-136.289
-135.725
-135.155
-134.615
-134.131
-133.715
-133.38
-133.144
-133.044
-133.124
-133.423
-133.962
-134.746
-135.773
-137.041
-138.544
-140.261
-142.15
-144.137
-146.114
-147.946
-149.486
-150.624
-151.322
-151.614
-151.574
-151.278
-150.765
-150.018
-148.955
5595.24
9684.49
11168.2
11685.2
10736.5
9658.35
8598.95
7325.49
6675.46
19968.9
15278
13972.7
8216.73
268.724
-145.576
-137.99
-141.294
-142.892
-143.785
-144.237
-144.461
-144.564
-144.698
-144.862
-144.968
-144.992
-144.923
-144.755
-144.484
-144.118
-143.681
-143.207
-142.73
-142.277
-141.87
-141.525
-141.257
-141.088
-141.044
-141.161
-141.471
-141.993
-142.731
-143.683
-144.847
-146.215
-147.759
-149.438
-151.187
-152.916
-154.517
-155.885
-156.937
-157.639
-158.006
-158.088
-157.935
-157.563
-156.951
-156.021
2045.08
4628.47
4159.83
4931.09
4691.16
3153.85
1776.65
1438.67
6152.83
15572
13068.3
9923.12
4780.72
-64.4615
-138.746
-147.74
-149.7
-150.902
-151.511
-151.817
-151.947
-152.025
-152.148
-152.263
-152.332
-152.337
-152.269
-152.123
-151.897
-151.591
-151.224
-150.824
-150.419
-150.034
-149.691
-149.405
-149.196
-149.084
-149.087
-149.234
-149.548
-150.05
-150.744
-151.628
-152.695
-153.935
-155.323
-156.816
-158.356
-159.869
-161.276
-162.497
-163.467
-164.156
-164.572
-164.746
-164.71
-164.466
-163.991
-163.215
-604.637
-30.2529
-407.279
-267.558
-296.249
-348.378
-253.339
131.16
1724.73
7450.23
9225.66
6664.49
2246.93
-147.629
-155.698
-156.852
-158.054
-158.84
-159.259
-159.471
-159.552
-159.612
-159.715
-159.803
-159.85
-159.842
-159.775
-159.652
-159.462
-159.205
-158.898
-158.564
-158.226
-157.906
-157.623
-157.388
-157.222
-157.148
-157.183
-157.35
-157.666
-158.145
-158.795
-159.614
-160.592
-161.717
-162.964
-164.293
-165.652
-166.982
-168.226
-169.319
-170.208
-170.871
-171.312
-171.548
-171.601
-171.467
-171.131
-170.531
-653.212
-597.427
-731.835
-765.993
-645.814
-578.806
-407.424
-154.533
-237.984
3612.11
5288.93
3954.07
524.847
-147.993
-164.827
-165.294
-166.27
-166.781
-167.071
-167.227
-167.268
-167.335
-167.421
-167.488
-167.517
-167.501
-167.439
-167.335
-167.175
-166.958
-166.702
-166.424
-166.145
-165.883
-165.656
-165.47
-165.344
-165.304
-165.364
-165.541
-165.847
-166.296
-166.897
-167.65
-168.548
-169.57
-170.69
-171.875
-173.08
-174.257
-175.36
-176.339
-177.153
-177.781
-178.226
-178.499
-178.611
-178.565
-178.359
-177.96
-729.839
-713.289
-759.856
-742.515
-709.264
-637.53
-544.569
-445.606
-608.737
-180.114
2353.66
1801.22
-48.9835
-188.848
-172.616
-174.078
-174.456
-174.782
-174.986
-175.096
-175.13
-175.192
-175.266
-175.316
-175.334
-175.313
-175.26
-175.171
-175.034
-174.851
-174.638
-174.409
-174.182
-173.971
-173.789
-173.647
-173.56
-173.549
-173.629
-173.813
-174.109
-174.53
-175.083
-175.766
-176.577
-177.5
-178.509
-179.57
-180.644
-181.692
-182.674
-183.553
-184.293
-184.88
-185.315
-185.601
-185.745
-185.755
-185.651
-185.483
-771.366
-789.956
-799.866
-777.885
-750.633
-698.004
-649.184
-508.927
-2144.12
-1472.49
545.161
286.929
-106.376
-180.591
-182.185
-182.419
-182.659
-182.874
-183.032
-183.086
-183.129
-183.194
-183.255
-183.292
-183.3
-183.281
-183.235
-183.156
-183.038
-182.886
-182.712
-182.526
-182.342
-182.174
-182.032
-181.928
-181.874
-181.888
-181.984
-182.172
-182.459
-182.854
-183.362
-183.982
-184.712
-185.539
-186.44
-187.386
-188.347
-189.284
-190.164
-190.952
-191.625
-192.167
-192.579
-192.86
-193.012
-193.043
-192.977
-192.913
-843.249
-826.501
-822.761
-812.716
-793.301
-770.477
-745.129
-696.065
-3762.24
-1856.8
-380.998
-532.594
-203.611
-185.685
-191.033
-190.783
-190.933
-191.084
-191.207
-191.24
-191.281
-191.339
-191.388
-191.415
-191.417
-191.399
-191.359
-191.289
-191.189
-191.065
-190.926
-190.776
-190.63
-190.498
-190.391
-190.318
-190.292
-190.326
-190.435
-190.625
-190.901
-191.272
-191.74
-192.306
-192.963
-193.701
-194.505
-195.347
-196.2
-197.036
-197.823
-198.533
-199.143
-199.639
-200.021
-200.285
-200.43
-200.456
-200.369
-200.154
-857.147
-891.465
-870.562
-851.895
-839.094
-813.759
-778.728
-983.645
-3744.95
-1775.77
-810.499
-824.538
-196.191
-201.851
-199.383
-199.287
-199.316
-199.43
-199.505
-199.541
-199.583
-199.631
-199.669
-199.687
-199.685
-199.668
-199.633
-199.572
-199.49
-199.392
-199.281
-199.163
-199.05
-198.948
-198.87
-198.824
-198.821
-198.873
-198.99
-199.178
-199.443
-199.791
-200.223
-200.74
-201.334
-201.995
-202.712
-203.46
-204.218
-204.961
-205.662
-206.297
-206.848
-207.299
-207.648
-207.892
-208.024
-208.042
-207.941
-207.694
-916.232
-890.317
-896.289
-886.793
-869.661
-839.105
-826.794
-2144.97
-3228.48
-1532.53
-1029.02
-541.453
-220.656
-207.958
-208.135
-207.851
-207.835
-207.924
-207.958
-207.993
-208.033
-208.07
-208.097
-208.109
-208.105
-208.088
-208.058
-208.009
-207.944
-207.866
-207.78
-207.691
-207.604
-207.529
-207.475
-207.452
-207.467
-207.532
-207.655
-207.841
-208.094
-208.419
-208.817
-209.289
-209.827
-210.422
-211.062
-211.728
-212.403
-213.064
-213.688
-214.257
-214.75
-215.158
-215.475
-215.699
-215.821
-215.843
-215.767
-215.62
-996.688
-921.729
-924.271
-916.174
-897.2
-869.235
-790.934
-3918.12
-2452.27
-1280.65
-1163.44
-121.126
-221.397
-217.518
-216.913
-216.57
-216.517
-216.563
-216.583
-216.606
-216.635
-216.661
-216.678
-216.684
-216.679
-216.666
-216.641
-216.602
-216.552
-216.492
-216.427
-216.361
-216.298
-216.245
-216.214
-216.209
-216.239
-216.314
-216.44
-216.622
-216.861
-217.163
-217.531
-217.962
-218.45
-218.986
-219.559
-220.155
-220.756
-221.346
-221.904
-222.414
-222.857
-223.225
-223.514
-223.721
-223.84
-223.878
-223.847
-223.773
-948.314
-986.053
-962.719
-947.976
-929.274
-895.106
-1300.73
-3407.31
-1788.87
-1100.82
-1142.13
-220.211
-223.429
-226.623
-225.71
-225.43
-225.363
-225.343
-225.351
-225.368
-225.387
-225.404
-225.413
-225.415
-225.41
-225.4
-225.381
-225.352
-225.314
-225.27
-225.223
-225.175
-225.132
-225.1
-225.086
-225.096
-225.139
-225.221
-225.348
-225.526
-225.752
-226.032
-226.371
-226.764
-227.207
-227.69
-228.206
-228.74
-229.278
-229.805
-230.306
-230.763
-231.162
-231.495
-231.761
-231.957
-232.076
-232.127
-232.12
-232.074
-1038.42
-1050.79
-1011.46
-982.761
-956.577
-893.731
-3179.79
-2406.85
-1306.29
-1037.34
-905.729
-234.571
-236.82
-235.213
-234.701
-234.431
-234.354
-234.304
-234.292
-234.291
-234.298
-234.305
-234.307
-234.306
-234.301
-234.295
-234.282
-234.26
-234.233
-234.202
-234.17
-234.138
-234.113
-234.097
-234.097
-234.12
-234.172
-234.26
-234.387
-234.559
-234.772
-235.033
-235.344
-235.703
-236.106
-236.543
-237.008
-237.488
-237.97
-238.444
-238.891
-239.301
-239.661
-239.963
-240.209
-240.393
-240.512
-240.573
-240.585
-240.561
-1070
-1062.67
-1040.51
-1015.62
-985.09
-1293.78
-2945.94
-1592.96
-1003.62
-1068.99
-205.431
-256.894
-244.967
-244.359
-243.81
-243.581
-243.471
-243.41
-243.382
-243.37
-243.368
-243.367
-243.364
-243.359
-243.355
-243.352
-243.343
-243.329
-243.312
-243.292
-243.272
-243.253
-243.242
-243.24
-243.252
-243.285
-243.345
-243.436
-243.562
-243.727
-243.929
-244.172
-244.459
-244.787
-245.154
-245.549
-245.969
-246.401
-246.834
-247.259
-247.66
-248.028
-248.352
-248.626
-248.853
-249.026
-249.143
-249.211
-249.236
-249.227
-1084.71
-1081.77
-1064.95
-1042.49
-984.931
-2867.69
-1926.95
-1107.57
-858.044
-1086.52
-191.913
-251.705
-254.263
-253.418
-253.061
-252.885
-252.744
-252.677
-252.637
-252.615
-252.602
-252.593
-252.585
-252.579
-252.575
-252.573
-252.568
-252.561
-252.553
-252.543
-252.532
-252.524
-252.525
-252.534
-252.556
-252.597
-252.663
-252.757
-252.88
-253.038
-253.229
-253.457
-253.722
-254.022
-254.354
-254.713
-255.093
-255.481
-255.87
-256.253
-256.612
-256.942
-257.234
-257.484
-257.692
-257.854
-257.968
-258.04
-258.073
-258.074
-1098.47
-1099.77
-1096.45
-1042.68
-1927.86
-2140.97
-1258.2
-830.156
-870.738
-783.648
-265.891
-264.33
-263.256
-262.713
-262.46
-262.316
-262.181
-262.101
-262.05
-262.02
-262.001
-261.985
-261.974
-261.967
-261.962
-261.962
-261.961
-261.96
-261.958
-261.955
-261.952
-261.954
-261.964
-261.982
-262.013
-262.061
-262.131
-262.226
-262.346
-262.497
-262.678
-262.89
-263.135
-263.41
-263.713
-264.038
-264.381
-264.731
-265.081
-265.424
-265.747
-266.043
-266.307
-266.533
-266.724
-266.875
-266.984
-267.056
-267.094
-267.102
-1204.43
-1174.21
-1122.77
-1424.22
-2152.56
-1418.22
-881.183
-681.681
-946.641
-117.038
-279.165
-273.679
-272.633
-272.176
-272.01
-271.87
-271.767
-271.689
-271.631
-271.595
-271.57
-271.549
-271.534
-271.526
-271.522
-271.523
-271.524
-271.527
-271.531
-271.534
-271.539
-271.549
-271.567
-271.592
-271.631
-271.684
-271.755
-271.849
-271.967
-272.111
-272.281
-272.479
-272.704
-272.956
-273.233
-273.529
-273.839
-274.155
-274.469
-274.777
-275.067
-275.333
-275.571
-275.776
-275.95
-276.09
-276.193
-276.263
-276.304
-276.317
-1552.38
-1270.61
-1418.85
-2114.82
-1456.14
-907.322
-601.953
-674.409
-796.095
-260.725
-285.446
-282.884
-282.056
-281.806
-281.694
-281.59
-281.509
-281.433
-281.375
-281.338
-281.309
-281.285
-281.268
-281.259
-281.255
-281.257
-281.26
-281.267
-281.276
-281.284
-281.296
-281.312
-281.336
-281.367
-281.411
-281.467
-281.54
-281.632
-281.745
-281.882
-282.042
-282.226
-282.433
-282.664
-282.918
-283.188
-283.467
-283.752
-284.035
-284.312
-284.573
-284.812
-285.026
-285.211
-285.369
-285.498
-285.594
-285.662
-285.704
-285.719
-3643.51
-1810.75
-1473.05
-1070.86
-652.405
-305.928
-265.413
-691.16
-176.835
-300.15
-292.582
-292.011
-291.701
-291.601
-291.516
-291.458
-291.4
-291.338
-291.285
-291.248
-291.218
-291.194
-291.177
-291.167
-291.165
-291.168
-291.172
-291.182
-291.194
-291.208
-291.225
-291.247
-291.276
-291.311
-291.357
-291.415
-291.489
-291.577
-291.685
-291.816
-291.965
-292.135
-292.325
-292.537
-292.77
-293.015
-293.27
-293.526
-293.78
-294.029
-294.264
-294.48
-294.672
-294.838
-294.983
-295.101
-295.19
-295.255
-295.296
-295.313
123284
128366
128331
128273
128189
128073
127918
127714
127447
127098
126639
126035
125233
124157
122690
120648
117709
113248
105814
92053.2
113111
118178
118138
118074
117981
117854
117684
117461
117170
116790
116293
115639
114769
113598
111994
109740
106456
101391
93008.2
78056.6
102965
108017
107974
107905
107804
107668
107486
107249
106942
106543
106023
105342
104443
103239
101606
99345.8
96140.9
91458.6
84425.3
73559.7
92849.8
97884.8
97839.9
97766.6
97661.2
97518
97329
97083.4
96766.6
96358.4
95831.5
95147.6
94253.9
93075.3
91505.7
89391.8
86510.5
82533.3
76986.2
69290.7
82766
87784.4
87737.8
87662.1
87553.4
87406.3
87213.3
86964
86644.7
86237
85715.9
85047.8
84187.2
83072.5
81620.9
79721.6
77227.4
73945.6
69641.7
64132.1
72714.7
77716.4
77669
77592
77481.9
77333.5
77139.6
76890.8
76574.8
76174.9
75669.5
75029.9
74218.8
73187.7
71875
70203.3
68078.9
65393.1
62034.6
57936.2
62696.2
67681.4
67634
67556.9
67447
67299.3
67107.3
66862.6
66554
66167.2
65683.5
65079.3
64324.7
63382.5
62207.5
60746.8
58941.3
56729.4
54056.8
50897.9
52710.5
57679.6
57632.8
57556.8
57448.5
57303.3
57115.4
56877.2
56578.9
56208.2
55749.4
55183
54485.2
53627.7
52577.4
51298.2
49752.7
47905.9
45730.4
43216.7
42756.9
47710.7
47665.2
47591.4
47485.8
47344.5
47162.2
46932.2
46646
46292.9
45859.8
45330.5
44686
43904
42960.2
41829.6
40489.2
38920.3
37109
35050.6
32833.9
37773.7
37730.7
37660
37558.3
37421.8
37246.1
37025.3
36751.9
36416.8
36008.9
35514.7
34918.1
34200.8
33343.5
32329
31145.9
29787.6
28248.8
26523
22938.4
27867.4
27828.7
27762.4
27665.1
27534.1
27365.6
27154.1
26893.6
26576.1
26192.3
25731
25177.7
24514.8
23724.2
22794.2
21725.8
20529.9
19208.7
17746.7
13061.5
17990.6
17960.1
17898.5
17805.6
17680.4
17519.2
17317
17068.6
16767.8
16407.2
15977.9
15467.6
14855
14115.6
13245.1
12266.9
11215.1
10097.4
8884.43
3162.04
8145.53
8125.13
8067.22
7979.54
7861.07
7707.18
7513.61
7276.44
6991.04
6651.47
6255.31
5800.83
5245.74
4527.77
3677.22
2816.19
2066.69
1444.31
940.63
-429.864
183.041
175.239
146.177
103.481
50.0183
-11.8304
-79.6244
-151.438
-225.44
-298.957
-367.905
-420.85
-427.833
-426.746
-426.876
-426.659
-425.44
-422.209
-422.903
-439.348
-434.128
-434.168
-434.173
-434.169
-434.158
-434.15
-434.151
-434.161
-434.19
-434.247
-434.337
-434.274
-434.633
-434.805
-434.841
-434.752
-434.553
-434.328
-434.152
-448.988
-443.973
-443.99
-443.994
-443.992
-443.991
-443.995
-444.005
-444.021
-444.041
-444.06
-444.07
-444.065
-444.094
-444.131
-444.16
-444.174
-444.177
-444.163
-444.167
-458.757
-453.83
-453.82
-453.817
-453.814
-453.814
-453.818
-453.826
-453.838
-453.851
-453.862
-453.87
-453.872
-453.876
-453.889
-453.909
-453.933
-453.955
-453.97
-453.987
-468.558
-463.648
-463.64
-463.634
-463.631
-463.631
-463.634
-463.641
-463.65
-463.659
-463.667
-463.675
-463.683
-463.692
-463.703
-463.718
-463.735
-463.754
-463.773
-463.795
-478.363
-473.456
-473.451
-473.446
-473.443
-473.442
-473.444
-473.451
-473.459
-473.466
-473.473
-473.481
-473.491
-473.501
-473.511
-473.523
-473.537
-473.554
-473.574
-473.597
-488.166
-483.262
-483.259
-483.255
-483.251
-483.249
-483.252
-483.258
-483.265
-483.271
-483.278
-483.287
-483.297
-483.308
-483.317
-483.328
-483.341
-483.357
-483.375
-483.397
-497.968
-493.065
-493.063
-493.06
-493.057
-493.056
-493.058
-493.063
-493.069
-493.075
-493.082
-493.09
-493.101
-493.111
-493.121
-493.131
-493.144
-493.159
-493.176
-493.198
-507.765
-502.865
-502.864
-502.863
-502.862
-502.861
-502.864
-502.868
-502.873
-502.879
-502.885
-502.893
-502.902
-502.913
-502.923
-502.934
-502.946
-502.961
-502.977
-502.997
-517.551
-512.659
-512.662
-512.664
-512.665
-512.666
-512.668
-512.672
-512.678
-512.683
-512.689
-512.695
-512.703
-512.713
-512.724
-512.736
-512.749
-512.763
-512.778
-512.797
-527.318
-522.45
-522.459
-522.464
-522.467
-522.47
-522.473
-522.477
-522.482
-522.487
-522.492
-522.498
-522.506
-522.515
-522.525
-522.537
-522.55
-522.563
-522.579
-522.596
39179.9
38621
37705.1
37972.6
41488.4
47377.8
54501.4
61537.3
67312.3
70998.9
72077.6
70264.3
65164.9
55670.5
38204.8
48602.4
32814.6
27997.7
27793.2
30747
36027
42619.7
49201.4
54607.4
58017.8
58942.7
57120
52279.7
43948.5
31779
57663.9
38693.7
27684.3
23653.4
24541.3
28639.9
34262.5
39948.6
44535.7
47292.2
47854.2
46089.6
41967.6
35562.9
27318.5
59605.7
47364.4
37158.7
30768.8
28350.2
29071.2
31754.6
34909.7
37468.9
38798.2
38582.2
36718.2
33241.8
28336.8
22432.6
57343
49305.3
41889.9
36189.1
32639.9
31098.9
31030.6
31588.8
32040.9
31890.4
30837.6
28749.5
25633.4
21640.9
17089.6
53012.3
47239.4
41646.9
36846.5
33165.9
30649.5
29053.8
27980.7
26998.5
25758.1
24022.9
21673.8
18706.4
15219.2
11397.9
47189.1
42830
38443.8
34381.1
30871.8
27997.9
25665.6
23686.6
21822.6
19856.1
17627.7
15045.6
12079.7
8772.19
5279.61
40309.5
36884.1
33339
29872.5
26646.2
23722.5
21085.1
18651.7
16302
13903
11321.4
8471
5375.25
2253.78
171.151
32691.6
29904.3
26960.8
23979.6
21053.9
18244.3
15563.9
12971.9
10369.5
7647.22
4764.45
1946.99
59.1815
-387.097
-374.119
24553.4
22215.3
19723.9
17148.1
14542.4
11940.4
9310.96
6610.74
3829.52
1440.28
-202.102
-391.276
-383.392
-386.959
-386.54
16085.4
14111.4
11992.4
9719.02
7334.56
4822.55
2410.15
720.242
-402.02
-392.755
-393.667
-396.672
-396.07
-396.067
-396.175
7452.49
5657.72
3776.21
2002.03
710.764
-376.731
-414.885
-400.911
-405.253
-406.309
-405.566
-405.699
-405.782
-405.861
-405.946
276.265
-335.934
-427.96
-414.58
-411.765
-414.457
-416.222
-415.178
-415.187
-415.327
-415.404
-415.488
-415.562
-415.629
-415.7
-423.158
-424.58
-425.629
-425.352
-424.653
-424.745
-424.897
-424.954
-425.033
-425.11
-425.18
-425.248
-425.318
-425.386
-425.455
-434.18
-434.408
-434.513
-434.573
-434.593
-434.647
-434.699
-434.753
-434.815
-434.881
-434.948
-435.012
-435.078
-435.143
-435.208
-444.211
-444.269
-444.306
-444.349
-444.391
-444.439
-444.489
-444.542
-444.598
-444.656
-444.717
-444.779
-444.84
-444.902
-444.963
-454.016
-454.059
-454.103