/*--------------------------------*- C++ -*----------------------------------*\
| =========                 |                                                 |
| \\      /  F ield         | OpenFOAM: The Open Source CFD Toolbox           |
|  \\    /   O peration     | Version:  v1912                                 |
|   \\  /    A nd           | Website:  www.openfoam.com                      |
|    \\/     M anipulation  |                                                 |
\*---------------------------------------------------------------------------*/
FoamFile
{
    version     2.0;
    format      ascii;
    class       volScalarField;
    location    "44";
    object      p_rgh;
}
// * * * * * * * * * * * * * * * * * * * * * * * * * * * * * * * * * * * * * //

dimensions      [1 -1 -2 0 0 0 0];


internalField   nonuniform List<scalar> 
20320
(
434570
434645
434672
434723
434795
434883
434986
435100
435225
435355
435489
435622
435753
435877
435993
436097
436187
436261
436316
436347
434457
434555
434590
434644
434716
434806
434909
435024
435149
435280
435414
435547
435678
435802
435917
436020
436107
436177
436227
436259
434233
434371
434407
434462
434534
434624
434727
434843
434967
435098
435231
435364
435494
435617
435731
435832
435918
435986
436036
436067
433924
434103
434137
434192
434264
434352
434455
434570
434693
434823
434955
435087
435215
435336
435447
435547
435632
435700
435750
435785
433543
433756
433790
433843
433914
434001
434103
434216
434337
434465
434595
434725
434851
434969
435078
435175
435259
435326
435377
435416
433099
433342
433375
433427
433496
433581
433680
433790
433909
434034
434161
434288
434411
434526
434632
434726
434807
434873
434924
434965
432602
432870
432902
432952
433018
433100
433195
433301
433416
433537
433660
433782
433901
434013
434115
434205
434282
434345
434395
434438
432063
432350
432380
432428
432491
432568
432658
432759
432868
432982
433099
433215
433327
433433
433529
433613
433685
433744
433793
433837
431490
431792
431820
431864
431922
431994
432077
432170
432270
432376
432483
432590
432693
432789
432876
432953
433017
433070
433115
433158
430893
431205
431230
431269
431321
431385
431460
431543
431632
431725
431819
431912
432002
432084
432158
432221
432274
432318
432357
432397
430281
430598
430619
430653
430697
430752
430815
430884
430958
431035
431111
431185
431254
431317
431370
431415
431450
431480
431509
431543
429662
429979
429997
430023
430059
430101
430150
430202
430257
430311
430363
430411
430452
430485
430509
430524
430533
430539
430552
430575
429045
429358
429371
429389
429414
429442
429473
429505
429535
429562
429582
429594
429596
429586
429566
429537
429504
429475
429461
429464
428438
428743
428749
428759
428771
428783
428794
428801
428802
428793
428772
428737
428686
428617
428533
428438
428340
428252
428194
428160
427848
428141
428141
428141
428139
428133
428121
428099
428065
428015
427944
427849
427727
427577
427401
427206
427004
426820
426685
426585
427281
427558
427552
427542
427525
427500
427462
427410
427336
427237
427107
426939
426727
426469
426164
425819
425455
425107
424832
424604
426742
427002
426990
426968
426936
426891
426828
426742
426627
426475
426277
426023
425702
425305
424825
424264
423642
423012
422472
421992
426236
426477
426458
426426
426379
426314
426225
426105
425947
425740
425471
425123
424678
424114
423410
422548
421530
420407
419330
418301
425767
425986
425961
425920
425859
425775
425661
425510
425311
425050
424709
424266
423689
422941
421974
420729
419147
417199
415001
412568
425335
425533
425502
425452
425379
425278
425142
424962
424726
424416
424011
423479
422778
421851
420612
418943
416662
413505
409110
402812
139680
139174
138601
137762
136729
135651
134877
134994
135337
134485
136825
138719
139052
139049
139762
142243
145666
147029
147445
150137
151987
157234
152252
117500
88938.8
69811.3
59001.9
50390.7
45918.1
43445.1
41002.5
37433.7
35712.1
35936.5
37549.8
36933.2
35882.6
34834.9
34601.3
32218.2
31084.1
31256.6
31131
30405.7
30039.2
30185.1
30641.9
31032.8
31080.3
30713.4
29052.7
26341.4
28339
23036
21632.6
24332.8
31433.4
35496.4
37139.1
37740.4
139885
139316
138740
137969
136900
135801
135182
135694
136471
135116
134267
136183
136854
137806
139460
142066
146307
144362
144569
148411
152098
155328
140101
113248
88591.6
71918.5
60542.4
52970.9
48244.7
44443.6
42336.9
40035.7
37590.6
39399.9
38353
35391.8
31593.9
31092
34276.9
34987.7
33315.9
34804.4
34854.9
33991.5
33661
34279.3
34511.5
34577.8
33944.8
32074.2
29562.5
26128.7
25550.9
18452.6
18382.9
20456.8
30726.6
34812.3
36629.8
37460.5
138272
138291
137371
138125
137055
135039
134904
133699
136515
132657
134016
134574
134964
137103
138236
140009
142901
140759
144889
153572
145246
136669
124053
104346
84485.4
69493.6
59054.7
52053.8
47564.2
44387.9
42109.8
40743.2
40467
39768
38927
38868.8
38431.1
37675.8
36757.4
36175
36123.4
35597.2
35159.1
35007.5
34934.7
34549.1
34268.6
34163.4
33598.2
32232.9
29754.7
18772.4
18329.6
18392.8
18381
18353.1
31995.9
34979.5
36556.7
37320
136228
139111
139517
138806
134097
133222
135953
134558
136591
130416
132408
135276
136385
136898
136940
130278
131414
144948
146932
138067
129644
120606
109237
93845.7
78028.5
65374.2
56359.2
50252.7
46332.7
43665
41786
40614.3
40168.6
39750.2
39284
38925.5
38412
37713.6
36960.6
36361
36042.9
35553.9
35078.3
34810
34625.4
34298.9
34062.5
34063.9
33873.6
33324.6
32896.1
18149.9
18330.8
18388.3
18380.8
20756.1
34285.2
35731.3
36805.2
37348
139607
141228
140066
136052
135777
138184
136204
126532
136498
132197
132023
138099
137624
125686
115470
119932
140407
142270
133675
124338
114768
104889
94143.9
81778.6
69482.5
59525.1
52383.7
47574.3
44504.1
42493.4
41111.5
40223.9
39815.9
39537.2
39199.5
38847.3
38344.7
37712.8
37088.1
36510.8
36043
35517.7
34953.4
34594.4
34331.3
33982.7
33745.4
34003.9
34316.9
34460.7
36126.5
18221.5
18333.7
18366.9
18359.7
36017.4
36202.2
36722.7
37249.6
37481.4
142963
140466
140815
139080
139312
139137
131711
110131
111543
111502
131534
138191
136825
113423
114804
126092
139597
131045
121292
110496
99528.6
88819.4
78464.9
68340.8
59151
52092.3
47204.6
44040.3
42094.6
40893.7
40120.7
39611.6
39366.4
39230.7
39004.3
38711.9
38231.1
37636.7
37168.2
36641.7
36086.9
35513.6
34745.1
34302.8
34026.6
33556.1
33054.3
33622.6
35072.2
35632.9
37441.6
26747.7
18309
21469.3
41790
38922.4
37809.6
37817
37821.2
37692.9
142131
139653
141641
141326
140886
140156
122981
109945
110080
110590
142819
137199
133054
112016
112536
140099
130429
120344
108726
96218.6
83767.5
72175.8
61858.1
53251.7
46600.3
42679
40521.1
39440.6
39020.3
38799.8
38790.7
38770.5
38764.6
38809.1
38667.8
38500.3
38069.2
37427.3
37256.6
36834.2
36208.3
35732.9
33884
31265.4
29322.1
22971.9
525.386
47.4493
8090.97
36598.6
37543.5
40945
43208.4
42783.3
41101.3
39933.6
39240.8
39065.1
38453.8
37966.2
141770
142484
141927
141680
141551
131087
135900
139455
116225
132729
143555
141135
117157
110664
141835
133873
122199
109713
96012.6
81666.4
67492.4
54075
38773.6
19580.8
6195.24
1691.32
1096.05
1801.3
3425.74
5901.48
8697.94
11854.7
15585.4
22992.3
24084.1
24120.6
19577.7
301.172
8.63821
6.99978
5.89496
2.40983
17.1876
8.09005
3.94603
1.66327
1.06739
-1.6154
-10.9167
753.667
33456
39013.2
41390
41837
40300
40813.1
37135.7
30646.5
1922.45
1630.31
141476
141087
141283
138664
142003
142413
143272
144594
145976
145866
140408
143817
99428
105547
141754
127952
114094
99279.6
83489.4
66958.3
45203
1073.96
64.0821
47.8694
39.5003
32.0807
24.4717
18.5867
14.3257
11.0821
8.20249
5.31421
-2.06663
-2.14117
3.25957
12.6556
13.023
14.4184
12.0178
8.97407
7.21035
5.72068
7.60411
6.17911
3.14354
0.750384
-0.413975
-3.21069
-8.31009
-20.313
-41.9158
1540.92
37944.6
40969.3
1644.76
-41.5673
-7.7349
-23.5621
-27.4937
-29.9893
130937
142547
140720
141843
142150
135189
142273
144362
145321
141718
144015
138667
97480.8
141508
136928
121949
106165
89285.5
71219
36441
69.3862
50.6472
44.8056
37.3914
29.3794
23.1147
17.5349
12.9867
9.68636
7.40715
5.77252
3.95455
0.804875
0.297544
2.98229
7.05646
8.8173
11.2509
11.0139
8.95392
7.15137
5.60196
5.92464
5.17706
2.68737
0.173396
-2.00122
-5.33342
-11.2423
-21.8397
-37.2387
-51.095
-48.7295
-23.4857
-17.0867
-26.362
-23.5279
-23.1113
-25.296
-27.9069
124192
142434
140886
142668
138201
137417
143596
144189
144579
145043
143725
108628
90499.7
145018
131758
115963
98561.7
79780.8
42906.4
70.0269
44.3145
39.7022
32.3767
26.1223
20.3869
15.7607
11.8498
8.71598
6.46209
4.95505
3.91248
2.85433
1.11078
0.442205
2.06439
5.01974
7.1597
9.17041
9.65986
8.50406
6.95701
5.49117
4.90845
4.06394
1.97882
-0.545939
-3.22637
-6.87214
-12.6861
-21.8069
-33.7318
-39.9488
-38.8932
-33.2549
-27.0542
-26.3226
-24.1289
-23.6017
-25.0211
-26.7713
122813
142214
141033
142703
143075
143475
143679
137393
143059
144320
143445
82170.6
122962
140570
126769
110173
91422.1
68370.4
50.7309
37.2575
33.3822
26.8714
21.2829
16.6316
12.6231
9.35758
6.72445
4.71467
3.33991
2.51363
2.05394
1.62189
0.833764
0.466168
1.50499
3.5755
5.56759
7.36612
8.17321
7.6515
6.45654
5.10768
4.12055
3.04174
1.14712
-1.34762
-4.26372
-8.08413
-13.6025
-21.4345
-30.7848
-37.39
-37.951
-33.6554
-28.5355
-26.3662
-24.6679
-23.9707
-24.5922
-25.6203
141431
140193
142558
142655
141456
143369
130213
130705
144923
144885
121628
83033.2
143976
136733
122227
104821
84267.1
5783.16
35.4214
28.9973
21.8332
16.6108
12.4283
9.00301
6.21147
3.99813
2.3197
1.15748
0.485011
0.237394
0.278297
0.344171
0.19296
0.184927
0.971772
2.50582
4.22491
5.81575
6.72567
6.57619
5.70926
4.52403
3.35488
2.09362
0.263094
-2.20196
-5.2113
-9.0469
-14.2369
-21.0126
-28.6303
-34.2882
-35.6011
-33.0705
-29.1874
-26.66
-24.962
-24.1058
-24.1158
-24.4991
142785
141912
142462
142702
143097
126993
126841
143790
143442
146157
81716.7
73747.7
146403
133331
118249
100053
55108.7
38.4696
26.186
18.539
12.7749
8.7361
5.59525
3.13224
1.21176
-0.24644
-1.25073
-1.81813
-1.97594
-1.77524
-1.34215
-0.897377
-0.605885
-0.295881
0.425338
1.64217
3.08425
4.46523
5.34621
5.39449
4.78684
3.74953
2.54822
1.18529
-0.648685
-3.08692
-6.10796
-9.86422
-14.6487
-20.5572
-26.8831
-31.6988
-33.3193
-31.9175
-29.0999
-26.7438
-25.0613
-24.0444
-23.6085
-23.4464
141277
142006
142083
137559
143039
142077
145153
143331
146404
146756
64143.6
121497
142523
130473
114980
95428.2
3061.08
23.7513
17.3496
10.452
5.981
2.8596
0.578049
-1.15183
-2.46634
-3.407
-3.96972
-4.15344
-3.96324
-3.448
-2.74049
-2.02963
-1.43695
-0.887004
-0.15441
0.878585
2.08811
3.25258
4.0315
4.18924
3.74301
2.83493
1.6751
0.267136
-1.57385
-3.97903
-6.93759
-10.5281
-14.9186
-20.0866
-25.361
-29.4265
-31.1243
-30.4971
-28.5356
-26.5425
-24.9493
-23.8225
-23.0891
-22.4922
115332
140956
141461
140372
142909
143512
143076
144959
146859
126685
64867.3
141609
140646
128213
112536
77831.4
23.4678
16.8473
9.84108
4.52879
1.04307
-1.27217
-2.88789
-4.08609
-4.98504
-5.5894
-5.89018
-5.84939
-5.44654
-4.74174
-3.87396
-3.00151
-2.22414
-1.51629
-0.752188
0.162125
1.17908
2.13701
2.81356
2.99381
2.64226
1.83832
0.739909
-0.652711
-2.49422
-4.82914
-7.66021
-11.0457
-15.0478
-19.5463
-23.9923
-27.4146
-29.096
-28.9773
-27.6858
-26.1004
-24.6624
-23.4973
-22.5724
-21.6569
132903
139296
138930
102710
143257
140854
143308
146062
147005
99702
53548.5
149801
138938
126738
110571
13051.7
17.8979
10.6518
4.35391
0.309298
-2.31754
-3.97462
-5.11068
-5.93804
-6.54642
-6.95447
-7.11444
-6.95164
-6.44311
-5.65877
-4.73058
-3.78765
-2.91979
-2.13164
-1.3505
-0.526843
0.334168
1.12126
1.66677
1.82918
1.52882
0.813364
-0.210827
-1.57989
-3.37326
-5.60087
-8.28019
-11.4222
-15.026
-18.9493
-22.7048
-25.6351
-27.2509
-27.4582
-26.6776
-25.4667
-24.22
-23.0938
-22.0641
-20.944
113409
139220
120177
115456
143199
125961
127610
142413
147439
50425.7
74978
146144
138160
126116
109328
70.9742
11.1298
5.41131
0.489215
-2.54403
-4.43402
-5.62269
-6.39678
-6.95036
-7.37716
-7.67664
-7.76193
-7.5463
-7.0141
-6.23664
-5.3257
-4.38621
-3.5004
-2.69613
-1.9339
-1.18469
-0.461319
0.171824
0.604405
0.721081
0.44482
-0.191865
-1.16261
-2.49124
-4.19245
-6.29134
-8.7889
-11.6751
-14.9122
-18.3074
-21.5025
-24.0607
-25.5835
-26.0017
-25.5898
-24.7068
-23.6671
-22.6248
-21.565
-20.3396
89465.7
90674
134513
143113
143808
144801
131818
131749
148975
37004.8
125073
146574
138060
126421
68511.6
2.73447
7.669
1.55276
-2.12761
-4.35892
-5.68865
-6.49242
-7.00731
-7.37459
-7.69391
-7.93069
-7.97195
-7.74529
-7.24509
-6.53156
-5.6915
-4.80993
-3.96122
-3.188
-2.47846
-1.81196
-1.20365
-0.695428
-0.363432
-0.306901
-0.569558
-1.15805
-2.08319
-3.34489
-4.94416
-6.89654
-9.19595
-11.825
-14.7053
-17.6571
-20.421
-22.6558
-24.0798
-24.6378
-24.4849
-23.8723
-23.0393
-22.1107
-21.0769
-19.8189
132831
113857
141965
97675.7
144167
134584
146108
147357
136761
39115.1
140427
147056
138748
127403
17987.9
12.036
3.45701
-1.12603
-3.84087
-5.43683
-6.33315
-6.86143
-7.17765
-7.4333
-7.696
-7.88065
-7.88645
-7.66907
-7.22931
-6.6094
-5.8719
-5.08421
-4.31129
-3.60146
-2.96305
-2.38567
-1.87744
-1.47382
-1.23424
-1.22468
-1.49076
-2.0568
-2.93714
-4.1231
-5.61235
-7.40907
-9.50862
-11.8786
-14.4287
-17.0107
-19.4177
-21.3833
-22.7114
-23.3506
-23.3858
-22.9988
-22.3606
-21.5632
-20.5962
-19.3591
141774
142485
142706
57225.5
127964
128229
146033
147554
117276
26890.5
152580
147268
140319
129297
208.076
3.36504
0.167527
-3.03669
-4.94583
-6.01409
-6.60954
-6.9293
-7.11556
-7.32582
-7.54287
-7.66671
-7.63731
-7.43698
-7.06461
-6.54462
-5.92164
-5.24559
-4.57111
-3.94301
-3.38194
-2.88965
-2.47395
-2.16127
-1.99558
-2.03002
-2.31279
-2.86717
-3.69865
-4.80467
-6.182
-7.82743
-9.73093
-11.8524
-14.1054
-16.3671
-18.4664
-20.2037
-21.435
-22.1141
-22.2964
-22.1024
-21.6436
-20.9846
-20.115
-18.9458
114431
50019.3
75473.5
55341.3
139608
146545
146081
146199
101331
19462.7
154582
149327
142761
131027
14.6854
1.89787
-1.8412
-4.28334
-5.60613
-6.29862
-6.67849
-6.84958
-6.99061
-7.17815
-7.34215
-7.4086
-7.35038
-7.16357
-6.84754
-6.41593
-5.9004
-5.33608
-4.76563
-4.22599
-3.74178
-3.32627
-2.99092
-2.75537
-2.65491
-2.73448
-3.0337
-3.5729
-4.35734
-5.38383
-6.65176
-8.1549
-9.87167
-11.761
-13.7477
-15.7251
-17.5571
-19.0974
-20.2345
-20.9327
-21.2246
-21.1853
-20.8886
-20.3756
-19.6291
-18.5657
43900.7
48300.2
136037
115057
121822
147480
146421
145148
20137.3
86085.5
153100
151795
146039
62749.6
-7.75429
-0.168328
-3.47233
-5.06954
-5.96259
-6.41492
-6.63847
-6.74192
-6.87571
-7.04009
-7.14603
-7.16997
-7.10139
-6.93325
-6.66229
-6.29571
-5.85947
-5.38505
-4.90804
-4.45501
-4.04778
-3.70256
-3.43538
-3.26566
-3.22161
-3.33868
-3.64891
-4.1707
-4.90936
-5.86121
-7.02506
-8.39275
-9.93742
-11.6162
-13.3651
-15.0939
-16.6954
-18.0632
-19.1153
-19.8168
-20.184
-20.2658
-20.1126
-19.7411
-19.1293
-18.1986
88832.5
143627
143158
91427.3
137464
148542
130434
37366.7
6298.22
133863
158456
155311
150169
18446.4
6.64244
-2.35229
-4.3116
-5.51408
-6.12311
-6.42927
-6.55878
-6.63734
-6.76031
-6.87446
-6.9441
-6.94917
-6.8805
-6.73504
-6.50926
-6.20286
-5.83609
-5.43547
-5.03108
-4.64627
-4.30262
-4.01692
-3.80831
-3.69567
-3.69897
-3.84561
-4.16017
-4.6617
-5.35608
-6.23972
-7.3065
-8.54668
-9.93512
-11.4284
-12.9682
-14.4814
-15.8882
-17.1091
-18.0792
-18.7681
-19.1839
-19.3575
-19.3215
-19.0775
-18.6032
-17.8266
-379.19
56891.1
30496.3
84280
88560.4
19022.1
-100.249
284.25
1877.82
157317
162316
159754
155337
848.973
-2.60779
-3.76205
-4.96439
-5.74949
-6.1689
-6.38148
-6.46207
-6.52219
-6.62502
-6.7129
-6.75971
-6.75212
-6.68501
-6.56159
-6.37233
-6.11479
-5.80819
-5.47423
-5.13609
-4.81566
-4.53292
-4.29821
-4.13225
-4.05817
-4.09306
-4.26054
-4.57627
-5.05494
-5.70513
-6.52413
-7.50238
-8.62719
-9.87377
-11.2029
-12.5619
-13.8925
-15.1358
-16.2289
-17.1183
-17.7816
-18.2223
-18.4585
-18.5107
-18.3775
-18.0412
-17.4407
-416.407
1741.17
-65.3345
-605.063
-484.884
-417.875
-246.495
6.41384
-77.0548
164542
166218
164884
161454
12.9363
-3.89757
-4.36394
-5.34011
-5.85148
-6.1415
-6.29693
-6.3382
-6.40518
-6.49173
-6.55853
-6.58773
-6.57132
-6.50973
-6.40562
-6.24539
-6.02834
-5.77202
-5.4946
-5.21538
-4.95356
-4.72589
-4.53992
-4.41438
-4.37394
-4.43408
-4.61179
-4.91767
-5.36626
-5.96748
-6.72086
-7.61817
-8.64019
-9.76084
-10.9456
-12.1501
-13.3274
-14.4305
-15.4098
-16.223
-16.8512
-17.2966
-17.5694
-17.6812
-17.6353
-17.4291
-17.0306
-65.7838
3794.55
-228.671
-573.605
-540.354
-468.62
-375.442
-276.696
37355.7
168729
171263
170711
109946
-19.9385
-3.70615
-5.16843
-5.54638
-5.87239
-6.07676
-6.18671
-6.21996
-6.28245
-6.35681
-6.40654
-6.42401
-6.40365
-6.35032
-6.26156
-6.12458
-5.94168
-5.72837
-5.49974
-5.27238
-5.06133
-4.87975
-4.73738
-4.65036
-4.63918
-4.7193
-4.9033
-5.19952
-5.62084
-6.17351
-6.85635
-7.66748
-8.59027
-9.5993
-10.6604
-11.7347
-12.7824
-13.7647
-14.6431
-15.3839
-15.9707
-16.4055
-16.6911
-16.835
-16.8453
-16.7412
-16.5734
1183.33
-611.123
-622.833
-600.85
-573.6
-460.605
-470.71
-331.894
126224
175561
177578
177320
48370.3
-3.55787
-5.152
-5.38557
-5.62536
-5.84021
-5.99878
-6.0524
-6.0961
-6.16069
-6.2216
-6.25836
-6.26694
-6.24731
-6.20177
-6.12312
-6.00497
-5.85312
-5.67889
-5.49241
-5.30918
-5.14088
-4.99914
-4.89481
-4.8411
-4.85432
-4.95027
-5.13862
-5.42536
-5.82036
-6.32846
-6.94914
-7.67921
-8.50536
-9.4063
-10.3532
-11.3135
-12.2511
-13.1304
-13.9191
-14.5918
-15.1339
-15.5458
-15.8263
-15.9784
-16.0094
-15.9436
-15.8796
473.919
1386.82
-637.458
-627.413
-580.083
-400.66
-558.234
-510.763
178494
183446
184922
184770
7646.39
-0.38206
-5.73074
-5.48
-5.63033
-5.78098
-5.90481
-5.93722
-5.978
-6.03608
-6.08513
-6.11215
-6.11447
-6.09657
-6.05679
-5.98654
-5.88619
-5.76276
-5.62309
-5.47328
-5.32775
-5.19565
-5.08805
-5.01538
-4.98978
-5.02377
-5.13189
-5.32194
-5.59838
-5.96936
-6.43756
-7.00359
-7.66044
-8.39843
-9.20279
-10.0447
-10.8973
-11.7336
-12.5207
-13.23
-13.8399
-14.3363
-14.7179
-14.9825
-15.127
-15.1533
-15.066
-14.8513
-659.162
-697.745
-676.842
-658.175
-452.442
-533.934
-585.008
-789.925
189975
191944
192910
192896
-2.47116
-8.13092
-5.66293
-5.5671
-5.59634
-5.71023
-5.78494
-5.82117
-5.86239
-5.9112
-5.94848
-5.96654
-5.96478
-5.9479
-5.91275
-5.85171
-5.76995
-5.67141
-5.56076
-5.44291
-5.32951
-5.22816
-5.14966
-5.10341
-5.10074
-5.15245
-5.26931
-5.45803
-5.72327
-6.07131
-6.50307
-7.01998
-7.6138
-8.27461
-8.99181
-9.74019
-10.498
-11.2411
-11.9414
-12.5771
-13.1277
-13.5792
-13.9283
-14.1722
-14.3041
-14.3221
-14.2205
-13.9739
4138.62
-688.029
-694.001
-682.694
-599.063
-636.448
-623.906
124055
199060
200756
201259
176255
-18.3678
-5.66958
-5.84642
-5.56242
-5.54643
-5.63628
-5.66973
-5.70466
-5.74433
-5.78202
-5.80925
-5.82054
-5.81634
-5.80012
-5.77018
-5.72044
-5.65598
-5.57756
-5.49179
-5.40247
-5.3157
-5.24057
-5.18722
-5.16336
-5.17892
-5.24403
-5.36669
-5.55266
-5.80559
-6.13038
-6.52901
-7.00099
-7.53928
-8.13353
-8.77392
-9.43992
-10.1146
-10.7761
-11.3999
-11.9683
-12.4619
-12.8693
-13.1868
-13.4104
-13.5329
-13.5545
-13.479
-13.3319
4277.01
-710.718
-713.26
-704.186
-686.149
-649.636
-579.923
203199
208559
209730
209847
71885.7
-10.386
-6.50723
-5.90207
-5.55953
-5.50608
-5.55199
-5.57186
-5.59545
-5.62454
-5.65033
-5.66737
-5.67305
-5.66819
-5.65466
-5.63035
-5.59154
-5.54159
-5.48101
-5.41645
-5.35027
-5.28672
-5.23456
-5.20303
-5.19769
-5.22795
-5.30283
-5.42874
-5.61099
-5.85058
-6.15249
-6.52018
-6.95111
-7.43943
-7.97479
-8.5484
-9.14377
-9.74512
-10.3353
-10.8935
-11.4028
-11.8464
-12.2139
-12.5031
-12.7101
-12.8296
-12.8676
-12.8362
-12.762
4548.07
10.1839
-742.83
-728.087
-709.386
-674.38
24885.1
216482
218100
218788
218747
10388.6
-3.54045
-6.73455
-5.82108
-5.54072
-5.47438
-5.45452
-5.46248
-5.47863
-5.49818
-5.51517
-5.52442
-5.52617
-5.52152
-5.51101
-5.49257
-5.46313
-5.4254
-5.38054
-5.33357
-5.28589
-5.24327
-5.21113
-5.19726
-5.20749
-5.24977
-5.33175
-5.4591
-5.63658
-5.86259
-6.14322
-6.48159
-6.87509
-7.31837
-7.80126
-8.31666
-8.85106
-9.38883
-9.91649
-10.4167
-10.8736
-11.2726
-11.6058
-11.8724
-12.0678
-12.1871
-12.238
-12.2314
-12.185
673.811
-667.51
-782.533
-753.835
-725.262
-664.483
198627
226520
227620
227889
228021
-5.64466
-7.89382
-6.28655
-5.77446
-5.5043
-5.42799
-5.37736
-5.36515
-5.36449
-5.37127
-5.37869
-5.38108
-5.37936
-5.37497
-5.36816
-5.35543
-5.33377
-5.30692
-5.2754
-5.24316
-5.21131
-5.18615
-5.17018
-5.17059
-5.19375
-5.24552
-5.33307
-5.4605
-5.63215
-5.84548
-6.10619
-6.4174
-6.77702
-7.17991
-7.61626
-8.08128
-8.56155
-9.04402
-9.51725
-9.96447
-10.3744
-10.7344
-11.0366
-11.2824
-11.4667
-11.5855
-11.6467
-11.6586
-11.6342
-625.842
-824.527
-802.385
-777.493
-732.277
17467.3
235180
236533
237123
237057
134143
-18.7678
-6.84096
-6.23241
-5.68357
-5.45483
-5.34443
-5.28362
-5.25577
-5.24413
-5.24127
-5.24031
-5.23724
-5.23316
-5.22914
-5.22527
-5.21678
-5.20265
-5.18607
-5.16593
-5.1459
-5.12667
-5.11559
-5.11334
-5.12569
-5.15892
-5.21853
-5.30994
-5.43602
-5.60093
-5.80255
-6.04579
-6.3327
-6.66112
-7.02717
-7.42242
-7.84259
-8.27444
-8.70789
-9.133
-9.5337
-9.90129
-10.2258
-10.4999
-10.7265
-10.9
-11.0169
-11.0848
-11.1097
-11.1005
-832.47
-833.98
-817.457
-792.967
-737.44
226006
245565
246384
246633
246405
25819.6
-4.21343
-6.7713
-5.9263
-5.5694
-5.39315
-5.25214
-5.18532
-5.14544
-5.12351
-5.11063
-5.10138
-5.09316
-5.08802
-5.08375
-5.08156
-5.07708
-5.06985
-5.06167
-5.05115
-5.04101
-5.03241
-5.0334
-5.04233
-5.06485
-5.10588
-5.17186
-5.26572
-5.3891
-5.54699
-5.73798
-5.96549
-6.23043
-6.53066
-6.86304
-7.2216
-7.6014
-7.98981
-8.37896
-8.76105
-9.12083
-9.45073
-9.74281
-9.99221
-10.2009
-10.363
-10.4766
-10.5481
-10.5814
-10.5823
-835.207
-842.751
-804.921
-764.924
119839
254882
255765
256193
256153
256240
-8.86722
-7.30611
-6.23298
-5.68927
-5.43698
-5.29271
-5.15801
-5.07775
-5.02634
-4.99705
-4.97787
-4.96204
-4.95032
-4.94331
-4.93911
-4.93852
-4.93741
-4.93613
-4.93413
-4.93117
-4.92895
-4.9304
-4.94094
-4.95821
-4.98977
-5.03784
-5.1077
-5.20244
-5.32279
-5.47384
-5.65438
-5.86717
-6.11142
-6.38638
-6.68933
-7.01453
-7.35784
-7.70791
-8.05755
-8.4005
-8.72365
-9.01973
-9.28328
-9.50973
-9.70072
-9.85159
-9.96054
-10.0324
-10.0708
-10.0787
-553.286
871.498
-851.175
26430.7
264575
265309
265846
266046
265781
103057
-12.438
-6.95185
-5.90601
-5.4486
-5.28223
-5.14311
-5.04
-4.96153
-4.90343
-4.86783
-4.84285
-4.82186
-4.80686
-4.79847
-4.79497
-4.79585
-4.79704
-4.80002
-4.80316
-4.80673
-4.81146
-4.8217
-4.83975
-4.86421
-4.90323
-4.9561
-5.02774
-5.12198
-5.23913
-5.3834
-5.55343
-5.75182
-5.97701
-6.22849
-6.50599
-6.8017
-7.11115
-7.42723
-7.74201
-8.04968
-8.33977
-8.60595
-8.84387
-9.04886
-9.22241
-9.36247
-9.46545
-9.53564
-9.57674
-9.58925
928.262
-993.213
13998.8
274490
275149
275698
276003
275931
275809
166.454
-8.84085
-6.2789
-5.45069
-5.20081
-5.08885
-4.98522
-4.90339
-4.82785
-4.76978
-4.73238
-4.70344
-4.67996
-4.66294
-4.65353
-4.65033
-4.65209
-4.65526
-4.66191
-4.6703
-4.67919
-4.69037
-4.70701
-4.73117
-4.76225
-4.80587
-4.86157
-4.93447
-5.02679
-5.13965
-5.27712
-5.43679
-5.62095
-5.82792
-6.05842
-6.31294
-6.58234
-6.86207
-7.14697
-7.43021
-7.70658
-7.9674
-8.20707
-8.42119
-8.60621
-8.76419
-8.89301
-8.98923
-9.05693
-9.09875
-9.1142
63480.3
55450.1
285186
285589
286007
286354
286394
285968
163937
-13.4906
-5.92212
-5.35157
-5.04124
-4.94138
-4.85688
-4.79817
-4.74076
-4.67812
-4.62568
-4.58807
-4.55834
-4.53492
-4.51723
-4.50754
-4.50551
-4.50819
-4.51258
-4.52246
-4.53459
-4.54831
-4.56507
-4.58715
-4.61616
-4.65167
-4.69788
-4.7556
-4.82907
-4.91783
-5.02594
-5.15633
-5.30522
-5.47578
-5.66592
-5.87708
-6.11006
-6.35585
-6.61031
-6.86695
-7.1209
-7.36971
-7.60476
-7.82017
-8.01207
-8.17879
-8.32363
-8.44178
-8.53064
-8.59546
-8.63634
-8.65341
424942
425119
425083
425025
424941
424826
424671
424467
424200
423850
423392
422788
421986
420909
419443
417401
414461
410000
402566
388806
424578
424740
424701
424637
424543
424416
424246
424023
423732
423353
422856
422201
421332
420161
418556
416303
413019
407953
399571
384619
424243
424389
424346
424277
424177
424040
423859
423622
423314
422915
422395
421715
420815
419612
417978
415718
412513
407831
400798
389932
423937
424067
424022
423949
423844
423700
423512
423266
422949
422541
422014
421330
420436
419258
417688
415574
412693
408716
403169
395473
423664
423777
423730
423655
423546
423399
423206
422956
422637
422230
421708
421040
420180
419065
417613
415714
413220
409938
405634
400125
423422
423519
423471
423394
423284
423136
422942
422693
422377
421977
421472
420832
420021
418990
417677
416006
413881
411196
407837
403739
423214
423294
423246
423169
423059
422912
422720
422475
422166
421780
421296
420692
419937
418995
417820
416359
414554
412342
409669
406510
423038
423102
423055
422979
422871
422726
422538
422300
422001
421631
421172
420605
419908
419050
418000
416721
415175
413328
411153
408639
422894
422943
422898
422824
422718
422577
422395
422165
421878
421525
421092
420563
419918
419136
418193
417062
415722
414153
412342
410283
422781
422816
422773
422703
422601
422464
422289
422068
421794
421459
421051
420557
419961
419243
418386
417372
416188
414830
413291
411565
422696
422720
422681
422615
422518
422387
422218
422007
421746
421429
421045
420583
420030
419367
418577
417647
416578
415382
414061
412599
422629
422653
422623
422561
422468
422343
422182
421979
421731
421430
421070
420640
420130
419517
418778
417908
416929
415878
414760
413547
422540
422618
422598
422540
422452
422334
422180
421986
421749
421464
421124
420728
420273
419718
418460
411221
392587
361049
315586
238456
-0.676507
106113
104841
99797.9
92394.9
83124.9
72396.9
60635.8
48167
35286.4
22446.5
10318.6
3.43224
-3.55053
-2.46318
-2.59359
-2.37618
-1.15755
2.07325
1.37935
-0.35013
-0.0356528
-0.0758163
-0.0806451
-0.0768479
-0.065773
-0.0579601
-0.0582381
-0.0689616
-0.0970945
-0.154356
-0.24416
-0.181826
-0.540522
-0.713
-0.748455
-0.659238
-0.460796
-0.235348
-0.0594819
-0.181
-0.0709571
-0.0876789
-0.0910467
-0.0894896
-0.0886006
-0.0925308
-0.102826
-0.118825
-0.138542
-0.157686
-0.16718
-0.162646
-0.191954
-0.22887
-0.257523
-0.271845
-0.274576
-0.260766
-0.264704
-0.139981
-0.11776
-0.10769
-0.104559
-0.101809
-0.101565
-0.105601
-0.113979
-0.125508
-0.138241
-0.149796
-0.157716
-0.159257
-0.163368
-0.176455
-0.196813
-0.220185
-0.242027
-0.257541
-0.274142
-0.130705
-0.125438
-0.117302
-0.111933
-0.108479
-0.108085
-0.111658
-0.118675
-0.127514
-0.136451
-0.144906
-0.152883
-0.160563
-0.169085
-0.180429
-0.195118
-0.212713
-0.231594
-0.250708
-0.272403
-0.12502
-0.123967
-0.118943
-0.113965
-0.110092
-0.10901
-0.111995
-0.118465
-0.126247
-0.133568
-0.140704
-0.148975
-0.158465
-0.168487
-0.178864
-0.19047
-0.204658
-0.221899
-0.241718
-0.264341
-0.118661
-0.119841
-0.116235
-0.112155
-0.10839
-0.106858
-0.109296
-0.115141
-0.122103
-0.128724
-0.13553
-0.144126
-0.154494
-0.165025
-0.174887
-0.185225
-0.19803
-0.214084
-0.232864
-0.254726
-0.110633
-0.112686
-0.11014
-0.107445
-0.104597
-0.103529
-0.105705
-0.110567
-0.116428
-0.122612
-0.129478
-0.137951
-0.148222
-0.158841
-0.168697
-0.178825
-0.191126
-0.206191
-0.223917
-0.245015
-0.0976667
-0.102029
-0.101204
-0.100484
-0.0991328
-0.0989325
-0.101107
-0.105323
-0.110566
-0.116371
-0.122882
-0.130579
-0.139868
-0.15017
-0.160613
-0.171558
-0.183962
-0.198265
-0.214983
-0.234906
-0.0733372
-0.0867659
-0.0895881
-0.0916212
-0.0922515
-0.0930974
-0.0955993
-0.0998424
-0.105091
-0.11055
-0.11623
-0.122772
-0.130913
-0.14073
-0.151668
-0.163479
-0.176248
-0.190178
-0.205835
-0.224136
-0.0303683
-0.0677442
-0.0767169
-0.0817396
-0.0846368
-0.0870154
-0.0901949
-0.0944315
-0.0993509
-0.104434
-0.109741
-0.115843
-0.123345
-0.132457
-0.142882
-0.154407
-0.167092
-0.180923
-0.196075
-0.213239
335932
335374
334458
334725
338241
344130
351254
358290
364065
367751
368830
367017
361917
352423
334957
355165
339377
334560
334356
337309
342589
349182
355764
361170
364580
365505
363683
358842
350511
338342
374036
355066
344057
340026
340914
345012
350635
356321
360908
363665
364227
362462
358340
351935
343691
385788
373547
363341
356951
354533
355254
357937
361092
363651
364981
364765
362901
359424
354519
348615
393335
385298
377882
372182
368632
367091
367023
367581
368033
367883
366830
364742
361626
357633
353082
398815
393042
387449
382649
378968
376452
374856
373783
372801
371561
369825
367476
364509
361022
357200
402802
398443
394056
389994
386484
383610
381278
379299
377435
375469
373240
370658
367692
364385
360892
405732
402307
398761
395295
392069
389145
386508
384074
381724
379326
376744
373894
370798
352327
124531
407924
405137
402193
399212
396286
393477
390796
388204
385602
382880
379997
348377
100727
-11.8644
1.11398
409596
407258
404766
402191
399585
396983
394353
391653
388872
322603
40942.4
-6.23301
1.65062
-1.91602
-1.49746
410938
408964
406845
404572
402187
399675
381042
218026
-7.16791
2.09753
1.18583
-1.81962
-1.21721
-1.21437
-1.3225
412115
410320
406668
359986
211004
4880.1
-10.2227
3.75162
-0.590563
-1.64691
-0.903042
-1.03632
-1.11936
-1.19816
-1.28385
129379
15239.6
-13.488
-0.107089
2.70792
0.0157257
-1.7497
-0.705747
-0.714443
-0.854746
-0.931951
-1.01523
-1.08959
-1.15639
-1.22744
1.12465
-0.297994
-1.3468
-1.06961
-0.370037
-0.462078
-0.614366
-0.671138
-0.750366
-0.827784
-0.897665
-0.965671
-1.03592
-1.10394
-1.17202
-0.0877241
-0.315432
-0.420908
-0.480239
-0.500735
-0.554494
-0.606371
-0.660881
-0.722281
-0.788754
-0.855048
-0.919676
-0.985238
-1.05074
-1.11593
-0.308545
-0.366351
-0.403032
-0.446038
-0.488746
-0.536286
-0.586952
-0.639908
-0.69502
-0.753753
-0.814818
-0.876033
-0.937352
-0.999056
-1.06086
-0.303977
-0.346978
-0.390938
-0.433723
-0.475513
-0.51942
-0.566033
-0.614655
-0.665538
-0.719589
-0.77628
-0.833615
-0.891173
-0.949145
-1.00748
-0.300426
-0.337701
-0.377621
-0.417483
-0.45823
-0.500479
-0.543767
-0.588518
-0.635791
-0.686109
-0.738662
-0.792277
-0.846296
-0.900884
-0.955916
-0.291937
-0.326599
-0.363362
-0.400478
-0.438869
-0.479044
-0.519827
-0.561642
-0.606203
-0.653472
-0.702337
-0.752276
-0.802773
-0.854073
-0.90592
-0.281371
-0.314075
-0.348237
-0.382549
-0.418135
-0.45575
-0.494541
-0.534553
-0.57709
-0.62183
-0.667308
-0.713302
-0.760568
-0.808885
-0.857781