/*--------------------------------*- C++ -*----------------------------------*\
| =========                 |                                                 |
| \\      /  F ield         | OpenFOAM: The Open Source CFD Toolbox           |
|  \\    /   O peration     | Version:  v1912                                 |
|   \\  /    A nd           | Website:  www.openfoam.com                      |
|    \\/     M anipulation  |                                                 |
\*---------------------------------------------------------------------------*/
FoamFile
{
    version     2.0;
    format      ascii;
    class       surfaceScalarField;
    location    "44";
    object      phi;
}
// * * * * * * * * * * * * * * * * * * * * * * * * * * * * * * * * * * * * * //

dimensions      [0 3 -1 0 0 0 0];
oriented        oriented;


internalField   nonuniform List<scalar> 
40282
(
0.00277752
0.00264571
1.91974
-1.92635
1.92076
0.00558451
-1.91173
1.89954
0.0121884
-1.88436
1.86622
0.0181398
-1.8452
1.82133
0.0238744
-1.79471
1.76534
0.0293666
-1.73335
1.69873
0.0346228
-1.66158
1.62191
0.0396772
-1.57985
1.53539
0.0444648
-1.48868
1.4397
0.0489745
-1.38864
1.33541
0.0532262
-1.28024
1.22305
0.0571818
-1.1641
1.10333
0.0607676
-1.04097
0.976881
0.0640912
-0.911311
0.844177
0.0671343
-0.775652
0.705428
0.0702246
-0.633688
0.560236
0.0734523
-0.484889
0.407267
0.0776219
-0.326583
0.242782
0.0838014
-0.15412
0.0615011
0.0926193
-0.00422668
0.00560518
1.85481
-1.85035
1.84341
-0.0141067
0.0210477
-1.83373
1.82128
-0.0256254
0.0380741
-1.80605
1.78806
-0.0369178
0.0549067
-1.76736
1.74398
-0.0479896
0.0713666
-1.71797
1.68936
-0.0587987
0.0874103
-1.65817
1.62446
-0.0692477
0.102961
-1.58826
1.54963
-0.079297
0.117929
-1.50861
1.46527
-0.0889079
0.132241
-1.41968
1.37188
-0.0980533
0.145852
-1.32193
1.26989
-0.106683
0.158718
-1.21582
1.15977
-0.114748
0.170793
-1.1018
1.04196
-0.12219
0.18203
-0.9803
0.916924
-0.128957
0.192333
-0.85188
0.785264
-0.134973
0.201589
-0.717162
0.647711
-0.14027
0.209721
-0.577007
0.505242
-0.144938
0.216703
-0.432636
0.359529
-0.14972
0.222827
-0.286188
0.213136
-0.156072
0.229124
-0.140201
0.0747092
-0.170835
0.236327
-0.00701121
0.0083602
1.78834
-1.78416
1.77734
-0.0281822
0.0350022
-1.76787
1.75576
-0.0506989
0.0628043
-1.74103
1.72369
-0.072958
0.0902985
-1.70375
1.68121
-0.094783
0.117316
-1.65612
1.62849
-0.116059
0.143685
-1.59838
1.56581
-0.13669
0.169255
-1.53085
1.49352
-0.156562
0.193885
-1.45389
1.41202
-0.175568
0.217442
-1.36796
1.32178
-0.193627
0.239808
-1.27355
1.22334
-0.210692
0.260903
-1.17122
1.11726
-0.226728
0.280684
-1.06153
1.0041
-0.241701
0.299137
-0.945005
0.884312
-0.25554
0.316233
-0.822061
0.758303
-0.268089
0.331848
-0.693089
0.626481
-0.279078
0.345685
-0.55855
0.489388
-0.288176
0.357337
-0.419131
0.347984
-0.295322
0.366468
-0.276243
0.204393
-0.301358
0.373208
-0.133045
0.0641208
-0.308721
0.377645
-0.0096445
0.0109211
1.72431
-1.72044
1.71402
-0.0417159
0.0481396
-1.70504
1.69351
-0.074845
0.0863746
-1.67944
1.66286
-0.107597
0.12418
-1.64377
1.62221
-0.139787
0.161357
-1.59818
1.57171
-0.171239
0.197704
-1.54284
1.51159
-0.201776
0.233024
-1.478
1.44211
-0.231215
0.267109
-1.40395
1.36358
-0.259378
0.299747
-1.32105
1.27642
-0.286105
0.330734
-1.22976
1.18114
-0.311267
0.359891
-1.13063
1.07834
-0.334791
0.387087
-1.02434
0.968736
-0.356651
0.412255
-0.911615
0.853064
-0.376858
0.43541
-0.793156
0.731951
-0.395363
0.456567
-0.669498
0.605838
-0.411903
0.475563
-0.541009
0.475051
-0.425896
0.491854
-0.40801
0.339956
-0.436496
0.504549
-0.271023
0.201482
-0.443352
0.512893
-0.131712
0.0632423
-0.447339
0.515809
-0.012141
0.0133472
1.66255
-1.6589
1.65281
-0.0545118
0.0605998
-1.6443
1.63336
-0.0978218
0.108759
-1.62001
1.60427
-0.140657
0.156404
-1.58613
1.56563
-0.182795
0.203299
-1.54277
1.51758
-0.224021
0.249215
-1.49007
1.46027
-0.264119
0.293914
-1.42822
1.39393
-0.302855
0.337139
-1.35746
1.31882
-0.339987
0.37862
-1.27808
1.23527
-0.375274
0.418083
-1.19045
1.14368
-0.408489
0.455261
-1.09502
1.04456
-0.439438
0.489902
-0.992367
0.938548
-0.467992
0.521812
-0.883199
0.826428
-0.494126
0.550897
-0.768341
0.709035
-0.517883
0.577188
-0.648597
0.587093
-0.539194
0.600698
-0.524569
0.461055
-0.557566
0.62108
-0.396569
0.331123
-0.571888
0.637334
-0.264747
0.197529
-0.580811
0.648028
-0.129543
0.0624428
-0.58389
0.650991
-0.0144937
0.0156206
1.60313
-1.59952
1.59381
-0.0666172
0.0723357
-1.58581
1.57553
-0.11957
0.12985
-1.56297
1.54815
-0.171982
0.186806
-1.53106
1.51172
-0.223602
0.24294
-1.49014
1.46633
-0.274185
0.297997
-1.4403
1.41207
-0.323478
0.351708
-1.38166
1.34909
-0.371198
0.403769
-1.31438
1.27758
-0.417048
0.453855
-1.2387
1.1978
-0.460722
0.501627
-1.15491
1.11008
-0.501913
0.546742
-1.06336
1.01483
-0.540319
0.588853
-0.964545
0.912589
-0.575678
0.627634
-0.859053
0.804038
-0.60782
0.662836
-0.747653
0.690013
-0.636725
0.694365
-0.631229
0.571404
-0.662442
0.722267
-0.510619
0.448933
-0.684726
0.746412
-0.386382
0.322982
-0.702545
0.765945
-0.258727
0.193606
-0.713998
0.77912
-0.12747
0.0623469
-0.717624
0.782747
-0.0166848
0.0177228
1.54551
-1.54248
1.53717
-0.0779569
0.0832649
-1.52974
1.52019
-0.139961
0.149515
-1.50851
1.49471
-0.201398
0.215202
-1.47878
1.46073
-0.261998
0.280052
-1.44055
1.41825
-0.321498
0.343796
-1.39383
1.3673
-0.379614
0.406145
-1.33867
1.30794
-0.436024
0.466754
-1.27513
1.24026
-0.490373
0.525244
-1.20335
1.16443
-0.542291
0.581212
-1.12353
1.08069
-0.591397
0.634238
-1.03595
0.989359
-0.637297
0.683884
-0.940981
0.89088
-0.679604
0.729705
-0.839132
0.785827
-0.717992
0.771297
-0.731066
0.674963
-0.752279
0.808382
-0.617639
0.559216
-0.782474
0.840897
-0.499806
0.439506
-0.808513
0.868813
-0.378387
0.316496
-0.829598
0.891489
-0.253842
0.19038
-0.843652
0.907114
-0.125746
0.0627715
-0.848531
0.911505
-0.0186947
0.0196332
1.49032
-1.48756
1.48271
-0.088443
0.093292
-1.47592
1.46717
-0.158843
0.167586
-1.45647
1.4438
-0.228695
0.241362
-1.42916
1.41254
-0.297728
0.314355
-1.39391
1.37329
-0.365674
0.3863
-1.35065
1.32598
-0.432234
0.456899
-1.29929
1.27056
-0.497049
0.525776
-1.2398
1.20701
-0.559714
0.592503
-1.1722
1.13538
-0.619792
0.656612
-1.09657
1.05579
-0.676825
0.717603
-1.01308
0.968462
-0.730325
0.774941
-0.921991
0.87372
-0.779788
0.828059
-0.823712
0.772044
-0.824733
0.876401
-0.718806
0.664105
-0.864784
0.919485
-0.608061
0.550808
-0.899787
0.957041
-0.492478
0.433199
-0.929717
0.988995
-0.373084
0.312218
-0.953988
1.01485
-0.250647
0.18834
-0.97054
1.03285
-0.124645
0.063793
-0.977149
1.038
-0.0205013
0.0213281
1.43699
-1.43435
1.43002
-0.0979753
0.102309
-1.42394
1.4161
-0.176041
0.183875
-1.4065
1.3951
-0.253632
0.265026
-1.3819
1.36687
-0.330497
0.345528
-1.34999
1.33123
-0.406382
0.425143
-1.31056
1.28797
-0.480989
0.50358
-1.26343
1.23692
-0.553934
0.580447
-1.20842
1.17791
-0.624762
0.655271
-1.14538
1.11083
-0.692976
0.727523
-1.07426
1.03568
-0.758035
0.796621
-0.995089
0.952517
-0.819348
0.86192
-0.907992
0.861554
-0.876286
0.922724
-0.813254
0.763154
-0.928213
0.978313
-0.711332
0.657885
-0.974541
1.02799
-0.602929
0.546601
-1.01489
1.07121
-0.489051
0.430433
-1.04912
1.10774
-0.370902
0.310597
-1.07681
1.13711
-0.249617
0.187988
-1.096
1.15763
-0.124651
0.0658148
-1.10448
1.16332
-0.0220804
0.022783
1.38572
-1.38341
1.37965
-0.106438
0.110199
-1.37437
1.36755
-0.191353
0.198175
-1.35916
1.34919
-0.275927
0.285903
-1.33759
1.32434
-0.359955
0.373207
-1.30939
1.29271
-0.443219
0.459899
-1.27425
1.25398
-0.525443
0.545722
-1.23183
1.20778
-0.60623
0.630282
-1.18178
1.15379
-0.685093
0.713078
-1.12379
1.09174
-0.761472
0.793526
-1.05761
1.02139
-0.834741
0.870957
-0.983077
0.942662
-0.904199
0.944613
-0.900158
0.855585
-0.969078
1.01365
-0.808975
0.760376
-1.02857
1.07717
-0.709851
0.657485
-1.08186
1.13422
-0.603389
0.547698
-1.12827
1.18396
-0.490575
0.432205
-1.16745
1.22582
-0.372784
0.312515
-1.19898
1.25925
-0.251568
0.190062
-1.22103
1.28254
-0.12617
0.0693201
-1.23163
1.28848
-0.0234072
0.0239733
1.33613
-1.3342
1.33107
-0.113713
0.11684
-1.32667
1.32097
-0.204567
0.210269
-1.31393
1.30553
-0.295281
0.303683
-1.29572
1.28445
-0.385721
0.396992
-1.27167
1.25731
-0.475736
0.49009
-1.24132
1.22364
-0.565094
0.58278
-1.20419
1.18291
-0.65341
0.674691
-1.15973
1.13459
-0.740178
0.765319
-1.10742
1.07817
-0.824789
0.854038
-1.04679
1.01322
-0.906536
0.940103
-0.977434
0.939396
-0.9846
1.02264
-0.899089
0.856505
-1.05806
1.10064
-0.811654
0.764559
-1.1259
1.173
-0.715264
0.663837
-1.18707
1.2385
-0.610374
0.555009
-1.24053
1.2959
-0.497914
0.439299
-1.28559
1.3442
-0.379409
0.318519
-1.32167
1.38256
-0.256897
0.19479
-1.34705
1.40915
-0.12907
0.0743755
-1.3603
1.41499
-0.024458
0.024877
1.2884
-1.2867
1.28426
-0.11968
0.122116
-1.28082
1.27634
-0.215467
0.219946
-1.27078
1.26411
-0.31138
0.318056
-1.25626
1.24717
-0.407385
0.416471
-1.23678
1.22501
-0.503428
0.515199
-1.21178
1.19699
-0.599356
0.614138
-1.18057
1.16242
-0.694823
0.712977
-1.14244
1.12053
-0.789333
0.811238
-1.09661
1.07058
-0.88225
0.908284
-1.04234
1.01182
-0.972799
1.00332
-0.978937
0.943621
-1.06005
1.09537
-0.905814
0.865472
-1.14292
1.18326
-0.822565
0.777083
-1.22017
1.26565
-0.729036
0.678464
-1.29045
1.34102
-0.625443
0.570093
-1.35231
1.40766
-0.512591
0.453179
-1.40456
1.46398
-0.392161
0.329927
-1.44633
1.50857
-0.266907
0.203608
-1.47587
1.53917
-0.135151
0.0829812
-1.49246
1.54463
-0.0252132
0.0254774
1.24254
-1.24127
1.23957
-0.124229
0.125931
-1.23715
1.23398
-0.223853
0.227025
-1.23001
1.22519
-0.323925
0.328743
-1.21946
1.21275
-0.42454
0.431254
-1.20497
1.19603
-0.525776
0.534712
-1.18584
1.17428
-0.627594
0.639151
-1.16125
1.14661
-0.729729
0.744363
-1.13026
1.11205
-0.831731
0.84994
-1.09185
1.06954
-0.932979
0.955288
-1.04498
1.01804
-1.03266
1.05961
-0.988592
0.956511
-1.12977
1.16185
-0.921686
0.884017
-1.22306
1.26073
-0.843419
0.799825
-1.31107
1.35467
-0.753195
0.703517
-1.3921
1.44178
-0.650825
0.595207
-1.46421
1.51983
-0.536828
0.475946
-1.52556
1.58644
-0.412933
0.348319
-1.57472
1.63933
-0.282774
0.217232
-1.60984
1.67539
-0.144702
0.095127
-1.63081
1.68039
-0.0256592
0.0257649
1.19798
-1.19736
1.19642
-0.127278
0.128215
-1.19507
1.19326
-0.229564
0.231367
-1.19096
1.1881
-0.332663
0.335521
-1.18462
1.18044
-0.436822
0.441007
-1.17546
1.16959
-0.542281
0.548154
-1.1627
1.15469
-0.649159
0.657174
-1.1454
1.13471
-0.757317
0.768012
-1.12245
1.10846
-0.866408
0.880394
-1.09258
1.07463
-0.975883
0.993836
-1.05442
1.03178
-1.08497
1.10761
-1.0065
0.978415
-1.19261
1.2207
-0.947327
0.913061
-1.29748
1.33175
-0.875451
0.834344
-1.39791
1.43902
-0.789614
0.741164
-1.49183
1.54028
-0.688946
0.632978
-1.57673
1.63269
-0.573377
0.510386
-1.64987
1.71286
-0.444429
0.376195
-1.70893
1.77716
-0.306669
0.237409
-1.75162
1.82089
-0.159018
0.111993
-1.77851
1.82554
-0.025791
0.0257394
1.15528
-1.15511
1.15495
-0.128775
0.12894
-1.15468
1.15427
-0.232496
0.232908
-1.15367
1.15282
-0.337412
0.338259
-1.15166
1.1501
-0.443939
0.445495
-1.14806
1.14542
-0.552505
0.555143
-1.14207
1.13787
-0.663427
0.667629
-1.13267
1.12631
-0.776745
0.783103
-1.11862
1.1094
-0.892279
0.901492
-1.09847
1.08559
-1.00963
1.02251
-1.07054
1.05307
-1.12816
1.14562
-1.03294
1.00988
-1.2469
1.26997
-0.983603
0.953844
-1.36453
1.39429
-0.920319
0.882752
-1.47926
1.51682
-0.840881
0.794468
-1.58874
1.63516
-0.743316
0.6873
-1.68985
1.74587
-0.62641
0.560807
-1.77874
1.84434
-0.490907
0.417559
-1.85164
1.92498
-0.342147
0.267162
-1.90533
1.98031
-0.180579
0.136454
-1.94096
1.98508
-0.0256137
0.0254117
1.11405
-1.11416
1.11475
-0.128719
0.128128
-1.11554
1.11649
-0.232625
0.231668
-1.11758
1.11873
-0.338098
0.336945
-1.11989
1.12099
-0.445726
0.44463
-1.12193
1.12261
-0.556141
0.555457
-1.12292
1.12272
-0.669888
0.670089
-1.12186
1.12017
-0.787236
0.788925
-1.11747
1.11356
-0.908241
0.912159
-1.1082
1.10115
-1.03276
1.0398
-1.09215
1.08089
-1.16039
1.17164
-1.06707
1.05034
-1.29042
1.30715
-1.03034
1.00666
-1.42173
1.44541
-0.978886
0.946582
-1.55268
1.58498
-0.909291
0.866554
-1.68084
1.72358
-0.817926
0.763014
-1.80263
1.85754
-0.701534
0.633402
-1.91295
1.98108
-0.558879
0.478879
-2.00595
2.08595
-0.395237
0.311825
-2.07651
2.15992
-0.213619
0.175086
-2.12705
2.16559
-0.0251433
0.0248026
1.0743
-1.07502
1.07632
-0.127156
0.125853
-1.07812
1.08037
-0.230019
0.227761
-1.08306
1.08613
-0.334778
0.331704
-1.08954
1.09322
-0.442183
0.438504
-1.0971
1.10108
-0.553069
0.549088
-1.10506
1.10892
-0.668224
0.664364
-1.11252
1.1157
-0.78818
0.784998
-1.11828
1.12007
-0.913287
0.911503
-1.12083
1.1203
-1.04374
1.04426
-1.11821
1.11423
-1.17953
1.18351
-1.108
1.09911
-1.32039
1.32927
-1.08714
1.07155
-1.4657
1.48128
-1.05181
1.02729
-1.61431
1.63883
-0.997299
0.961079
-1.76426
1.80048
-0.91782
0.866682
-1.91206
1.9632
-0.806857
0.737684
-2.05172
2.12089
-0.65886
0.570922
-2.17471
2.26265
-0.475803
0.378554
-2.27196
2.36921
-0.262182
0.225478
-2.34756
2.38426
-0.0244058
0.0239429
1.03582
-1.03694
1.03889
-0.124187
0.122239
-1.04159
1.04503
-0.224841
0.221397
-1.04919
1.05403
-0.32765
0.322808
-1.05952
1.06562
-0.4335
0.427407
-1.07226
1.07938
-0.543406
0.536286
-1.0869
1.09471
-0.658393
0.650576
-1.10272
1.11077
-0.779261
0.771203
-1.11874
1.12642
-0.906689
0.899003
-1.13363
1.14012
-1.04127
1.03478
-1.14563
1.14984
-1.1835
1.17929
-1.1524
1.15289
-1.33373
1.33324
-1.15083
1.14567
-1.49214
1.4973
-1.13675
1.12332
-1.65862
1.67205
-1.10449
1.07919
-1.83248
1.85777
-1.04621
1.00412
-2.01157
2.05366
-0.95131
0.886087
-2.19055
2.25578
-0.806887
0.712906
-2.35914
2.45312
-0.604982
0.48857
-2.50215
2.61856
-0.349176
0.30687
-2.62195
2.66426
-0.0234353
0.0228698
0.998817
-1.00046
1.00296
-0.119959
0.117453
-1.00646
1.01093
-0.217343
0.212866
-1.01638
1.02278
-0.317053
0.310653
-1.03012
1.03836
-0.420066
0.411817
-1.04749
1.05747
-0.527539
0.517566
-1.06823
1.07972
-0.640697
0.629205
-1.09187
1.10458
-0.760584
0.747875
-1.11774
1.13123
-0.888188
0.874699
-1.14489
1.15854
-1.02451
1.01086
-1.17198
1.18493
-1.17058
1.15763
-1.19711
1.20815
-1.32748
1.31644
-1.21764
1.22506
-1.4964
1.48898
-1.22979
1.23107
-1.67869
1.6774
-1.22797
1.21932
-1.87584
1.88449
-1.20363
1.17902
-2.08892
2.11353
-1.14312
1.09295
-2.3166
2.36677
-1.02497
0.935368
-2.55172
2.64132
-0.820957
0.682973
-2.77606
2.91404
-0.514093
0.443777
-2.98849
3.05881
-0.0222719
0.0216252
0.963273
-0.965007
0.967971
-0.114655
0.111691
-0.972117
0.977446
-0.20785
0.20252
-0.98396
0.991658
-0.303441
0.295743
-1.00054
1.01061
-0.402446
0.392379
-1.02186
1.03428
-0.506109
0.49369
-1.04785
1.06256
-0.615797
0.601089
-1.07837
1.09525
-0.732736
0.715858
-1.11314
1.13199
-0.858157
0.839312
-1.1517
1.17219
-0.993401
0.972914
-1.19333
1.21496
-1.13997
1.11833
-1.2369
1.25893
-1.29959
1.27756
-1.28078
1.3021
-1.47443
1.45311
-1.32248
1.34139
-1.66739
1.64849
-1.35813
1.3718
-1.88256
1.86889
-1.3812
1.38466
-2.12565
2.12219
-1.37983
1.36345
-2.40346
2.41984
-1.33093
1.27588
-2.72192
2.77696
-1.19003
1.06138
-3.08206
3.21072
-0.890903
0.810647
-3.50485
3.5851
0.00395144
-0.000501048
-0.00345039
-0.000334558
-0.00243895
0.00277351
-0.00322289
0.0160307
-0.0128078
-0.0383031
0.065558
-0.0272548
-0.0889493
0.108126
-0.0191768
-0.127663
0.148081
-0.0204183
-0.157923
0.135618
0.0223049
-0.0651482
-0.0538906
0.119039
0.230367
-0.464965
0.234598
0.68085
-0.770853
0.0900027
0.728111
-0.582697
-0.145414
0.413295
-0.279211
-0.134084
0.174307
-0.0841361
-0.0901709
0.0102317
0.0326875
-0.0429191
-0.0386735
0.0174505
0.021223
0.0175181
-0.0483495
0.0308315
0.0644594
-0.0787478
0.0142885
0.118874
-0.200286
0.0814119
0.302629
-0.342522
0.039893
0.336304
-0.400336
0.0640322
0.336731
1.05121
-1.38794
-3.17546
4.85459
-1.67913
-5.93965
6.51395
-0.574296
-6.75742
6.86627
-0.108853
-6.95788
7.0533
-0.0954194
-7.10424
7.04691
0.0573325
-6.9543
6.90417
0.0501311
-6.87606
6.83716
0.0388972
-6.77384
6.6767
0.0971398
-6.58387
6.52848
0.0553858
-6.51565
6.55076
-0.0351148
-6.61944
6.66519
-0.0457545
-6.64665
6.5684
0.0782455
-6.44248
6.34156
0.100921
-6.28109
6.24259
0.0385033
-6.21354
6.18972
0.023821
-6.17256
6.15593
0.0166347
-6.13322
6.11594
0.0172773
-6.14354
6.23566
-0.0921154
-6.37167
6.48516
-0.113486
-6.54602
6.5459
0.000117524
-6.52811
6.51491
0.0131985
-6.50033
6.50609
-0.00575679
-6.53074
6.56141
-0.0306742
-6.47411
6.38977
0.0843407
-6.34087
6.34093
-5.43432e-05
-6.36949
6.41471
-0.0452235
-6.48069
6.56553
-0.0848413
-6.66832
6.81204
-0.14372
-6.98209
7.1106
-0.128509
-7.18349
7.36985
-0.18636
-7.68522
7.82603
-0.14081
-7.47963
6.77385
0.705786
-6.12026
5.7024
0.417862
-5.481
5.40292
0.0780772
-5.41002
5.48385
-0.0738275
-5.60508
5.73564
-0.130567
-5.85373
5.95113
-0.0974036
-6.01932
6.08045
-0.0611337
-6.1165
6.14412
-0.0276184
-0.0120344
0.0335026
-0.0214682
0.0210498
-0.026258
-0.00734785
0.0125561
0.0291718
-0.0274764
0.0187706
-0.020466
0.0191092
-0.00319211
0.0489049
-0.064822
-0.0153951
0.0312728
0.0369376
-0.0528153
-0.0432494
0.0506997
0.0310811
-0.0385314
-0.0491356
0.0307037
-0.0440618
0.0624938
0.0131004
-0.0771384
-0.202407
0.266445
0.150761
-0.240741
-0.374059
0.464039
0.361565
-0.486359
-0.20594
0.330734
0.552177
-0.528294
0.214082
-0.237966
0.452824
-0.359069
0.248362
-0.342116
0.268853
-0.191041
0.171755
-0.249568
0.12905
-0.0865378
0.0849512
-0.127463
0.0658086
-0.0633909
-0.0271181
0.0247005
0.0737406
-0.0895335
-0.0527909
0.0685838
0.102889
-0.11191
-0.0299613
0.0389824
0.132665
-0.169471
-0.147634
0.18444
0.68515
0.704632
-0.379652
-1.01013
-3.5541
5.03363
1.59983
-3.07936
-5.21394
5.31294
2.4306
-2.5296
-5.38174
5.47202
1.80218
-1.89246
-5.62266
5.82185
0.866491
-1.06568
-6.03412
6.22031
0.325232
-0.511424
-6.36181
6.46363
0.203821
-0.305639
-6.54661
6.62552
0.0157142
-0.094625
-6.68991
6.72556
-0.0281725
-0.00748489
-6.74191
6.75017
-0.0608666
0.0526079
-6.75413
6.75865
-0.11387
0.109353
-6.75926
6.75052
-0.0574404
0.0661822
-6.74011
6.72434
0.0214142
-0.005637
-6.70185
6.6801
0.0173218
0.00442723
-6.65763
6.64408
-0.122046
0.135599
-6.63224
6.61122
-0.127799
0.148814
-6.58338
6.55246
-0.0720376
0.102955
-6.52367
6.49278
-0.0581783
0.0890758
-6.46661
6.45363
-0.0277274
0.0407057
-6.45591
6.47599
-0.00630236
-0.0137811
-6.49211
6.49414
0.11302
-0.115053
-6.49025
6.48777
0.123061
-0.12059
-6.49822
6.51757
0.0243055
-0.0436537
-6.53622
6.55248
0.00724639
-0.0235029
-6.56432
6.56767
0.0104136
-0.0137669
-6.56564
6.56677
-0.0182865
0.0171518
-6.58203
6.60288
-0.0587724
0.0379285
-6.61966
6.63102
0.00916691
-0.0205191
-6.64331
6.66239
0.0686629
-0.0877402
-6.69188
6.73725
0.130411
-0.175788
-6.80008
6.87327
0.247609
-0.320803
-6.96373
7.08766
0.256995
-0.380922
-7.23433
7.35283
0.346409
-0.464903
-7.43842
7.54999
0.0134608
-0.125025
-7.68797
7.60805
-1.09861
1.17854
-6.70601
6.11265
-0.71282
1.30618
-5.86453
5.8354
-0.127091
0.156216
-5.92522
6.03578
0.149621
-0.260178
-6.13702
6.23173
0.245796
-0.340506
-6.31302
6.37928
0.179064
-0.245331
-6.4334
6.4724
0.10804
-0.147046
-6.50309
6.52582
0.0550081
-0.0777402
-0.0695486
0.136768
-0.0672191
0.0502589
-0.0546273
-0.0176035
0.0219719
0.0572223
-0.0603051
0.0188616
-0.0157788
0.0612485
-0.0569806
0.0749372
-0.0792051
0.0466369
-0.0346124
0.066811
-0.0788355
0.0246504
-0.0173996
0.04488
-0.0521307
0.0173814
-0.027594
-0.0762381
0.0864508
0.0602808
-0.107295
-0.319055
0.36607
0.144141
-0.17274
-0.517095
0.545694
0.219579
-0.325364
-0.450319
0.556104
0.43856
-0.467133
0.230578
-0.202004
0.448948
-0.399532
0.411713
-0.461129
0.334331
-0.269239
0.322588
-0.38768
0.21422
-0.176973
0.16797
-0.205217
0.156821
-0.148393
-0.0176764
0.00924839
0.149246
-0.157973
-0.0798256
0.0885523
0.173991
-0.218831
-0.0461591
0.0909989
0.252738
2.41752
-0.414462
-2.25579
-4.98096
4.96451
3.86386
-3.84741
-5.09299
5.20306
3.19557
-3.30564
-5.30982
5.41261
2.62319
-2.72598
-5.51421
5.62187
1.98825
-2.09592
-5.75163
5.9053
1.23138
-1.38504
-6.06677
6.21489
0.673045
-0.821167
-6.33548
6.42962
0.402618
-0.496759
-6.50885
6.58142
0.171545
-0.244118
-6.64179
6.6837
0.0482379
-0.0901455
-6.71228
6.73404
-0.0343783
0.0126156
-6.7517
6.76567
-0.0980239
0.0840538
-6.77277
6.76993
-0.0705009
0.0733393
-6.75882
6.74067
-0.0122778
0.0304268
-6.71759
6.69693
-0.0266773
0.0473374
-6.68566
6.6828
-0.140808
0.143667
-6.68005
6.67046
-0.163398
0.172984
-6.65441
6.6364
-0.128656
0.146668
-6.61958
6.60919
-0.104332
0.114729
-6.6017
6.59562
-0.0486269
0.0547125
-6.59313
6.59353
0.020081
-0.020484
-6.59068
6.58268
0.109268
-0.101273
-6.57408
6.57045
0.11759
-0.113957
-6.57627
6.58868
0.0586932
-0.0711015
-6.60185
6.61275
0.0356808
-0.0465793
-6.62095
6.62724
0.0187485
-0.0250408
-6.63409
6.64363
-0.00894725
-0.00058891
-6.65644
6.67144
-0.0204095
0.00540989
-6.68374
6.69101
0.0299868
-0.0372555
-6.6974
6.70708
0.102714
-0.112393
-6.72308
6.74524
0.208887
-0.231043
-6.76938
6.79244
0.364906
-0.387962
-6.81754
6.84717
0.456014
-0.485643
-6.8705
6.86655
0.536794
-0.532845
-6.87685
6.97684
0.222637
-0.32262
-7.00975
6.80358
-1.11434
1.32051
-6.85087
6.8826
-1.71113
1.6794
-6.79816
6.67801
-0.28359
0.403738
-6.58857
6.54393
0.223398
-0.178759
-6.55808
6.57941
0.402986
-0.424318
-6.60529
6.6325
0.291701
-0.318908
-6.65886
6.67987
0.176897
-0.197907
-6.69732
6.70934
0.0949285
-0.106944
-0.217986
0.278831
-0.0608446
0.0907218
-0.0946466
-0.0226736
0.0265984
0.0967846
-0.0978036
0.0157842
-0.0147652
0.102578
-0.112614
0.07629
-0.0662545
0.11847
-0.117273
0.085206
-0.0864033
0.108413
-0.0947008
0.0610633
-0.0747751
0.0832078
-0.084315
-0.092653
0.0937602
0.102808
-0.142572
-0.408086
0.44785
0.178423
-0.19036
-0.561341
0.573278
0.202254
-0.257319
-0.637977
0.693043
0.361545
-0.401199
0.163476
-0.123823
0.415598
-0.402963
0.491641
-0.504276
0.372193
-0.33228
0.441535
-0.481447
0.293772
-0.265385
0.237174
-0.265562
0.255856
-0.254614
-0.00266358
0.00142176
0.256898
-0.260195
-0.0964742
0.0997717
0.293092
2.63075
-0.00721031
-2.91663
-4.70339
4.73766
4.49374
-4.52801
-4.86199
4.97611
3.95666
-4.07078
-5.09578
5.22206
3.41947
-3.54575
-5.35055
5.47855
2.84017
-2.96817
-5.60449
5.73201
2.21356
-2.34108
-5.86554
6.00652
1.5301
-1.67109
-6.14675
6.27575
0.957441
-1.08644
-6.38416
6.47159
0.586853
-0.674281
-6.54334
6.60427
0.31021
-0.371142
-6.65358
6.69005
0.129631
-0.166095
-6.71624
6.73625
0.00892212
-0.0289363
-6.7523
6.76437
-0.070466
0.058401
-6.77046
6.7687
-0.0753832
0.0771399
-6.75951
6.74424
-0.0473567
0.0626258
-6.72584
6.70971
-0.065676
0.0818075
-6.70061
6.6984
-0.146014
0.148218
-6.69853
6.69645
-0.178298
0.180376
-6.69134
6.68487
-0.158262
0.164727
-6.67896
6.67505
-0.121558
0.125467
-6.67187
6.66825
-0.0595384
0.0631587
-6.66444
6.66024
0.0176501
-0.0134406
-6.65409
6.64604
0.0927867
-0.0847356
-6.63876
6.63579
0.110466
-0.107491
-6.63928
6.64807
0.0812248
-0.0900209
-6.6589
6.66908
0.0568094
-0.0669943
-6.67741
6.68453
0.0318144
-0.0389326
-6.69198
6.7008
0.00981359
-0.0186317
-6.71131
6.72249
0.00728567
-0.018474
-6.73078
6.73354
0.0421041
-0.0448676
-6.7321
6.72925
0.115853
-0.11301
-6.72754
6.72806
0.242161
-0.242685
-6.72886
6.72592
0.395756
-0.392814
-6.7137
6.68523
0.475364
-0.446896
-6.62358
6.51058
0.434646
-0.321647
-6.35843
6.15254
0.132101
0.0737851
-6.02116
6.20014
-1.30891
1.12993
-6.50299
6.72345
-1.4954
1.27495
-6.83426
6.87978
-0.458701
0.413184
-6.94057
6.92442
0.226213
-0.210062
-6.88037
6.85637
0.413873
-0.389867
-6.84719
6.84748
0.330152
-0.330444
-6.85288
6.85887
0.210567
-0.216553
-6.86471
6.86766
0.11401
-0.116959
-0.316393
0.334279
-0.0178861
0.0829343
-0.111574
-0.0428133
0.0714533
0.130153
-0.14311
0.00890444
0.00405249
0.155126
-0.170941
0.0517222
-0.0359071
0.18944
-0.1958
0.0834687
-0.0771081
0.192819
-0.183918
0.0890259
-0.0979268
0.166961
-0.147284
-0.0854015
0.0657247
0.149828
-0.203202
-0.489489
0.542863
0.250465
-0.258677
-0.583432
0.591644
0.253415
-0.27435
-0.721606
0.742541
0.306442
-0.340752
0.0868142
-0.0525046
0.374767
-0.39491
0.49978
-0.479637
0.400593
-0.395766
0.503431
-0.508259
0.383668
-0.348016
0.290896
-0.326548
0.399674
-0.532281
-0.0258009
0.158408
1.53064
0.882813
0.00899379
-2.42245
-4.41589
4.39929
5.23888
-5.22228
-4.54669
4.68322
4.67039
-4.80692
-4.82735
4.97451
4.20099
-4.34815
-5.12514
5.27588
3.68301
-3.83375
-5.42594
5.57116
3.10466
-3.24988
-5.71159
5.84631
2.47241
-2.60712
-5.97821
6.10653
1.80491
-1.93324
-6.22924
6.3403
1.20536
-1.31642
-6.43466
6.51124
0.756169
-0.832755
-6.57264
6.62225
0.425845
-0.475454
-6.66115
6.69019
0.19842
-0.227456
-6.71123
6.72692
0.0464818
-0.0621713
-6.73895
6.74768
-0.0483453
0.0396226
-6.75217
6.75148
-0.0785576
0.0792411
-6.74569
6.73582
-0.0753605
0.0852379
-6.72411
6.71396
-0.0950484
0.1052
-6.7084
6.70798
-0.149819
0.150246
-6.7107
6.71385
-0.179716
0.176573
-6.71609
6.71767
-0.166877
0.165303
-6.71927
6.72143
-0.126376
0.124208
-6.72311
6.723
-0.0651958
0.0653019
-6.7208
6.7171
0.00912294
-0.0054237
-6.71226
6.707
0.0779288
-0.0726672
-6.70294
6.70185
0.105361
-0.104271
-6.70512
6.71279
0.0979328
-0.105606
-6.72332
6.73418
0.0772764
-0.0881367
-6.7434
6.75101
0.0462001
-0.0538125
-6.75839
6.76657
0.0269544
-0.0351405
-6.77614
6.78638
0.0287139
-0.0389597
-6.79398
6.7948
0.046114
-0.0469298
-6.78756
6.77388
0.104285
-0.090603
-6.75571
6.73564
0.232796
-0.21272
-6.71599
6.69716
0.381283
-0.362453
-6.6729
6.63489
0.41028
-0.372273
-6.57503
6.48159
0.212939
-0.119506
-6.33983
6.23995
-0.230892
0.330775
-6.16678
6.28457
-0.989939
0.872147
-6.52901
6.84443
-1.00207
0.686655
-7.03956
7.11177
-0.312798
0.240587
-7.13138
7.1093
0.176241
-0.15416
-7.07936
7.05395
0.362599
-0.337188
-7.0375
7.02819
0.324252
-0.314939
-7.0231
7.01957
0.217141
-0.213602
-7.01718
7.01377
0.116405
-0.112999
-0.352651
0.379038
-0.0263861
0.0756824
-0.123019
-0.112041
0.159377
0.15657
-0.182233
-0.0237722
0.049435
0.203516
-0.222095
0.0198161
-0.00123749
0.239993
-0.258183
0.0650732
-0.0468829
0.274534
-0.287668
0.0976404
-0.084507
0.289504
-0.27353
-0.0382409
0.0222665
0.254904
-0.268192
-0.612033
0.625321
0.348253
-0.376843
-0.598327
0.626918
0.376916
-0.415322
-0.792627
0.831033
0.273829
-0.290027
0.024457
-0.00825856
0.337657
-0.385543
0.445347
-0.397462
0.427064
-0.462368
0.496264
-0.46096
0.533292
-1.31489
0.12374
0.657857
2.58708
0.997217
-0.592359
-2.99194
-4.17254
4.08331
5.99359
-5.90436
-4.21925
4.35901
5.3751
-5.51486
-4.51355
4.67926
4.95718
-5.12288
-4.85155
5.02632
4.50953
-4.6843
-5.19939
5.36674
3.99392
-4.16127
-5.52753
5.67825
3.39961
-3.55033
-5.81949
5.95005
2.74035
-2.87091
-6.07108
6.18213
2.05278
-2.16383
-6.28363
6.37366
1.41637
-1.50641
-6.44944
6.51124
0.90133
-0.963128
-6.56083
6.60079
0.519262
-0.559216
-6.63277
6.65791
0.253484
-0.278621
-6.6775
6.69292
0.0767637
-0.0921897
-6.70532
6.71515
-0.03123
0.021404
-6.72191
6.72536
-0.0783427
0.0748927
-6.72561
6.72339
-0.09146
0.0936768
-6.72014
6.71778
-0.111559
0.113926
-6.71814
6.72211
-0.148739
0.144771
-6.72914
6.73766
-0.170859
0.162342
-6.74624
6.75451
-0.160399
0.152124
-6.7628
6.7714
-0.118917
0.110326
-6.77925
6.78418
-0.0630992
0.0581631
-6.78529
6.78408
0.00287897
-0.00166558
-6.78207
6.78028
0.0692204
-0.067424
-6.77965
6.78082
0.104349
-0.105518
-6.78441
6.79157
0.113028
-0.120187
-6.80235
6.81463
0.0996048
-0.11189
-6.82534
6.83387
0.061731
-0.0702642
-6.84203
6.85063
0.0432927
-0.0518923
-6.8604
6.87181
0.0496061
-0.0610127
-6.88262
6.88707
0.0487031
-0.0531516
-6.88053
6.8639
0.0740428
-0.0574065
-6.83606
6.79618
0.182894
-0.143014
-6.75175
6.71685
0.3366
-0.301697
-6.68915
6.65978
0.338006
-0.30863
-6.62696
6.59942
0.0643313
-0.0367921
-6.58699
6.62637
-0.414273
0.374887
-6.78175
6.9234
-0.70661
0.564968
-7.0556
7.1395
-0.521372
0.437471
-7.19047
7.22391
-0.199815
0.166377
-7.23929
7.23607
0.142947
-0.139731
-7.22216
7.20682
0.316736
-0.301395
-7.19421
7.18385
0.304651
-0.294295
-7.17424
7.16483
0.207002
-0.197592
-7.15674
7.14926
0.107375
-0.0998935
-0.422058
0.486193
-0.064135
0.0971254
-0.139122
-0.205803
0.247799
0.175577
-0.208126
-0.0793161
0.111866
0.237164
-0.261089
-0.0196527
0.0435777
0.281633
-0.304773
0.0255503
-0.00240974
0.33197
-0.365288
0.0595117
-0.0261939
0.404803
-0.457802
-0.0413896
0.0943882
0.461761
-0.395305
-0.57223
0.505775
0.351606
-0.394434
-0.706918
0.749746
0.374305
-0.201867
-0.692228
0.51979
0.205806
-0.241504
-0.00902358
0.0447216
0.302016
-0.369407
0.338149
-0.270759
0.440725
-0.561525
0.390841
-0.270042
0.698165
-1.07673
-1.55622
1.93479
-3.24513
3.88296
5.88362
-6.52145
-3.95103
4.055
6.01168
-6.11565
-4.19324
4.35792
5.66554
-5.83023
-4.53889
4.72833
5.2991
-5.48854
-4.92006
5.10871
4.86633
-5.05498
-5.28976
5.45989
4.33172
-4.50185
-5.6177
5.75967
3.69786
-3.83982
-5.88873
6.0036
2.99372
-3.10858
-6.10609
6.19484
2.26282
-2.35158
-6.27337
6.34331
1.58521
-1.65514
-6.40356
6.45532
1.01787
-1.06963
-6.50033
6.53999
0.596702
-0.636362
-6.57512
6.60632
0.30484
-0.336044
-6.63379
6.65773
0.110414
-0.134352
-6.67832
6.69622
-0.00843226
-0.00946934
-6.71042
6.7213
-0.0680387
0.057162
-6.72931
6.7352
-0.09166
0.08577
-6.74011
6.74531
-0.112245
0.107039
-6.75196
6.76093
-0.138166
0.129197
-6.77286
6.78696
-0.151046
0.136952
-6.80152
6.81568
-0.140875
0.126717
-6.82965
6.84397
-0.0987504
0.0844343
-6.85819
6.86941
-0.0502684
0.0390489
-6.87483
6.87663
0.00186574
-0.00366136
-6.87717
6.87749
0.0670001
-0.0673174
-6.87887
6.88165
0.107569
-0.11035
-6.88486
6.88995
0.126542
-0.131625
-6.89885
6.91115
0.124467
-0.136768
-6.92346
6.93384
0.0794744
-0.0898568
-6.94494
6.95605
0.0613221
-0.0724306
-6.96663
6.97737
0.0724816
-0.0832129
-6.9895
7.0027
0.0617756
-0.0749711
-7.00724
6.99789
0.0440811
-0.0347248
-6.97714
6.92412
0.0937323
-0.0407165
-6.82568
6.76268
0.255815
-0.192811
-6.73839
6.72635
0.28704
-0.275001
-6.72112
6.72939
0.0287399
-0.0370114
-6.76322
6.83249
-0.3119
0.242636
-6.9314
7.03836
-0.44216
0.335194
-7.13932
7.21932
-0.357986
0.277991
-7.2769
7.31618
-0.130167
0.0908897
-7.34046
7.35065
0.143456
-0.15364
-7.34886
7.34165
0.290812
-0.283602
-7.33324
7.32336
0.284395
-0.274512
-7.31042
7.29565
0.18581
-0.171037
-7.28305
7.27352
0.0911315
-0.0815945
-0.563209
0.644601
-0.0813919
0.119304
-0.158782
-0.286968
0.326445
0.194196
-0.22724
-0.144967
0.178011
0.258534
-0.287249
-0.0700464
0.0987618
0.312948
-0.339228
-0.0218623