/*--------------------------------*- C++ -*----------------------------------*\
| =========                 |                                                 |
| \\      /  F ield         | OpenFOAM: The Open Source CFD Toolbox           |
|  \\    /   O peration     | Version:  v1912                                 |
|   \\  /    A nd           | Website:  www.openfoam.com                      |
|    \\/     M anipulation  |                                                 |
\*---------------------------------------------------------------------------*/
FoamFile
{
    version     2.0;
    format      ascii;
    class       volVectorField;
    location    "44";
    object      U;
}
// * * * * * * * * * * * * * * * * * * * * * * * * * * * * * * * * * * * * * //

dimensions      [0 1 -1 0 0 0 0];


internalField   nonuniform List<vector> 
20320
(
(1.85535 0.00630909 0)
(1.854 -0.00537131 0)
(1.83853 0.00439894 0)
(1.80908 0.0122874 0)
(1.76809 0.0194395 0)
(1.71678 0.0261967 0)
(1.65519 0.0326251 0)
(1.5836 0.0388072 0)
(1.50251 0.0445819 0)
(1.4124 0.0499852 0)
(1.3139 0.0550476 0)
(1.20747 0.0597862 0)
(1.09372 0.0640169 0)
(0.973388 0.0681623 0)
(0.846828 0.0721251 0)
(0.714521 0.0763735 0)
(0.576079 0.0812788 0)
(0.430635 0.0889273 0)
(0.274887 0.100987 0)
(0.10224 0.110106 0)
(1.85546 0.0112576 0)
(1.8469 0.0357122 0)
(1.82755 0.0667209 0)
(1.79726 0.0978482 0)
(1.75597 0.128422 0)
(1.70399 0.158323 0)
(1.64166 0.187344 0)
(1.56932 0.215323 0)
(1.48734 0.242126 0)
(1.39619 0.267669 0)
(1.29632 0.29184 0)
(1.18821 0.314522 0)
(1.0723 0.335601 0)
(0.949031 0.354835 0)
(0.818978 0.371999 0)
(0.682798 0.386982 0)
(0.541409 0.399763 0)
(0.396152 0.411379 0)
(0.249406 0.42491 0)
(0.10406 0.459277 0)
(1.85545 0.0170516 0)
(1.84695 0.0698949 0)
(1.82742 0.125448 0)
(1.79692 0.180531 0)
(1.7556 0.234768 0)
(1.70361 0.287724 0)
(1.64119 0.339072 0)
(1.56869 0.388559 0)
(1.48652 0.435929 0)
(1.39515 0.480954 0)
(1.29512 0.523481 0)
(1.18703 0.563423 0)
(1.07146 0.600722 0)
(0.948922 0.635263 0)
(0.819832 0.666718 0)
(0.684588 0.69444 0)
(0.543695 0.717547 0)
(0.397947 0.735419 0)
(0.248779 0.749566 0)
(0.100015 0.785052 0)
(1.85545 0.0228392 0)
(1.8472 0.0998179 0)
(1.82803 0.179155 0)
(1.79785 0.257595 0)
(1.75684 0.334698 0)
(1.70519 0.410049 0)
(1.64312 0.483238 0)
(1.57089 0.553826 0)
(1.48884 0.621375 0)
(1.39736 0.685481 0)
(1.29699 0.745796 0)
(1.18834 0.802096 0)
(1.07218 0.8543 0)
(0.949311 0.902458 0)
(0.820455 0.946551 0)
(0.686137 0.986094 0)
(0.546692 1.0198 0)
(0.402425 1.04572 0)
(0.253738 1.06317 0)
(0.102918 1.09718 0)
(1.85545 0.0283043 0)
(1.84734 0.127856 0)
(1.82848 0.229506 0)
(1.79877 0.33006 0)
(1.75835 0.42901 0)
(1.70739 0.525858 0)
(1.64606 0.620098 0)
(1.57458 0.711184 0)
(1.49322 0.798543 0)
(1.40233 0.881603 0)
(1.30234 0.95981 0)
(1.19378 1.03267 0)
(1.07733 1.09981 0)
(0.953837 1.16113 0)
(0.824241 1.21671 0)
(0.689419 1.26652 0)
(0.54995 1.30963 0)
(0.40604 1.34362 0)
(0.257522 1.36619 0)
(0.104918 1.40197 0)
(1.85545 0.0334394 0)
(1.84754 0.154332 0)
(1.82916 0.277101 0)
(1.80017 0.398657 0)
(1.76068 0.518421 0)
(1.71077 0.635834 0)
(1.65058 0.750313 0)
(1.58024 0.861206 0)
(1.49995 0.967816 0)
(1.41001 1.06943 0)
(1.31077 1.16531 0)
(1.20267 1.25475 0)
(1.0863 1.33709 0)
(0.962403 1.41187 0)
(0.831916 1.47896 0)
(0.695898 1.5385 0)
(0.555261 1.59008 0)
(0.410479 1.63159 0)
(0.26138 1.65982 0)
(0.106884 1.69875 0)
(1.85545 0.0382044 0)
(1.84784 0.179064 0)
(1.83013 0.321606 0)
(1.80216 0.462901 0)
(1.76397 0.60234 0)
(1.71558 0.739323 0)
(1.65702 0.873212 0)
(1.58833 1.00326 0)
(1.50961 1.12866 0)
(1.42105 1.24854 0)
(1.32291 1.36201 0)
(1.21555 1.46814 0)
(1.09944 1.56601 0)
(0.975242 1.65482 0)
(0.843806 1.73405 0)
(0.706235 1.80366 0)
(0.563677 1.86357 0)
(0.416959 1.91218 0)
(0.266177 1.94599 0)
(0.108961 1.98767 0)
(1.85545 0.0425547 0)
(1.84825 0.201846 0)
(1.83145 0.362665 0)
(1.80487 0.522312 0)
(1.76846 0.68018 0)
(1.72214 0.835672 0)
(1.66583 0.988119 0)
(1.59942 1.1367 0)
(1.52288 1.28049 0)
(1.43627 1.41848 0)
(1.33969 1.54961 0)
(1.23338 1.67273 0)
(1.11773 1.78665 0)
(0.993254 1.89023 0)
(0.860735 1.98252 0)
(0.721242 2.06305 0)
(0.576078 2.13173 0)
(0.42641 2.18734 0)
(0.272726 2.22634 0)
(0.111152 2.2699 0)
(1.85545 0.0464395 0)
(1.84878 0.222447 0)
(1.83319 0.399877 0)
(1.80843 0.576331 0)
(1.77438 0.75126 0)
(1.73082 0.924107 0)
(1.6775 1.09421 0)
(1.61417 1.26072 0)
(1.54061 1.42258 0)
(1.45666 1.57866 0)
(1.36227 1.7277 0)
(1.25749 1.86834 0)
(1.14255 1.9991 0)
(1.01784 2.11848 0)
(0.884038 2.22505 0)
(0.742147 2.31779 0)
(0.593573 2.39631 0)
(0.439825 2.45958 0)
(0.281892 2.50408 0)
(0.11362 2.54811 0)
(1.85546 0.0498051 0)
(1.84946 0.240609 0)
(1.8354 0.432785 0)
(1.81299 0.624323 0)
(1.78196 0.814783 0)
(1.74198 1.00371 0)
(1.69258 1.1905 0)
(1.63332 1.37427 0)
(1.56373 1.55392 0)
(1.48341 1.72818 0)
(1.39206 1.89561 0)
(1.28948 2.05458 0)
(1.17569 2.2033 0)
(1.0509 2.33987 0)
(0.915607 2.46234 0)
(0.770752 2.56903 0)
(0.617811 2.65894 0)
(0.458651 2.73091 0)
(0.294767 2.78132 0)
(0.116554 2.8244 0)
(1.85546 0.0525967 0)
(1.8503 0.256065 0)
(1.83815 0.460915 0)
(1.81865 0.665609 0)
(1.79143 0.869882 0)
(1.75595 1.07344 0)
(1.71158 1.2758 0)
(1.65758 1.47611 0)
(1.59323 1.67326 0)
(1.51781 1.86586 0)
(1.43067 2.0523 0)
(1.3313 2.2307 0)
(1.21937 2.3989 0)
(1.09482 2.55456 0)
(0.957908 2.69514 0)
(0.809424 2.81814 0)
(0.650864 2.92169 0)
(0.484478 3.00413 0)
(0.312272 3.06149 0)
(0.11954 3.10281 0)
(1.85546 0.0547641 0)
(1.85131 0.268554 0)
(1.84146 0.483788 0)
(1.82549 0.699492 0)
(1.8029 0.915639 0)
(1.77299 1.13217 0)
(1.73489 1.34878 0)
(1.6876 1.56476 0)
(1.63006 1.779 0)
(1.56115 1.99009 0)
(1.47983 2.19629 0)
(1.38511 2.39545 0)
(1.2762 2.58509 0)
(1.1526 2.76234 0)
(1.01418 2.92397 0)
(0.861427 3.06652 0)
(0.695782 3.18691 0)
(0.51994 3.2825 0)
(0.336855 3.34849 0)
(0.125618 3.38718 0)
(1.85546 0.0562672 0)
(1.85248 0.277845 0)
(1.84533 0.500981 0)
(1.8335 0.725331 0)
(1.8164 0.951168 0)
(1.79318 1.17874 0)
(1.76275 1.40803 0)
(1.72382 1.63851 0)
(1.67496 1.86922 0)
(1.61464 2.09881 0)
(1.54127 2.32548 0)
(1.45329 2.54694 0)
(1.34924 2.76036 0)
(1.22795 2.96237 0)
(1.08863 3.14897 0)
(0.93119 3.31554 0)
(0.756783 3.4574 0)
(0.56847 3.57036 0)
(0.370497 3.64828 0)
(0.134599 3.68361 0)
(1.85547 0.0570803 0)
(1.85381 0.28377 0)
(1.84969 0.512162 0)
(1.84258 0.742593 0)
(1.83181 0.975687 0)
(1.81641 1.21207 0)
(1.7951 1.45209 0)
(1.76635 1.69554 0)
(1.72837 1.94172 0)
(1.67916 2.18946 0)
(1.61654 2.4371 0)
(1.53821 2.68233 0)
(1.44186 2.92215 0)
(1.32529 3.15275 0)
(1.18665 3.36937 0)
(1.0248 3.56604 0)
(0.840107 3.73597 0)
(0.635676 3.87245 0)
(0.417279 3.96677 0)
(0.14802 3.99823 0)
(1.85547 0.0571983 0)
(1.85525 0.286242 0)
(1.85445 0.51714 0)
(1.85255 0.750927 0)
(1.84884 0.988609 0)
(1.8423 1.23124 0)
(1.83154 1.47963 0)
(1.81485 1.73399 0)
(1.79013 1.99403 0)
(1.75498 2.25899 0)
(1.7066 2.52753 0)
(1.64187 2.79762 0)
(1.55739 3.06637 0)
(1.44958 3.32983 0)
(1.31494 3.58269 0)
(1.15047 3.81763 0)
(0.95472 4.02529 0)
(0.730014 4.19517 0)
(0.483558 4.31408 0)
(0.168384 4.34231 0)
(1.85548 0.0566385 0)
(1.85677 0.28528 0)
(1.85947 0.51591 0)
(1.86311 0.750237 0)
(1.86702 0.989649 0)
(1.87019 1.23566 0)
(1.87124 1.4896 0)
(1.86838 1.7522 0)
(1.85939 2.02375 0)
(1.84152 2.30407 0)
(1.81149 2.59247 0)
(1.76538 2.88757 0)
(1.69862 3.18707 0)
(1.60593 3.48751 0)
(1.48146 3.78363 0)
(1.31915 4.06732 0)
(1.114 4.3265 0)
(0.865381 4.54545 0)
(0.580699 4.70355 0)
(0.199396 4.73659 0)
(1.85548 0.0554421 0)
(1.8583 0.28102 0)
(1.86458 0.508674 0)
(1.87391 0.740725 0)
(1.88573 0.978908 0)
(1.89916 1.22518 0)
(1.91296 1.48142 0)
(1.92542 1.74895 0)
(1.93437 2.02873 0)
(1.937 2.3214 0)
(1.92976 2.62719 0)
(1.90819 2.9458 0)
(1.86671 3.2762 0)
(1.79835 3.61634 0)
(1.69444 3.96234 0)
(1.54455 4.30686 0)
(1.33726 4.63639 0)
(1.06421 4.9293 0)
(0.727876 5.15275 0)
(0.247135 5.21488 0)
(1.85548 0.0536717 0)
(1.8598 0.273712 0)
(1.86958 0.495847 0)
(1.88454 0.72291 0)
(1.90427 0.956916 0)
(1.92813 1.20021 0)
(1.95513 1.45517 0)
(1.98386 1.72374 0)
(2.01244 2.00759 0)
(2.03831 2.30825 0)
(2.05808 2.62713 0)
(2.06727 2.96538 0)
(2.05987 3.32392 0)
(2.02783 3.7032 0)
(1.96009 4.10271 0)
(1.84138 4.519 0)
(1.65118 4.94146 0)
(1.36572 5.34624 0)
(0.970224 5.68543 0)
(0.357578 5.81927 0)
(1.85549 0.0514065 0)
(1.86121 0.263703 0)
(1.8743 0.478034 0)
(1.8946 0.697614 0)
(1.92194 0.924641 0)
(1.95594 1.16174 0)
(1.99601 1.41173 0)
(2.04123 1.67705 0)
(2.09023 1.96004 0)
(2.14109 2.26313 0)
(2.19109 2.58889 0)
(2.23644 2.9401 0)
(2.27179 3.31994 0)
(2.28944 3.7323 0)
(2.27793 4.18187 0)
(2.21938 4.67328 0)
(2.0851 5.20711 0)
(1.82995 5.77113 0)
(1.39396 6.31855 0)
(0.601528 6.65203 0)
(1.85549 0.0487371 0)
(1.86248 0.251416 0)
(1.87857 0.455984 0)
(1.90375 0.6659 0)
(1.93807 0.883426 0)
(1.98151 1.11135 0)
(2.03393 1.35277 0)
(2.09498 1.61047 0)
(2.16406 1.88731 0)
(2.24019 2.18639 0)
(2.32181 2.51127 0)
(2.40658 2.8661 0)
(2.49102 3.2561 0)
(2.56988 3.68841 0)
(2.6348 4.17342 0)
(2.6715 4.72624 0)
(2.65339 5.36693 0)
(2.52834 6.1176 0)
(2.1857 6.99268 0)
(1.32996 7.82634 0)
(0.00568413 -0.0112778 0)
(-0.0152987 0.00197402 0)
(0.0397254 -0.0195337 0)
(0.21517 -0.0366266 5.00917e-21)
(0.393588 -0.0240219 0)
(0.542974 -0.0342393 0)
(0.588214 0.0223084 0)
(0.00031716 0.167951 0)
(-1.41676 0.356574 0)
(-2.98245 0.0676447 -1.61621e-21)
(-2.45343 -0.263456 0)
(-1.23644 -0.197528 0)
(-0.436343 -0.134099 -1.7553e-21)
(0.102202 -0.06393 -5.34177e-22)
(0.115053 0.0407165 0)
(-0.156076 0.0523884 -8.3155e-21)
(-0.277513 0.0205605 7.10345e-21)
(-0.62498 0.161638 -4.9091e-21)
(-1.31133 0.020756 0)
(-1.32448 0.307726 -2.83166e-20)
(-1.88201 -1.60551 1.79854e-19)
(18.0543 -3.25037 1.53814e-18)
(23.8702 -1.09055 5.37494e-19)
(26.301 -0.0132871 -2.96371e-19)
(27.0736 -0.167356 0)
(27.3899 0.250491 -9.91912e-20)
(26.6173 0.0831967 0)
(26.4413 0.00128563 2.71891e-20)
(25.8646 0.27771 3.17122e-20)
(25.1601 0.171491 0)
(25.1563 -0.269849 7.23071e-21)
(25.7213 -0.339105 -3.07362e-20)
(25.4351 0.159527 1.77936e-21)
(24.4558 0.355857 3.4175e-21)
(24.0097 0.0756674 0)
(23.7704 0.0236275 0)
(23.6194 0.0408115 -8.24105e-22)
(23.4082 0.0226223 0)
(23.6824 -0.527988 3.2698e-22)
(24.9788 -0.62365 0)
(25.1537 0.0925585 0)
(24.828 0.150413 -7.53001e-22)
(24.7415 -0.0603187 0)
(25.0911 -0.4557 0)
(24.7714 0.172243 -2.3584e-21)
(24.431 -0.00178057 5.63185e-20)
(24.6442 -0.106652 0)
(25.1142 -0.200611 -1.74227e-20)
(25.9648 -0.23369 4.83022e-22)
(27.2169 -0.252995 9.00526e-21)
(27.7909 -0.00451758 0)
(30.3576 -0.766392 -8.91907e-22)
(27.4091 0.872859 0)
(22.5361 0.498575 1.33467e-21)
(20.8553 0.0964738 0)
(20.9328 -0.0979282 0)
(21.846 -0.165786 -1.31694e-24)
(22.7705 -0.126876 5.30341e-25)
(23.2999 -0.0888347 0)
(23.5829 -0.0282041 0)
(-0.0807641 0.04237 0)
(-0.101112 0.0200142 0)
(-0.0920285 -0.0407647 -2.82996e-21)
(0.00667445 -0.11595 0)
(0.133487 -0.0905448 0)
(0.212753 -0.06948 4.18711e-21)
(0.12352 0.109027 5.47454e-22)
(-0.366733 0.476698 0)
(-1.05909 0.84619 5.80884e-24)
(-1.8737 0.536531 3.69437e-21)
(-1.92341 -0.458629 -7.47526e-24)
(-1.30094 -0.594223 -5.83935e-22)
(-0.691029 -0.417609 -5.91795e-22)
(-0.305321 -0.210173 0)
(-0.248843 0.0528693 0)
(-0.355724 0.122381 5.44391e-21)
(-0.424725 0.0680111 0)
(-0.703883 0.304918 0)
(-4.92018 2.04536 8.9445e-21)
(20.7956 -5.84839 0)
(21.6007 -5.01562 0)
(21.7148 -3.78245 0)
(22.1817 -1.92284 7.18479e-20)
(23.4676 -0.830314 -6.90663e-20)
(24.4466 -0.505058 5.0238e-20)
(24.9544 -0.101769 3.05071e-20)
(25.3997 0.0150724 0)
(25.4992 0.112706 0)
(25.5024 0.226705 9.26477e-21)
(25.5299 0.127537 -3.17173e-24)
(25.487 -0.0508729 0)
(25.3259 -0.035105 -2.34822e-23)
(25.0958 0.255527 -1.77174e-22)
(24.9927 0.290983 0)
(24.8101 0.177807 0)
(24.5978 0.149039 -9.30178e-22)
(24.4154 0.072548 0)
(24.4547 -0.0144337 0)
(24.6195 -0.260074 0)
(24.5906 -0.250844 -8.96257e-23)
(24.6241 -0.065376 -6.23419e-22)
(24.7659 -0.0277497 1.81238e-21)
(24.8532 -0.0254404 -7.57569e-22)
(24.8277 0.0362326 0)
(24.9287 0.0839753 3.2436e-22)
(25.0762 -0.035312 0)
(25.1863 -0.161661 -2.59787e-22)
(25.4166 -0.31575 2.68972e-22)
(25.8735 -0.578943 9.19767e-22)
(26.4698 -0.649583 -1.24598e-21)
(27.3406 -0.79869 2.59963e-21)
(27.5103 -0.257766 -3.97987e-22)
(27.1944 1.73054 -4.44214e-21)
(24.0895 1.16853 0)
(21.9665 0.275354 0)
(22.7038 -0.399843 0)
(23.4192 -0.596518 0)
(24.034 -0.431932 -3.72976e-22)
(24.4316 -0.258164 2.45712e-22)
(24.6501 -0.134347 0)
(-0.332448 0.193688 0)
(-0.21581 0.0397787 -2.43124e-21)
(-0.201797 -0.0332562 0)
(-0.15252 -0.155772 -3.33846e-21)
(-0.0838107 -0.146263 -4.8519e-21)
(-0.0312263 -0.0947938 -4.48353e-21)
(-0.140129 0.161749 0)
(-0.608237 0.676381 3.56172e-21)
(-1.03639 1.05993 0)
(-1.40832 1.00083 0)
(-1.57561 -0.434984 0)
(-1.24449 -0.873406 0)
(-0.834995 -0.708314 0)
(-0.564783 -0.371793 0)
(-0.567713 0.0261706 0)
(-0.634815 0.162947 0)
(-0.692611 0.127571 0)
(-1.54943 1.00506 2.52116e-18)
(20.7962 -7.56278 0)
(21.3356 -6.51848 0)
(21.6824 -5.30273 0)
(21.9871 -4.03068 0)
(22.4521 -2.59167 0)
(23.2935 -1.48683 0)
(24.008 -0.893534 0)
(24.4552 -0.415111 0)
(24.8188 -0.137564 0)
(24.9805 0.0471252 0)
(25.0772 0.180738 8.71399e-21)
(25.139 0.143074 0)
(25.082 0.0429212 -3.87021e-21)
(24.9059 0.0745226 0)
(24.7727 0.282091 0)
(24.7418 0.334798 0)
(24.6397 0.276378 0)
(24.534 0.218711 0)
(24.502 0.102439 -8.49135e-22)
(24.5125 -0.040436 0)
(24.5218 -0.208818 0)
(24.4596 -0.228923 0)
(24.482 -0.129131 2.69661e-22)
(24.5721 -0.0818634 -6.25555e-22)
(24.6268 -0.043259 3.33046e-22)
(24.6703 0.00831782 0)
(24.7637 0.02508 2.55646e-22)
(24.867 -0.0672632 0)
(24.9306 -0.214973 0)
(25.0712 -0.439048 0)
(25.2875 -0.75149 0)
(25.5111 -0.94794 -8.68956e-22)
(25.7936 -1.04214 0)
(25.826 -0.493925 2.9818e-20)
(25.5507 2.72164 0)
(25.2419 3.44686 0)
(24.9924 0.735599 -3.35101e-21)
(24.3738 -0.333831 -6.18923e-21)
(24.4341 -0.836101 2.05395e-21)
(24.6147 -0.613122 -2.8255e-22)
(24.7997 -0.375369 0)
(24.9218 -0.202446 -1.73333e-23)
(-0.414179 0.491542 0)
(-0.360153 0.0450504 0)
(-0.339653 -0.0318057 0)
(-0.32497 -0.142587 0)
(-0.35519 -0.171196 2.03627e-21)
(-0.313103 -0.134166 0)
(-0.37812 0.188655 0)
(-0.814761 0.854673 -2.46437e-23)
(-1.17201 1.12048 0)
(-1.35166 1.3262 4.32274e-23)
(-1.32732 -0.279907 3.25237e-21)
(-1.11335 -0.9909 0)
(-0.924343 -0.91825 0)
(-0.812017 -0.496526 -4.76542e-24)
(-0.933324 -0.000733179 2.12948e-23)
(-1.02049 0.224314 -2.22092e-23)
(1.05251 -1.01775 5.74908e-18)
(20.1505 -8.87616 0)
(20.7031 -7.92487 3.20559e-20)
(21.1605 -6.85517 0)
(21.664 -5.71794 -1.95054e-22)
(22.1417 -4.48618 2.10214e-22)
(22.6575 -3.15865 -2.03494e-22)
(23.3077 -2.01996 4.49121e-20)
(23.8566 -1.24624 -3.75163e-20)
(24.2075 -0.675087 0)
(24.454 -0.293857 0)
(24.5739 -0.0386777 -3.21353e-23)
(24.6471 0.125881 2.21652e-23)
(24.6854 0.150325 0)
(24.6295 0.109458 3.55989e-21)
(24.4878 0.146663 0)
(24.3889 0.290201 0)
(24.3771 0.354855 0)
(24.3508 0.320505 -1.67459e-21)
(24.3266 0.24501 0)
(24.3292 0.121719 0)
(24.3318 -0.0308798 -6.85488e-22)
(24.3125 -0.174525 1.39086e-21)
(24.2653 -0.214533 -3.75385e-22)
(24.281 -0.169337 -7.45613e-22)
(24.3513 -0.122122 0)
(24.4037 -0.069651 -8.01642e-22)
(24.4518 -0.0283149 0)
(24.528 -0.0260779 -3.00044e-22)
(24.5955 -0.0867383 4.17472e-22)
(24.601 -0.228791 0)
(24.6137 -0.483449 3.46665e-23)
(24.6476 -0.782048 0)
(24.5952 -0.914973 -1.84516e-22)
(24.505 -0.770103 8.82123e-22)
(23.3009 -0.0998667 -2.24409e-19)
(22.1059 2.36904 9.24708e-21)
(24.0165 2.76695 8.80959e-21)
(25.0036 1.01985 0)
(25.3706 -0.452119 1.05668e-21)
(25.0912 -0.795497 -1.68208e-22)
(25.0092 -0.655029 1.70934e-22)
(25.0391 -0.423958 0)
(25.0762 -0.229557 0)
(-0.282293 0.642541 -3.14854e-21)
(-0.412425 0.106879 1.9238e-21)
(-0.489216 -0.00792546 0)
(-0.540232 -0.0868632 -1.86784e-21)
(-0.625949 -0.161075 2.13479e-21)
(-0.596848 -0.18639 0)
(-0.623561 0.150387 0)
(-1.02907 0.956184 -1.02875e-22)
(-1.43321 1.15624 1.29417e-23)
(-1.52644 1.44177 -4.40078e-21)
(-1.13109 -0.137712 -5.73845e-22)
(-0.998249 -0.967648 -2.51058e-23)
(-1.03934 -1.00299 -2.2842e-22)
(-1.11926 -0.593125 0)
(-1.60212 -0.00315323 6.59493e-22)
(-9.85925 1.12611 9.70185e-18)
(19.1215 -10.1375 0)
(19.8597 -9.29544 -2.92271e-20)
(20.4886 -8.38046 -3.14183e-20)
(21.1558 -7.37184 0)
(21.791 -6.23408 3.55921e-20)
(22.3419 -4.98509 -1.8813e-22)
(22.83 -3.67261 0)
(23.3119 -2.48099 0)
(23.6969 -1.5638 3.22715e-20)
(23.931 -0.888114 8.98719e-23)
(24.0713 -0.420145 0)
(24.1339 -0.107786 0)
(24.168 0.0856608 2.91339e-23)
(24.1828 0.155293 0)
(24.1413 0.15918 -5.9795e-21)
(24.0495 0.198244 -7.07676e-24)
(23.9887 0.295286 8.86683e-22)
(23.9978 0.35082 -1.69001e-21)
(24.0222 0.327719 1.57472e-21)
(24.0535 0.247458 1.73108e-21)
(24.0906 0.129116 0)
(24.1034 -0.013776 -2.22449e-25)
(24.0925 -0.146951 0)
(24.0723 -0.20519 4.59156e-22)
(24.0931 -0.199879 4.45527e-22)
(24.1607 -0.162079 5.59177e-22)
(24.2163 -0.0979113 4.88549e-22)
(24.2631 -0.0609103 -3.44862e-22)
(24.3321 -0.0662471 3.40197e-22)
(24.3883 -0.090885 4.4936e-22)
(24.3483 -0.192502 -1.0166e-22)
(24.2431 -0.441605 8.58765e-26)
(24.128 -0.73412 -1.64415e-22)
(23.952 -0.767274 2.66751e-22)
(23.6372 -0.30939 -2.38253e-21)
(22.9912 0.677405 0)
(22.1017 1.86087 -6.63582e-21)
(23.968 1.93868 1.56136e-20)
(25.373 0.4073 0)
(25.5655 -0.320143 1.00847e-21)
(25.3623 -0.68459 -3.8771e-24)
(25.2352 -0.628185 -9.60871e-25)
(25.1901 -0.424433 0)
(25.1685 -0.226353 6.04599e-24)
(-0.365005 0.707908 -3.01476e-21)
(-0.492317 0.263941 0)
(-0.635697 0.0693138 9.37864e-24)
(-0.738626 -0.0214563 0)
(-0.827722 -0.111306 0)
(-0.912072 -0.183865 -2.83124e-21)
(-1.03074 0.050915 0)
(-1.44588 1.35671 1.92238e-20)
(-1.75385 1.15216 3.84045e-20)
(-2.09976 1.59629 -6.86464e-19)
(-0.95263 -0.0299501 -6.19379e-21)
(-0.938478 -0.829306 -1.32424e-21)
(-1.18992 -0.947762 -2.05734e-20)
(-1.82408 0.133132 -3.08572e-19)
(-7.52093 0.574927 0)
(18.3582 -11.4169 3.75708e-20)
(18.9627 -10.6339 0)
(19.6954 -9.84001 0)
(20.5243 -8.97754 6.86173e-20)
(21.3254 -7.96638 0)
(22.0012 -6.79025 0)
(22.5169 -5.48536 -3.80846e-20)
(22.8934 -4.12468 -7.38121e-20)
(23.1851 -2.86006 0)
(23.3898 -1.8234 -2.72443e-20)
(23.502 -1.05378 0)
(23.5682 -0.518721 1.32714e-20)
(23.605 -0.163397 0)
(23.6338 0.0528398 1.08497e-20)
(23.6568 0.151421 0)
(23.6518 0.183099 -2.23023e-21)
(23.6209 0.222433 1.33825e-21)
(23.6103 0.288173 0)
(23.6533 0.327033 -6.22215e-22)
(23.721 0.306969 6.84416e-22)
(23.799 0.225598 -8.17899e-22)
(23.8763 0.119994 -1.83626e-24)
(23.9096 -0.00365112 5.11673e-22)
(23.9186 -0.132825 -4.53819e-22)
(23.9254 -0.204644 -8.95992e-25)
(23.9532 -0.228321 0)
(24.0237 -0.206848 -6.3484e-22)
(24.086 -0.129282 -6.44839e-22)
(24.1371 -0.093708 0)
(24.2078 -0.109116 -1.4038e-24)
(24.28 -0.0993733 -7.24846e-22)
(24.2394 -0.126343 1.75322e-22)
(24.0616 -0.315611 -5.2447e-22)
(23.7804 -0.617794 1.11668e-21)
(23.5772 -0.628122 3.08234e-22)
(23.3055 -0.0893555 -2.02218e-21)
(23.2382 0.67915 -6.84623e-21)
(24.1079 0.958292 1.62783e-21)
(24.9944 0.852776 0)
(25.3913 0.360025 2.09401e-21)
(25.529 -0.271817 0)
(25.4399 -0.601577 7.08921e-23)
(25.3446 -0.585017 0)
(25.2692 -0.396443 0)
(25.2085 -0.203294 0)
(-0.595633 0.879415 2.25116e-21)
(-0.63361 0.442041 0)
(-0.755883 0.185388 0)
(-0.893903 0.0602291 -1.4435e-22)
(-0.999439 -0.0276204 0)
(-1.1652 -0.0852457 0)
(-1.52278 0.118986 0)
(-2.03132 1.04975 0)
(-1.97412 1.66082 0)
(-1.20483 1.12181 0)
(-0.769394 0.04528 0)
(-0.923264 -0.595431 -8.55934e-22)
(-1.35504 -0.657045 0)
(-5.92398 3.59055 0)
(18.3084 -12.5986 1.87699e-19)
(18.2099 -11.7811 0)
(18.8549 -11.1703 9.46964e-23)
(19.7699 -10.4882 0)
(20.7171 -9.64702 -1.49017e-22)
(21.5321 -8.59252 0)
(22.1312 -7.33481 0)
(22.5109 -5.93609 -3.92986e-20)
(22.711 -4.48803 -3.64153e-20)
(22.8094 -3.16079 3.12645e-20)
(22.8728 -2.04731 -2.32597e-20)
(22.926 -1.21597 0)
(22.9968 -0.635866 8.45943e-23)
(23.0747 -0.24534 6.30446e-23)
(23.1515 -0.00163887 0)
(23.2193 0.120215 -2.16107e-21)
(23.2627 0.172072 0)
(23.2882 0.21305 -8.27636e-22)
(23.3254 0.25903 7.80061e-24)
(23.4055 0.278604 -3.20423e-22)
(23.5131 0.258794 0)
(23.6292 0.176649 4.85214e-22)
(23.7457 0.0859245 -1.26771e-21)
(23.8044 -0.00614748 -6.40707e-22)
(23.8295 -0.130673 -2.50341e-22)
(23.8516 -0.212049 -5.32274e-22)
(23.8803 -0.251556 0)
(23.9395 -0.254073 7.45549e-22)
(24.0084 -0.162479 9.50364e-22)
(24.0768 -0.124759 2.6522e-24)
(24.1531 -0.146468 0)
(24.2291 -0.126237 9.34959e-22)
(24.2657 -0.0961639 -1.70796e-21)
(24.1207 -0.228758 -1.64275e-21)
(23.5318 -0.501905 0)
(23.3414 -0.540575 -4.55009e-22)
(23.2696 -0.0575832 0)
(23.4609 0.546442 0)
(24.1284 0.758766 0)
(24.8356 0.630271 0)
(25.2609 0.216765 0)
(25.4499 -0.286549 0)
(25.4461 -0.556726 0)
(25.3816 -0.541898 -7.16475e-23)
(25.2844 -0.344329 -6.26767e-23)
(25.1934 -0.166189 2.86095e-23)
(-0.785062 1.16387 0)
(-0.765552 0.594702 -2.30721e-24)
(-0.868566 0.313096 1.22757e-21)
(-1.00754 0.163175 -1.74472e-22)
(-1.13963 0.0673754 0)
(-1.34019 0.0580575 0)
(-1.64244 0.249304 0)
(-1.68014 0.791967 -7.42451e-21)
(-1.24613 1.16908 0)
(-0.738742 0.91305 0)
(-0.632285 0.236229 0)
(-0.902688 -0.31282 3.35393e-21)
(-1.49774 -0.14429 0)
(6.03894 -3.87157 0)
(17.2303 -12.6935 -5.44694e-20)
(17.9455 -12.2471 0)
(18.8957 -11.8129 0)
(19.9479 -11.2017 0)
(20.8978 -10.335 -4.17727e-20)
(21.6033 -9.18894 -4.38643e-20)
(22.0182 -7.81269 0)
(22.1772 -6.3355 -4.19145e-20)
(22.1815 -4.88438 -3.11947e-20)
(22.1258 -3.46006 -1.77608e-20)
(22.1987 -2.225 -1.08963e-20)
(22.3542 -1.34404 0)
(22.5364 -0.734374 0)
(22.7119 -0.323847 0)
(22.8679 -0.0668795 0)
(22.9903 0.0749621 0)
(23.0702 0.143202 0)
(23.1223 0.187535 -1.57431e-21)
(23.1875 0.224204 0)
(23.2933 0.227039 0)
(23.4314 0.206621 3.58807e-22)
(23.5762 0.127224 5.71422e-22)
(23.7018 0.0435044 2.05212e-23)
(23.8031 -0.00420885 0)
(23.8318 -0.124596 0)
(23.8343 -0.212641 0)
(23.8534 -0.255262 0)
(23.87 -0.275469 0)
(23.861 -0.179955 0)
(23.3266 -0.19072 0)
(23.2918 -0.218408 0)
(23.3386 -0.200544 0)
(23.385 -0.0151961 0)
(23.3951 0.0357541 0)
(23.3142 0.0403857 0)
(23.15 -0.534672 -4.2223e-21)
(23.2581 -0.12922 0)
(23.6013 0.25526 0)
(24.1512 0.367904 0)
(24.7485 0.303161 0)
(25.1754 0.0451177 1.92498e-22)
(25.4151 -0.348669 0)
(25.455 -0.529597 0)
(25.3619 -0.504918 0)
(25.2447 -0.310162 0)
(25.1145 -0.146791 1.55358e-24)
(-1.06536 1.52641 -2.86743e-21)
(-0.911523 0.741513 0)
(-0.98631 0.434602 1.4679e-21)
(-1.10001 0.272331 0)
(-1.22476 0.171796 0)
(-1.40801 0.171336 0)
(-1.57264 0.258883 4.64697e-21)
(-1.56314 0.588847 0)
(-1.2218 0.918912 2.20307e-21)
(-0.758784 0.860729 0)
(-0.612 0.424662 -5.70325e-21)
(-0.826981 -0.0178887 1.30644e-21)
(-1.85859 0.259605 0)
(16.161 -13.4199 0)
(16.9389 -13.0668 1.35419e-19)
(17.9145 -12.868 -6.50018e-20)
(19.0332 -12.5343 1.47226e-19)
(20.1037 -11.9312 -8.24352e-20)
(20.9318 -10.9795 -4.47199e-20)
(21.4083 -9.70275 0)
(21.5318 -8.25694 4.17329e-20)
(21.4395 -6.64218 -8.35516e-20)
(21.2424 -4.95694 0)
(20.8886 -3.53446 3.36254e-20)
(20.7864 -2.55489 0)
(20.8759 -1.67875 -1.83934e-20)
(21.0316 -1.04861 1.46742e-20)
(21.2043 -0.609583 0)
(21.3779 -0.294891 0)
(21.5261 -0.0693478 0)
(21.6438 0.0605632 5.26504e-21)
(21.7686 0.109876 8.48699e-21)
(22.1413 0.0883657 -1.67639e-20)
(22.7732 0.100291 0)
(22.9571 0.086269 -2.13838e-20)
(22.8277 0.0369941 4.27763e-20)
(22.3546 -0.0323309 -1.74319e-21)
(22.0229 0.225618 -5.25575e-21)
(21.7879 -0.0110759 -9.19026e-21)
(21.647 -0.18546 -3.72216e-21)
(21.6044 -0.259918 1.37461e-21)
(21.5686 -0.279078 -6.45473e-25)
(21.4933 -0.0416099 1.87171e-21)
(21.5509 -0.0794559 -3.37736e-21)
(21.5982 -0.200006 -2.22346e-21)
(21.6823 -0.212413 1.48135e-21)
(21.8513 -0.12573 0)
(22.1064 -0.0754166 3.3656e-21)
(22.494 -0.24011 -1.21737e-23)
(22.7287 -0.501551 0)
(23.071 -0.364468 0)
(23.7234 0.07228 0)
(24.2368 0.0951277 0)
(24.6871 0.0583399 7.50704e-22)
(25.1346 -0.0617656 0)
(25.4974 -0.383609 0)
(25.269 -0.451991 6.85895e-21)
(24.2563 -0.358436 -3.11194e-21)
(23.9069 -0.0950992 -1.17766e-22)
(23.7859 -0.0915337 -1.13091e-22)
(-1.37564 1.99941 0)
(-1.0502 0.879605 0)
(-1.1099 0.548918 0)
(-1.17995 0.362153 0)
(-1.26163 0.2637 0)
(-1.39939 0.253716 0)
(-1.48017 0.267586 0)
(-1.44175 0.420229 0)
(-1.17828 0.632148 0)
(-0.810442 0.703736 0)
(-0.642964 0.521737 0)
(-0.743759 0.233775 0)
(-0.990461 -0.488226 0)
(15.921 -13.8192 0)
(16.8562 -13.653 0)
(17.9974 -13.5679 0)
(19.1635 -13.2777 0)
(20.1337 -12.6168 0)
(20.7171 -11.5269 0)
(20.8533 -10.1583 0)
(20.7469 -8.51489 0)
(19.9863 -6.45098 0)
(19.3768 -5.01115 0)
(19.0001 -3.64516 0)
(18.7748 -2.60447 0)
(18.684 -1.76093 0)
(18.7083 -1.12159 1.45945e-20)
(18.7821 -0.66167 0)
(18.8791 -0.337294 0)
(18.9849 -0.119467 0)
(19.0958 0.00623544 0)
(19.2315 0.0249803 0)
(19.3855 -0.0939736 0)
(19.511 -0.0602667 0)
(19.6246 0.080852 0)
(19.6725 0.209145 0)
(19.6493 0.193164 0)
(19.606 0.283348 0)
(19.6216 0.0838501 0)
(19.5723 -0.126766 0)
(19.5452 -0.236943 0)
(19.5251 -0.249771 0)
(19.5593 -0.111315 0)
(19.7379 -0.139613 0)
(19.8842 -0.25674 0)
(20.0376 -0.302858 0)
(20.2761 -0.281064 0)
(20.6322 -0.297622 0)
(21.1029 -0.475943 -7.01089e-21)
(21.5483 -0.744328 -1.02185e-20)
(22.1183 -0.84835 0)
(23.153 -0.459225 0)
(23.923 -0.264925 0)
(24.0485 -0.257624 0)
(23.2751 -0.076039 -8.77953e-22)
(22.6838 -0.192513 1.515e-21)
(22.1558 -0.00172448 1.52185e-21)
(21.8256 -0.0901123 0)
(21.5531 -0.0664706 -1.67762e-22)
(21.428 -0.0497255 0)
(-1.38096 2.42579 5.067e-21)
(-1.14683 1.01415 0)
(-1.2022 0.659758 1.32202e-21)
(-1.25277 0.436951 -8.74963e-22)
(-1.30722 0.329783 0)
(-1.36052 0.302807 0)
(-1.3688 0.268316 0)
(-1.31936 0.306337 -2.79689e-21)
(-1.11112 0.416641 -1.51248e-21)
(-0.835151 0.538532 0)
(-0.714361 0.560004 -7.85184e-21)
(-0.809173 0.224694 0)
(15.0084 -14.0864 0)
(15.8179 -14.326 5.02158e-20)
(16.8664 -14.319 6.73589e-20)
(18.0815 -14.3015 -7.75227e-20)
(19.1983 -13.9937 -1.59925e-22)
(19.9545 -13.2028 0)
(20.1816 -11.9941 -9.023e-20)
(20.2635 -10.3466 5.09039e-19)
(19.0753 -8.18992 2.47137e-22)
(18.0677 -6.47033 -4.9763e-20)
(17.3353 -4.94826 2.32983e-20)
(16.8596 -3.66155 2.05123e-20)
(16.5866 -2.65361 0)
(16.4451 -1.85101 7.01079e-23)
(16.4139 -1.22817 1.0726e-20)
(16.4485 -0.76661 0)
(16.5185 -0.435054 5.72822e-21)
(16.6099 -0.208392 3.96183e-21)
(16.7186 -0.0760802 -3.05972e-21)
(16.8423 -0.047604 3.14862e-21)
(16.9336 -0.121828 0)
(16.956 -0.111002 0)
(17.0187 0.0125503 0)
(17.1327 0.134464 0)
(17.2471 0.176233 -1.94859e-21)
(17.3617 0.22444 1.60716e-21)
(17.5016 0.0842363 1.81387e-23)
(17.5611 -0.108602 -2.69341e-21)
(17.5928 -0.232988 -2.64481e-21)
(17.6281 -0.264212 0)
(17.7341 -0.209368 4.24152e-22)
(17.9447 -0.245749 0)
(18.145 -0.350507 0)
(18.3451 -0.422693 0)
(18.6062 -0.460554 0)
(18.9578 -0.536907 0)
(19.3691 -0.724321 0)
(19.7355 -0.977522 8.35884e-21)
(20.0039 -1.13839 0)
(20.2065 -0.857501 2.99268e-22)
(20.4246 -0.38434 -9.78522e-22)
(20.3864 0.0928812 2.2874e-21)
(20.2129 0.258404 1.92946e-21)
(19.9384 0.0988554 0)
(19.6484 0.143494 5.87132e-22)
(19.4833 0.0652056 -2.65213e-22)
(19.3194 0.0254222 0)
(19.2177 0.0102145 -4.37877e-23)
(-1.28538 2.65634 -4.44903e-21)
(-1.16394 1.20713 0)
(-1.25701 0.78412 0)
(-1.30881 0.51358 1.14443e-21)
(-1.33665 0.368807 0)
(-1.33343 0.31237 -1.17364e-21)
(-1.29581 0.260464 -7.24078e-22)
(-1.22179 0.228596 0)
(-1.03771 0.253319 -4.12029e-21)
(-0.872932 0.400982 -1.81427e-21)
(-0.86751 0.568653 2.13709e-21)
(-1.32291 0.610811 0)
(14.8699 -14.6156 0)
(15.7807 -14.8638 0)
(16.901 -15.0072 -6.88931e-20)
(18.1067 -15.0276 -1.16332e-22)
(19.0786 -14.6326 0)
(19.4899 -13.7038 0)
(19.6158 -12.4403 4.94826e-19)
(18.3015 -9.94898 0)
(17.01 -7.96803 -4.55806e-20)
(15.9552 -6.23342 0)
(15.1545 -4.8134 1.81862e-20)
(14.6154 -3.63156 1.5509e-20)
(14.3011 -2.67865 1.26851e-20)
(14.1436 -1.91706 1.02117e-20)
(14.102 -1.31755 0)
(14.1355 -0.861939 0)
(14.2128 -0.52853 -4.17683e-21)
(14.3169 -0.298004 0)
(14.4395 -0.160402 1.96953e-21)
(14.5693 -0.114999 1.85113e-21)
(14.6663 -0.144933 0)
(14.7104 -0.139698 -4.9225e-22)
(14.7833 -0.0581927 -2.4485e-21)
(14.9193 0.0357098 -1.30077e-23)
(15.084 0.0918671 -2.18053e-21)
(15.2714 0.117624 -1.54258e-21)
(15.4727 0.0191242 0)
(15.6125 -0.138731 1.97514e-21)
(15.709 -0.260861 -2.3854e-21)
(15.8027 -0.314198 2.21431e-21)
(15.9504 -0.318515 -8.54354e-22)
(16.1651 -0.369135 1.37994e-21)
(16.3805 -0.465218 -1.93778e-21)
(16.5928 -0.552658 -2.30745e-21)
(16.8371 -0.628416 0)
(17.1257 -0.735773 -3.75975e-21)
(17.417 -0.908687 5.37498e-21)
(17.6213 -1.10154 6.84134e-21)
(17.6615 -1.17084 0)
(17.5782 -0.893636 0)
(17.5266 -0.401957 0)
(17.5012 0.089425 0)
(17.5403 0.291231 0)
(17.4774 0.233535 2.33359e-22)
(17.3766 0.214618 3.25994e-22)
(17.3135 0.141384 0)
(17.2356 0.0835623 -3.26522e-25)
(17.1769 0.0494364 -2.62175e-23)
(-1.29603 2.66824 0)
(-1.15825 1.48179 0)
(-1.28382 0.942755 2.87197e-22)
(-1.3501 0.602646 0)
(-1.36153 0.400725 0)
(-1.33434 0.307924 1.24455e-21)
(-1.27438 0.237067 -7.42608e-21)
(-1.11893 0.146214 0)
(-0.971948 0.14287 0)
(-0.921207 0.325361 -7.22933e-24)
(-1.10629 0.618703 0)
(11.5928 -12.7991 0)
(14.7424 -15.2437 -4.21018e-20)
(15.7194 -15.436 -5.77725e-20)
(16.8969 -15.6963 -7.1169e-20)
(18.0343 -15.7073 -8.44359e-20)
(18.7405 -15.1707 -9.88082e-20)
(18.9448 -14.2058 -1.5654e-22)
(18.3656 -11.8421 -1.2771e-19)
(16.436 -9.54582 0)
(14.9442 -7.55722 0)
(13.7853 -5.94472 -3.36295e-20)
(12.9392 -4.63319 -2.795e-20)
(12.3663 -3.55738 2.31039e-20)
(12.025 -2.68149 9.40304e-21)
(11.858 -1.97332 0)
(11.8175 -1.40656 -5.68877e-21)
(11.8623 -0.965245 4.13347e-21)
(11.96 -0.635082 -2.7564e-21)
(12.0901 -0.402751 0)
(12.2396 -0.259035 1.00959e-21)
(12.3939 -0.196769 -8.57116e-22)
(12.5255 -0.194702 0)
(12.6235 -0.187406 -3.72847e-22)
(12.7351 -0.138451 1.74181e-21)
(12.8921 -0.0740637 2.41468e-21)
(13.084 -0.0261946 -4.19626e-21)
(13.3063 -0.0138399 0)
(13.5385 -0.0857577 9.17649e-23)
(13.7285 -0.210124 0)
(13.8771 -0.321743 -2.05601e-21)
(14.016 -0.390401 -6.93217e-24)
(14.1858 -0.430549 -1.06318e-21)
(14.3919 -0.492713 1.37661e-21)
(14.5982 -0.582776 0)
(14.7962 -0.67463 2.34661e-21)
(14.9996 -0.765346 2.8296e-21)
(15.2064 -0.875446 -4.6377e-24)
(15.3763 -1.01245 -4.81257e-21)
(15.4422 -1.12809 0)