/*--------------------------------*- C++ -*----------------------------------*\
| =========                 |                                                 |
| \\      /  F ield         | OpenFOAM: The Open Source CFD Toolbox           |
|  \\    /   O peration     | Version:  v1912                                 |
|   \\  /    A nd           | Website:  www.openfoam.com                      |
|    \\/     M anipulation  |                                                 |
\*---------------------------------------------------------------------------*/
FoamFile
{
    version     2.0;
    format      ascii;
    class       surfaceScalarField;
    location    "18";
    object      alphaPhi0.water;
}
// * * * * * * * * * * * * * * * * * * * * * * * * * * * * * * * * * * * * * //

dimensions      [0 3 -1 0 0 0 0];
oriented        oriented;


internalField   nonuniform List<scalar> 
40282
(
0.00282525
0.00262882
1.9382
-1.94493
1.93935
0.0055843
-1.93043
1.91847
0.0119665
-1.90342
1.88549
0.0179298
-1.86485
1.84139
0.0234617
-1.81512
1.78628
0.0288401
-1.7549
1.72095
0.0339463
-1.68464
1.64605
0.0385905
-1.60519
1.56217
0.0430209
-1.51709
1.46997
0.0471228
-1.4209
1.37008
0.0508217
-1.31759
1.26354
0.0540504
-1.20813
1.15162
0.0565112
-1.09404
1.03561
0.058434
-0.977006
0.918234
0.058771
-0.85951
0.801378
0.0581322
-0.742749
0.680913
0.0618361
-0.609358
0.522409
0.0869485
-0.416543
0.286176
0.130367
-0.147409
0.0389001
0.108509
-0.00418527
0.0055557
1.87265
-1.86825
1.86138
-0.0139805
0.0208467
-1.85181
1.83949
-0.025335
0.0376485
-1.82445
1.80669
-0.0364417
0.0542023
-1.78624
1.76318
-0.0472367
0.0702973
-1.73755
1.70938
-0.0576996
0.0858728
-1.67874
1.64569
-0.0677647
0.100817
-1.61027
1.57256
-0.0773039
0.115009
-1.5326
1.49048
-0.0862466
0.128375
-1.44626
1.39998
-0.0945122
0.140797
-1.35176
1.30169
-0.102127
0.152195
-1.24975
1.19612
-0.108822
0.162452
-1.14088
1.08396
-0.114433
0.171357
-1.02568
0.96627
-0.118968
0.178374
-0.905635
0.844238
-0.121052
0.182448
-0.78198
0.716692
-0.122074
0.187362
-0.645972
0.569592
-0.133382
0.209762
-0.48958
0.408434
-0.169654
0.250801
-0.328548
0.252149
-0.214367
0.290766
-0.17615
0.0934438
-0.20146
0.284167
-0.0069626
0.00830321
1.80554
-1.80138
1.79461
-0.02793
0.0346996
-1.78521
1.7732
-0.0501625
0.0621765
-1.75858
1.74138
-0.0720509
0.0892505
-1.72162
1.69932
-0.0934081
0.115708
-1.67452
1.64726
-0.114092
0.141358
-1.61755
1.58547
-0.133972
0.166052
-1.55106
1.51436
-0.152864
0.189566
-1.47545
1.43438
-0.170662
0.211727
-1.39122
1.34608
-0.187281
0.232429
-1.299
1.25005
-0.202541
0.251493
-1.19934
1.14695
-0.216356
0.268745
-1.09294
1.03749
-0.228539
0.283989
-0.980716
0.92268
-0.238133
0.296168
-0.86342
0.802033
-0.244753
0.30614
-0.736813
0.667065
-0.257079
0.326827
-0.593658
0.518189
-0.288048
0.363517
-0.442329
0.367513
-0.330136
0.404951
-0.294667
0.223703
-0.365201
0.436165
-0.152956
0.0794629
-0.362516
0.436009
-0.00958585
0.0108618
1.74089
-1.73704
1.73064
-0.0413867
0.0477856
-1.72168
1.71019
-0.0741435
0.0856382
-1.69618
1.67968
-0.106421
0.122924
-1.66069
1.63924
-0.138003
0.159447
-1.61537
1.58908
-0.168661
0.194948
-1.56043
1.52946
-0.198189
0.229166
-1.49617
1.46064
-0.226381
0.26191
-1.42292
1.38303
-0.252997
0.292883
-1.34106
1.29706
-0.277875
0.321881
-1.25106
1.20319
-0.300851
0.348718
-1.15354
1.10215
-0.321641
0.373029
-1.04922
0.994899
-0.339911
0.394235
-0.939205
0.88214
-0.354739
0.411803
-0.822997
0.760469
-0.369223
0.431751
-0.694197
0.625064
-0.39789
0.467023
-0.55434
0.483154
-0.438221
0.509407
-0.41239
0.342657
-0.478346
0.548079
-0.274182
0.206681
-0.506559
0.57406
-0.139303
0.0708051
-0.508015
0.576513
-0.0120824
0.0132911
1.67853
-1.67488
1.66879
-0.0541504
0.0602469
-1.66026
1.64933
-0.0970673
0.108003
-1.63598
1.62022
-0.139361
0.155116
-1.60209
1.5816
-0.180816
0.201305
-1.55876
1.53361
-0.221159
0.246315
-1.50615
1.47642
-0.2601
0.289838
-1.44445
1.41029
-0.297412
0.331569
-1.37396
1.3355
-0.332796
0.371249
-1.29498
1.25241
-0.365988
0.408558
-1.20788
1.16147
-0.396741
0.443153
-1.1132
1.06322
-0.424697
0.474675
-1.01168
0.958604
-0.448991
0.502067
-0.904056
0.847632
-0.469583
0.526007
-0.788268
0.725563
-0.495675
0.55838
-0.660255
0.593444
-0.536315
0.603127
-0.52604
0.458697
-0.579814
0.647157
-0.391856
0.325762
-0.617047
0.683141
-0.260434
0.19564
-0.641253
0.706046
-0.130924
0.0657348
-0.644342
0.709531
-0.0144424
0.0155769
1.61853
-1.61491
1.60917
-0.0662849
0.07203
-1.60113
1.59081
-0.118837
0.129163
-1.57819
1.56331
-0.170734
0.185619
-1.54616
1.52674
-0.221641
0.241059
-1.50507
1.48118
-0.271314
0.295212
-1.45505
1.42673
-0.319428
0.347749
-1.39624
1.36359
-0.36561
0.398261
-1.32881
1.29195
-0.409625
0.446488
-1.25302
1.21208
-0.451107
0.49205
-1.16919
1.12438
-0.489623
0.534436
-1.07772
1.02938
-0.524774
0.573116
-0.979383
0.927791
-0.555408
0.607
-0.874478
0.818622
-0.583176
0.639032
-0.759608
0.697905
-0.621822
0.683525
-0.634504
0.570264
-0.669826
0.734066
-0.505775
0.441419
-0.714086
0.778441
-0.377432
0.313918
-0.748958
0.812473
-0.250847
0.188056
-0.770756
0.833547
-0.125283
0.0623284
-0.774441
0.837396
-0.0166501
0.0176985
1.56036
-1.55731
1.55196
-0.0776835
0.0830309
-1.54447
1.53483
-0.139343
0.14898
-1.52306
1.50916
-0.200292
0.214196
-1.4931
1.47489
-0.260241
0.278448
-1.45456
1.43208
-0.31885
0.341323
-1.40747
1.38075
-0.375803
0.402527
-1.3519
1.32094
-0.430685
0.461647
-1.28791
1.25282
-0.483154
0.518244
-1.21568
1.17654
-0.532851
0.571991
-1.13542
1.09237
-0.579207
0.622261
-1.0475
1.00089
-0.621498
0.668108
-0.952559
0.902542
-0.658758
0.708775
-0.850356
0.795212
-0.695576
0.75072
-0.737161
0.67703
-0.745589
0.80572
-0.615686
0.55374
-0.798256
0.860201
-0.491585
0.429465
-0.84272
0.904839
-0.367528
0.305828
-0.876044
0.937744
-0.244337
0.182945
-0.896413
0.957806
-0.121495
0.059999
-0.900247
0.961743
-0.0186809
0.0196308
1.50463
-1.50185
1.49694
-0.0882584
0.0931646
-1.49006
1.48123
-0.1584
0.167238
-1.47041
1.4576
-0.227816
0.240633
-1.44277
1.42596
-0.296303
0.313118
-1.40713
1.38626
-0.363413
0.384279
-1.36336
1.33842
-0.428858
0.453798
-1.31142
1.28238
-0.492228
0.521267
-1.25132
1.21819
-0.553001
0.586125
-1.18303
1.14587
-0.610861
0.64802
-1.10671
1.06561
-0.665134
0.706234
-1.02267
0.977895
-0.714665
0.759443
-0.931336
0.882864
-0.758916
0.807388
-0.831762
0.777603
-0.806392
0.860552
-0.720879
0.662438
-0.86607
0.924512
-0.602958
0.542881
-0.92225
0.982326
-0.482491
0.42197
-0.967156
1.02768
-0.361429
0.300917
-0.999752
1.06026
-0.240423
0.179874
-1.01939
1.07994
-0.119175
0.0585211
-1.02321
1.08386
-0.0205108
0.021351
1.45079
-1.44811
1.44371
-0.0979127
0.102314
-1.43754
1.4296
-0.175795
0.18374
-1.41985
1.40827
-0.253075
0.264652
-1.39487
1.37963
-0.329464
0.344707
-1.36249
1.34344
-0.404633
0.423684
-1.32247
1.29955
-0.478201
0.501122
-1.27466
1.24779
-0.549767
0.576635
-1.21891
1.18799
-0.618766
0.649683
-1.15506
1.1201
-0.684769
0.719725
-1.08312
1.04418
-0.747018
0.785959
-1.00331
0.960506
-0.804068
0.84687
-0.915817
0.868864
-0.855978
0.90293
-0.818948
0.76603
-0.91509
0.968007
-0.710778
0.653928
-0.983182
1.04003
-0.596006
0.537353
-1.04271
1.10136
-0.4782
0.418706
-1.08867
1.14816
-0.358979
0.299081
-1.12134
1.18124
-0.239029
0.178783
-1.14084
1.20108
-0.118294
0.0580079
-1.14465
1.20493
-0.0221179
0.0228367
1.39902
-1.39667
1.39284
-0.106515
0.110347
-1.38746
1.38051
-0.191341
0.198298
-1.37195
1.36178
-0.275745
0.285912
-1.34998
1.33648
-0.359367
0.372868
-1.32123
1.30423
-0.442074
0.459075
-1.28544
1.2648
-0.523339
0.543981
-1.24227
1.21783
-0.6028
0.627245
-1.1914
1.16297
-0.679945
0.708377
-1.13253
1.10003
-0.754109
0.786605
-1.06548
1.0289
-0.824446
0.861021
-0.99028
0.949625
-0.889401
0.930056
-0.906884
0.861503
-0.949962
0.995343
-0.812947
0.761438
-1.02119
1.0727
-0.707644
0.652169
-1.09719
1.15266
-0.595436
0.537734
-1.16053
1.21824
-0.479273
0.420215
-1.20841
1.26747
-0.360685
0.300774
-1.24202
1.30193
-0.240538
0.179981
-1.26195
1.32251
-0.119123
0.0588598
-1.26595
1.32621
-0.0234778
0.0240621
1.34895
-1.34697
1.34377
-0.113937
0.117141
-1.33925
1.3334
-0.204837
0.210693
-1.32619
1.31759
-0.295488
0.304088
-1.30754
1.29598
-0.385658
0.397219
-1.28287
1.26818
-0.475246
0.489937
-1.25183
1.23375
-0.563737
0.581815
-1.21389
1.19217
-0.650794
0.672508
-1.16853
1.14293
-0.73594
0.761543
-1.11532
1.08562
-0.818325
0.848027
-1.05381
1.01989
-0.896964
0.930886
-0.983793
0.945531
-0.970285
1.00855
-0.90491
0.861308
-1.04069
1.08429
-0.814374
0.76443
-1.12437
1.17432
-0.71206
0.657755
-1.20854
1.26284
-0.601869
0.544668
-1.27668
1.33388
-0.486365
0.427139
-1.3276
1.38683
-0.367147
0.306525
-1.36312
1.42374
-0.245385
0.183792
-1.38414
1.44573
-0.121888
0.0614164
-1.38869
1.44916
-0.0245651
0.0250034
1.30076
-1.29901
1.29648
-0.120065
0.122591
-1.29291
1.28827
-0.216052
0.220696
-1.28252
1.27563
-0.311997
0.318894
-1.2675
1.25809
-0.407925
0.417333
-1.24736
1.23524
-0.503626
0.515753
-1.22161
1.20639
-0.598809
0.614021
-1.18953
1.1709
-0.6931
0.711724
-1.15043
1.12806
-0.78603
0.808407
-1.10367
1.07717
-0.876706
0.903204
-1.04852
1.01765
-0.963943
0.994816
-0.984472
0.948951
-1.04618
1.0817
-0.910768
0.869313
-1.12767
1.16912
-0.824349
0.776174
-1.22431
1.27249
-0.725246
0.671959
-1.31762
1.3709
-0.616622
0.559492
-1.39205
1.44918
-0.500796
0.440744
-1.44748
1.50753
-0.379538
0.317378
-1.48613
1.54829
-0.254451
0.190924
-1.50907
1.57259
-0.127144
0.0662761
-1.51481
1.57568
-0.0253587
0.0256433
1.25446
-1.25313
1.25133
-0.1248
0.126603
-1.24877
1.24543
-0.224773
0.228117
-1.24125
1.23618
-0.325005
0.330079
-1.23014
1.22308
-0.425742
0.432799
-1.21494
1.20561
-0.526709
0.536039
-1.19497
1.18294
-0.627938
0.639972
-1.16941
1.15427
-0.728973
0.744115
-1.1374
1.1187
-0.82939
0.848095
-1.09801
1.07522
-0.928378
0.951171
-1.05024
1.02293
-1.02452
1.05182
-0.993199
0.960917
-1.11631
1.14859
-0.925687
0.886936
-1.21006
1.24881
-0.844441
0.798376
-1.32054
1.3666
-0.749046
0.696748
-1.42469
1.47698
-0.641751
0.584305
-1.50749
1.56494
-0.524652
0.463039
-1.56942
1.63104
-0.399725
0.334994
-1.61286
1.67759
-0.269146
0.202496
-1.63886
1.70551
-0.135701
0.0743678
-1.6468
1.70814
-0.0258455
0.025973
1.20947
-1.20878
1.20773
-0.128059
0.129108
-1.20623
1.20424
-0.230837
0.232826
-1.2017
1.19855
-0.334279
0.33743
-1.19473
1.19018
-0.438727
0.443275
-1.18481
1.17849
-0.544035
0.550357
-1.1711
1.16256
-0.65049
0.659033
-1.15274
1.14149
-0.757608
0.768858
-1.12867
1.11414
-0.865089
0.87962
-1.09772
1.07924
-0.972275
0.990751
-1.05858
1.03555
-1.07756
1.10059
-1.00998
0.981668
-1.17957
1.20787
-0.950188
0.914985
-1.2866
1.32181
-0.875749
0.832446
-1.41223
1.45553
-0.785187
0.734147
-1.52967
1.58071
-0.679531
0.621564
-1.62372
1.68169
-0.560491
0.496587
-1.69493
1.75884
-0.43017
0.361628
-1.74554
1.81409
-0.291425
0.220106
-1.77633
1.84765
-0.148796
0.0868804
-1.78806
1.84997
-0.0260213
0.0259937
1.16635
-1.16612
1.16583
-0.129788
0.130074
-1.1654
1.16478
-0.234153
0.234772
-1.16391
1.16274
-0.339637
0.340812
-1.16121
1.15926
-0.446592
0.448543
-1.15677
1.15362
-0.555199
0.558353
-1.1497
1.14491
-0.665851
0.670638
-1.13911
1.13213
-0.778185
0.785162
-1.12382
1.11399
-0.892094
0.901928
-1.10243
1.08896
-1.00711
1.02058
-1.07339
1.05549
-1.12155
1.13946
-1.035
1.01167
-1.23432
1.25765
-0.985045
0.954587
-1.35543
1.38588
-0.91981
0.880386
-1.49784
1.53726
-0.836162
0.78713
-1.63182
1.68085
-0.733377
0.675048
-1.74099
1.79932
-0.612341
0.545515
-1.82545
1.89227
-0.474926
0.401072
-1.88687
1.96072
-0.324632
0.246483
-1.92521
2.00336
-0.168335
0.105817
-1.94285
2.00537
-0.0258924
0.0257165
1.12473
-1.12475
1.12521
-0.12998
0.129519
-1.12583
1.12655
-0.234711
0.233985
-1.12734
1.12813
-0.341001
0.340206
-1.1289
1.12956
-0.449197
0.448539
-1.12999
1.13008
-0.559914
0.559817
-1.12976
1.12891
-0.673526
0.674379
-1.12737
1.12498
-0.789967
0.79236
-1.12156
1.11692
-0.909357
0.913998
-1.11084
1.1031
-1.03147
1.0392
-1.09348
1.08169
-1.15472
1.16651
-1.06741
1.05032
-1.27842
1.29551
-1.03
1.00592
-1.4139
1.43798
-0.977374
0.943644
-1.57481
1.60854
-0.904215
0.85879
-1.72923
1.77466
-0.807231
0.749496
-1.85865
1.91638
-0.685619
0.615729
-1.96208
2.03197
-0.540117
0.459327
-2.04006
2.12085
-0.374279
0.286331
-2.09077
2.17872
-0.198005
0.134897
-2.11857
2.18168
-0.0254749
0.0251626
1.08459
-1.08522
1.08639
-0.128683
0.127517
-1.08799
1.08999
-0.232585
0.230586
-1.09235
1.09503
-0.338419
0.335734
-1.09801
1.1012
-0.446565
0.443378
-1.10449
1.10781
-0.558067
0.554746
-1.11109
1.11422
-0.673216
0.670084
-1.11705
1.11942
-0.792385
0.790015
-1.12117
1.12211
-0.915923
0.914987
-1.12202
1.12067
-1.0439
1.04525
-1.11782
1.11315
-1.17502
1.17969
-1.1063
1.0969
-1.3092
1.3186
-1.08461
1.06895
-1.4585
1.47417
-1.049
1.02363
-1.63904
1.66441
-0.991834
0.95288
-1.81811
1.85707
-0.90625
0.851538
-1.97414
2.02885
-0.788401
0.71659
-2.10463
2.17645
-0.636042
0.547082
-2.20842
2.29738
-0.450689
0.34876
-2.28034
2.38227
-0.244956
0.180029
-2.32624
2.39117
-0.0247946
0.0243624
1.04574
-1.04676
1.04856
-0.125996
0.124195
-1.05106
1.05422
-0.227942
0.224785
-1.05801
1.06244
-0.33209
0.327666
-1.06746
1.073
-0.438904
0.433362
-1.07899
1.08538
-0.549774
0.543386
-1.09212
1.09912
-0.664898
0.657895
-1.10626
1.11338
-0.785164
0.778038
-1.12037
1.12706
-0.911107
0.904414
-1.13327
1.13878
-1.04317
1.03766
-1.14334
1.14667
-1.18046
1.17713
-1.1484
1.14814
-1.32369
1.32395
-1.14567
1.14069
-1.48497
1.48996
-1.13222
1.11875
-1.68469
1.69816
-1.09872
1.07084
-1.89182
1.9197
-1.03406
0.987402
-2.08137
2.12803
-0.929875
0.860435
-2.24949
2.31893
-0.778098
0.682222
-2.39368
2.48955
-0.572993
0.452202
-2.5039
2.62469
-0.324964
0.253176
-2.58506
2.65685
-0.0238857
0.0233529
1.00837
-1.00992
1.01227
-0.122069
0.11972
-1.01554
1.0197
-0.221035
0.21687
-1.02476
1.03071
-0.322354
0.316405
-1.03753
1.04517
-0.426612
0.418974
-1.05358
1.06275
-0.535419
0.526248
-1.07266
1.08325
-0.648891
0.638304
-1.09441
1.10606
-0.768433
0.756785
-1.1181
1.13045
-0.894686
0.882344
-1.14295
1.15543
-1.0285
1.01602
-1.16768
1.17952
-1.16944
1.15761
-1.19061
1.2006
-1.3191
1.30911
-1.20942
1.2171
-1.4888
1.48112
-1.22292
1.22523
-1.70434
1.70203
-1.22201
1.21145
-1.94017
1.95073
-1.19193
1.16188
-2.16846
2.1985
-1.11955
1.0628
-2.38532
2.44207
-0.989067
0.895516
-2.59026
2.68382
-0.779394
0.639417
-2.77132
2.9113
-0.480541
0.388083
-2.93032
3.02278
-0.0227878
0.0221757
0.972487
-0.97412
0.976915
-0.117088
0.114293
-0.980815
0.985808
-0.212184
0.207191
-0.991902
0.999114
-0.309669
0.302457
-1.00743
1.01683
-0.410254
0.400855
-1.0273
1.03885
-0.51564
0.504088
-1.0515
1.06521
-0.625866
0.612155
-1.07993
1.09562
-0.742791
0.727101
-1.11225
1.12979
-0.867052
0.849514
-1.14817
1.16728
-0.999864
0.980756
-1.18699
1.20722
-1.14123
1.121
-1.22779
1.24842
-1.2935
1.27287
-1.26917
1.29052
-1.46638
1.44504
-1.3124
1.33351
-1.69037
1.66927
-1.35176
1.36508
-1.9501
1.93678
-1.37163
1.36969
-2.21635
2.21829
-1.3573
1.33193
-2.487
2.51237
-1.29008
1.22689
-2.77112
2.83431
-1.13542
1.00667
-3.07347
3.20222
-0.836002
0.737941
-3.41789
3.51595
0.0660757
-0.0398173
-0.0262428
0.0125228
-0.0910902
0.0788726
0.148807
-0.187237
0.0372765
0.180075
-0.147117
-0.0329576
0.141429
-0.157723
0.0162937
0.175157
-0.18561
0.0104531
0.208879
-0.248665
0.0397852
0.302239
-0.370267
0.0680312
0.45601
-0.565203
0.109189
0.704798
-0.881006
0.176207
1.09732
-1.35479
0.257468
1.65219
-1.98293
0.330737
2.33736
-2.71018
0.372828
3.0777
-3.39196
0.31426
3.67544
-3.90645
0.231006
4.11174
-4.31611
0.204374
4.53451
-4.78134
0.246829
4.94603
-4.68447
-0.261567
3.53122
-1.66078
-1.86533
0.0427254
1.23134
-1.27406
-2.23501
3.04662
-0.811618
-3.71799
4.28144
-0.563448
-4.75563
5.15182
-0.396197
-5.4782
5.74231
-0.26411
-5.95179
6.11449
-0.162705
-6.23802
6.32943
-0.0914081
-6.39499
6.44003
-0.0450398
-6.4691
6.48584
-0.0167423
-6.49342
6.49441
-0.000991027
-6.48945
6.48076
0.00869649
-6.46954
6.45655
0.0129898
-6.44234
6.4273
0.0150416
-6.41174
6.39593
0.0158112
-6.38007
6.3643
0.0157643
-6.34875
6.33347
0.0152815
-6.3185
6.30385
0.0146472
-6.28953
6.27552
0.0140133
-6.26178
6.24829
0.0134859
-6.23504
6.22202
0.0130265
-6.20921
6.19661
0.0126005
-6.18421
6.17199
0.0122184
-6.15996
6.14812
0.0118434
-6.13647
6.12502
0.0114573
-6.11374
6.10262
0.0111245
-6.09163
6.08075
0.0108796
-6.06998
6.05929
0.0106916
-6.0487
6.03822
0.010483
-6.02786
6.01759
0.0102648
-6.0074
5.9972
0.0102007
-5.98697
5.97665
0.0103235
-5.96629
5.95591
0.0103784
-5.94564
5.93549
0.0101495
-5.92551
5.91555
0.00996463
-5.90547
5.89515
0.0103246
-5.88452
5.87376
0.0107555
-5.86289
5.85231
0.0105751
-5.84166
5.83146
0.010202
-5.82076
5.81061
0.010151
-5.79969
5.7899
0.00978945
-5.7793
5.77027
0.00902479
-0.0101027
0.0670383
-0.056946
0.0711928
-0.101825
-0.124924
0.155556
0.133723
-0.164129
-0.062148
0.0885109
0.189555
-0.173967
0.0441391
-0.0439572
0.138613
-0.13041
-0.0119399
-0.00128762
0.14586
-0.162081
-0.0195989
0.0236546
0.170038
-0.184184
-0.0641095
0.0782525
0.207293
-0.241651
-0.118641
0.152982
0.289632
-0.354176
-0.195883
0.260422
0.438905
-0.549428
-0.31896
0.429483
0.692069
-0.87285
-0.479165
0.659947
1.09621
-1.36402
-0.637752
0.905565
1.68089
-2.06431
-0.763466
1.14689
2.51833
-2.94001
-0.67844
1.10012
3.09944
-2.67679
-0.483464
0.249039
2.05687
-1.6152
-0.300999
0.00323615
1.43109
-1.38213
-0.145055
-8.51794e-14
1.71464
-2.22136
0.491263
-0.298328
2.33092
-1.4238
3.17107
-4.15883
0.212033
0.906496
2.47221
-3.59074
-1.88248
2.71936
1.64298
-2.47986
-3.43635
4.0499
1.15525
-1.76881
-4.57339
5.0162
0.818042
-1.26084
-5.38525
5.68724
0.550162
-0.852151
-5.9296
6.12005
0.342571
-0.533024
-6.26658
6.37694
0.195098
-0.305457
-6.45806
6.516
0.0986317
-0.156571
-6.55589
6.58191
0.0397217
-0.0657474
-6.59737
6.60533
0.005362
-0.0133265
-6.60773
6.60576
-0.0130558
0.0150267
-6.60093
6.5941
-0.0224079
0.0292456
-6.58594
6.57692
-0.0267224
0.0357376
-6.5674
6.55763
-0.0283305
0.0381087
-6.54776
6.53794
-0.0283243
0.0381423
-6.52825
6.51875
-0.0274522
0.0369558
-6.50948
6.50042
-0.0262792
0.035341
-6.49156
6.48291
-0.0251166
0.0337673
-6.47442
6.46609
-0.0241253
0.0324609
-6.4579
6.44981
-0.0232987
0.0313849
-6.44182
6.43393
-0.0225548
0.0304448
-6.42611
6.41837
-0.0218846
0.0296254
-6.41069
6.40307
-0.021254
0.0288824
-6.39549
6.38796
-0.0206399
0.0281637
-6.38047
6.37302
-0.0201016
0.0275552
-6.36556
6.35808
-0.0197468
0.0272282
-6.35056
6.34297
-0.0195235
0.0271075
-6.33534
6.32767
-0.019271
0.0269398
-6.31997
6.31225
-0.0189805
0.0266969
-6.30449
6.29664
-0.0189571
0.0268113
-6.28862
6.28041
-0.0193373
0.0275464
-6.27196
6.26332
-0.0196537
0.0282898
-6.25458
6.24586
-0.0193648
0.0280844
-6.23722
6.22861
-0.0190586
0.0276656
-6.21985
6.21078
-0.0198574
0.0289266
-6.20131
6.1915
-0.0209158
0.0307321
-6.18155
6.17163
-0.0207753
0.0307041
-6.16195
6.15235
-0.0201583
0.0297626
-6.14289
6.13312
-0.0202604
0.0300265
-6.12349
6.11357
-0.019898
0.0298183
-6.10431
6.09517
-0.0183015
0.0274456
-0.126414
0.185315
-0.0591007
0.089771
-0.112526
-0.179675
0.202431
0.119401
-0.145707
-0.107235
0.127518
0.186386
-0.19705
0.0366189
-0.0259555
0.182571
-0.147079
0.0161303
-0.0398434
0.128981
-0.14067
-0.0220437
0.01301
0.137242
-0.136228
-0.0842626
0.0832749
0.137433
-0.142417
-0.171546
0.176519
0.153167
-0.171421
-0.300779
0.319034
0.198541
-0.236638
-0.503116
0.541214
0.289668
-0.362147
-0.788211
0.860689
0.458834
-0.584178
-1.10873
1.23408
0.739784
-0.867988
-1.46138
1.49358
0.193497
-0.000676466
-0.218089
-0.000188447
8.83466e-20
-1.48866e-20
3.29181e-14
-3.29144e-14
2.43947e-13
-9.80512e-13
2.70876e-14
2.48893e-13
1.82861e-12
-1.84935e-12
8.51751e-14
-2.57428e-13
-5.65104e-13
-0.0370625
0.0370625
-4.39483e-19
0.802525
-0.514064
4.75536
-5.1292
-0.270377
1.10228
4.57157
-5.40347
-1.91531
2.67123
3.2808
-4.03671
-3.35406
3.96074
2.38009
-2.98677
-4.4907
4.94469
1.70915
-2.16313
-5.32454
5.63479
1.1585
-1.46875
-5.88188
6.07438
0.725349
-0.917854
-6.22144
6.33157
0.416478
-0.526606
-6.41253
6.47103
0.215186
-0.273693
-6.51231
6.54074
0.0930707
-0.121492
-6.55968
6.57169
0.0232211
-0.0352326
-6.5787
6.5822
-0.0144493
0.010948
-6.58325
6.58263
-0.0332201
0.0338418
-6.5809
6.57847
-0.0416765
0.0441112
-6.57558
6.57243
-0.0447243
0.0478833
-6.56912
6.56575
-0.0448553
0.0482283
-6.56236
6.55897
-0.0434636
0.0468517
-6.55559
6.5522
-0.0415792
0.0449683
-6.5488
6.54538
-0.0398093
0.0432363
-6.5419
6.53836
-0.0383604
0.0418948
-6.53476
6.53106
-0.037211
0.0409112
-6.52728
6.52341
-0.036263
0.0401357
-6.51943
6.51537
-0.0354426
0.0395035
-6.51121
6.50693
-0.0347318
0.0390123
-6.50255
6.49805
-0.0340835
0.0385784
-6.49345
6.48874
-0.0335435
0.0382508
-6.48391
6.47891
-0.033351
0.0383443
-6.47374
6.46838
-0.0334754
0.0388419
-6.46281
6.45706
-0.0335465
0.039293
-6.45117
6.44516
-0.0334413
0.0394503
-6.43904
6.43276
-0.0337734
0.0400535
-6.42623
6.41939
-0.0349754
0.041816
-6.41218
6.40458
-0.03628
0.0438714
-6.39673
6.38881
-0.0362871
0.0442094
-6.38096
6.3732
-0.0357567
0.0435124
-6.36531
6.35704
-0.037489
0.0457633
-6.34823
6.33892
-0.0401744
0.0494856
-6.32932
6.31979
-0.0403088
0.0498449
-6.31054
6.30157
-0.0389476
0.0479222
-6.29269
6.28363
-0.0393362
0.0483996
-6.27442
6.26505
-0.0393522
0.0487176
-6.25618
6.24777
-0.0361462
0.0445525
-0.244798
0.303609
-0.0588027
0.0961615
-0.104685
-0.22362
0.238413
0.122046
-0.158973
-0.158238
0.192742
0.184531
-0.199159
0.0142686
-0.00187004
0.200758
-0.186397
0.0592243
-0.0735853
0.162708
-0.133475
0.00436382
-0.0275063
0.115757
-0.105644
-0.0756061
0.0543295
0.091277
-0.075385
-0.169966
0.154073
0.0580109
-0.0396977
-0.317263
0.29895
0.0198703
0.00242118
-0.546616
0.524325
-0.0281356
0.0579984
-0.877756
0.847893
-0.0934758
0.139662
-1.26976
1.22357
-0.218308
0.115893
-1.11556
0.748528
9.15934e-16
-9.1443e-16
2.10973e-20
8.21932e-21
-6.08145e-16
-1.11407e-12
-2.15646e-13
1.48452e-12
1.52305e-11
-5.97769e-11
-8.60901e-12
5.16183e-11
1.26993e-10
-1.37778e-10
-2.08361e-13
-1.65552e-13
-5.42232e-11
5.42232e-11
3.1646e-19
-7.66762e-20
0.131594
0.509205
5.63079
-6.3449
-1.06284
1.64068
6.08602
-6.66386
-2.25287
2.87188
4.71892
-5.33793
-3.46963
4.02834
3.56755
-4.12626
-4.53093
4.96757
2.60745
-3.04409
-5.33113
5.62452
1.77063
-2.06402
-5.85361
6.02873
1.10219
-1.27732
-6.16032
6.25888
0.630991
-0.729553
-6.33228
6.38714
0.329844
-0.384704
-6.42826
6.45947
0.150574
-0.181791
-6.48345
6.5022
0.0498735
-0.0686242
-6.51711
6.52921
-0.00375835
-0.00834524
-6.53924
6.54776
-0.0303437
0.0218253
-6.55517
6.56166
-0.0423871
0.0358971
-6.56744
6.57262
-0.0470524
0.0418741
-6.57728
6.58147
-0.0479087
0.0437127
-6.58526
6.58866
-0.046887
0.04349
-6.59167
6.5943
-0.0453284
0.0427058
-6.59655
6.59842
-0.0439673
0.0421
-6.59993
6.60106
-0.0430254
0.0418898
-6.60185
6.60229
-0.0424554
0.0420195
-6.6024
6.60219
-0.0420837
0.0422949
-6.60169
6.60089
-0.0418342
0.0426333
-6.59982
6.59844
-0.0417338
0.0431074
-6.59679
6.59486
-0.0416867
0.0436176
-6.59269
6.59027
-0.0417103
0.0441309
-6.58761
6.58467
-0.0422051
0.0451441
-6.58143
6.57785
-0.0432139
0.0467946
-6.57394
6.56969
-0.0441866
0.0484381
-6.56519
6.56049
-0.0446962
0.0493989
-6.55563
6.55057
-0.0456229
0.0506817
-6.54523
6.53948
-0.0480198
0.0537773
-6.5332
6.52636
-0.0509818
0.0578234
-6.51907
6.51158
-0.0518105
0.0593017
-6.50423
6.49712
-0.050846
0.0579499
-6.48999
6.48239
-0.0536082
0.0612045
-6.47408
6.46502
-0.058561
0.0676203
-6.45552
6.44605
-0.0592195
0.0686878
-6.43708
6.42864
-0.0565362
0.0649812
-6.42038
6.4119
-0.0570962
0.0655732
-6.40306
6.394
-0.0578154
0.066877
-6.3853
6.37746
-0.0525584
0.0603909
-0.362849
0.421834
-0.0586894
0.0987285
-0.126893
-0.270413
0.307186
0.147309
-0.154517
-0.216615
0.216234
0.165964
-0.205885
-0.00807162
0.0159028
0.208498
-0.20007
0.0845882
-0.0930188
0.181297
-0.147397
0.0534642
-0.0808753
0.110004
-0.0889856
-0.034697
0.00775895
0.0674003
-0.0389906
-0.131236
0.102826
0.00493414
0.0356783
-0.267919
0.227306
-0.0842241
0.142955
-0.481131
0.422401
-0.215189
0.304129
-0.782972
0.694032
-0.413188
0.544673
-1.12455
0.993069
-0.704067
0.307878
-0.722058
0.832594
4.42202e-05
-9.53207e-16
-1.07658e-20
-4.42202e-05
-4.00087e-15
4.37053e-13
-3.00537e-12
3.66901e-12
1.56302e-11
-3.81573e-10
-1.9109e-10
6.04331e-10
2.09021e-09
-2.31276e-10
2.8282e-10
-1.92323e-09
-7.19348e-12
7.19348e-12
1.69414e-29
1.10712e-29
-0.534861
1.35926
7.21193
-8.02725
-1.78273
2.21177
7.15401
-7.58304
-2.67848
3.17488
5.88617
-6.38257
-3.68439
4.18034
4.64874
-5.14468
-4.63861
5.03561
3.45917
-3.85617
-5.36112
5.61449
2.33674
-2.59011
-5.80672
5.95053
1.43615
-1.57997
-6.05937
6.14477
0.819811
-0.905205
-6.21346
6.27035
0.438529
-0.495415
-6.31837
6.3598
0.216401
-0.257828
-6.39597
6.42793
0.0927962
-0.12476
-6.45633
6.48171
0.0263647
-0.0517393
-6.50446
6.52497
-0.00767844
-0.0128308
-6.54377
6.56064
-0.0243417
0.0074734
-6.57603
6.59011
-0.0322638
0.0181872
-6.60292
6.61458
-0.035714
0.0240558
-6.62517
6.63481
-0.0368589
0.0272236
-6.64355
6.65145
-0.0373114
0.0294071
-6.65854
6.66489
-0.0378595
0.0315176
-6.67051
6.67545
-0.0387114
0.0337622
-6.67976
6.68346
-0.0398157
0.0361114
-6.68659
6.68919
-0.0409671
0.0383625
-6.6913
6.69295
-0.0420698
0.040422
-6.69415
6.69493
-0.043287
0.0425138
-6.69526
6.69517
-0.0445052
0.044593
-6.69471
6.6939
-0.0456262
0.0464367
-6.69277
6.69128
-0.047246
0.0487389
-6.6894
6.68707
-0.0496398
0.0519661
-6.68427
6.68101
-0.0520847
0.0553443
-6.67738
6.67348
-0.0535853
0.0574861
-6.66941
6.66515
-0.0552315
0.0594982
-6.6606
6.65562
-0.0590452
0.0640257
-6.65004
6.64371
-0.0643167
0.0706483
-6.63668
6.62921
-0.0666619
0.0741289
-6.62191
6.6152
-0.0647467
0.0714548
-6.60864
6.60162
-0.0684236
0.0754442
-6.5937
6.58479
-0.076514
0.085422
-6.57515
6.56548
-0.0781367
0.0878101
-6.55652
6.54852
-0.0731104
0.0811141
-6.54084
6.53289
-0.0736885
0.0816417
-6.52438
6.51548
-0.0757661
0.0846666
-6.50672
6.49916
-0.0679818
0.0755447
-0.480824
0.537326
-0.0565012
0.103662
-0.135772
-0.336171
0.368281
0.156825
-0.114197
-0.194991
0.164496
0.199073
-0.212531
-0.0266621
0.0401202
0.217374
-0.213697
0.0989986
-0.102676
0.200401
-0.177808
0.105748
-0.12834
0.142856
-0.094362
0.0234183
-0.0611179
0.0610087
-0.0299497
-0.0683164
0.0283187
-0.0117778
0.0620173
-0.180887
0.130644
-0.12296
0.196873
-0.354392
0.280479
-0.286573
0.39474
-0.592444
0.484276
-0.52343
0.67126
-0.848701
0.700872
-0.823957
0.889999
-0.831567
0.765525
-0.100024
-3.6768e-13
0.0010029
0.00461667
3.6768e-13
1.28248e-12
-3.53882e-12
2.99171e-12
-2.38092e-11
-1.45137e-10
-1.14987e-09
2.10016e-09
4.8516e-10
2.34589e-10
2.6976e-09
-3.45695e-09
-1.57168e-10
1.57168e-10
-1.41007e-27
1.45162e-28
-1.71204
2.1012
8.67676
-9.06089
-2.37269
2.68519
7.95059
-8.26309
-3.04703
3.45254
6.8292
-7.23471
-3.88874
4.3266
5.60761
-6.04547
-4.7309
5.07186
4.22469
-4.56565
-5.33739
5.53232
2.81451
-3.00944
-5.6783
5.79334
1.70611
-1.82115
-5.89312
5.98146
0.988506
-1.07684
-6.00218
5.96766
0.559169
-0.517253
-5.90854
5.85043
0.308809
-0.237407
-5.80603
5.77689
0.165746
-0.118245
-5.76029
5.75367
0.0846938
-0.0622789
-5.75524
5.76493
0.039465
-0.0340187
-5.78128
5.80455
0.0141816
-0.0188127
-5.83173
5.86198
-0.000370906
-0.00969145
-5.89486
5.92978
-0.00950424
-0.00355946
-5.9663
6.00384
-0.0153728
0.00109005
-6.04201
6.08053
-0.0196593
0.00502012
-6.11912
6.15747
-0.0236628
0.0088611
-6.19539
6.23287
-0.0275562
0.0126197
-6.2701
6.30723
-0.0313525
0.0163549
-6.34429
6.38115
-0.0348682
0.019979
-6.41775
6.4542
-0.0380015
0.0234148
-6.49068
6.52718
-0.0410715
0.0269255
-6.56339
6.59868
-0.044095
0.0305856
-6.63249
6.66529
-0.0467486
0.0340785
-6.69657
6.7256
-0.0497787
0.037893
-6.76306
6.79527
-0.0538722
0.0431251
-6.79893
6.79615
-0.0582703
0.0610486
-6.79288
6.78923
-0.0611522
0.0648007
-6.78537
6.78131
-0.0635302
0.0675872
-6.77701
6.77238
-0.068711
0.0733377
-6.7672
6.76128
-0.0767088
0.0826296
-6.75447
6.74683
-0.0816296
0.0892665
-6.73909
6.73228
-0.0780895
0.084901
-6.72593
6.71913
-0.082231
0.0890322
-6.71155
6.70288
-0.0941819
0.102842
-6.69329
6.68325
-0.0975984
0.107636
-6.67399
6.66618
-0.0889242
0.0967403
-6.65891
6.65137
-0.0892938
0.096833
-6.64329
6.6347
-0.0934308
0.102017
-6.62601
6.6184
-0.0830298
0.0906404
-0.589211
0.630439
-0.0412285
0.100224
-0.141175
-0.404239
0.445189
0.145182
-0.0967529
-0.143838
0.151676
0.204594
-0.218245
-0.053312
0.0669631
0.226563
-0.227964
0.103909
-0.102508
0.22078
-0.204148
0.147953
-0.164542
0.177826
-0.140506
0.10284
-0.139054
0.0875361
-0.0471037
0.00840119
-0.0531285
0.00349056
0.0486551
-0.0793316
0.0271838
-0.110965
0.186214
-0.205308
0.13009
-0.275737
0.380633
-0.376758
0.271863
-0.501141
0.634618
-0.559136
0.425658
-0.771514
0.888799
-0.651202
0.533917
-0.100919
-2.68272e-13
-0.00240457
0.0299203
2.68271e-13
1.27376e-12
-2.47506e-12
1.94884e-12
-5.50054e-11
8.26848e-10
-2.92651e-09
3.14807e-09
-2.42745e-09
1.02626e-09
4.25464e-09
-3.63298e-09
-8.83575e-11
0.381032
7.39144e-18
-0.381032
-2.50694
2.6348
9.24336
-9.37122
-2.80505
3.0314
8.52776
-8.75411
-3.31607
3.65021
7.6009
-7.93505
-4.02207
4.39642
6.44961
-6.82395
-4.72918
4.98666
4.86572
-5.12319
-4.97253
3.08381
3.15966
-1.20054
-1.08859
0.261323
0.984663
9.80891e-20
6.59815e-19
-2.18834e-19
0
2.03042e-20
9.15081e-20
-1.43111e-19
0
1.38243e-20
1.64564e-19
-1.6511e-19
0
1.13289e-20
1.56108e-19
-1.51709e-19
0
7.20384e-21
1.62682e-19
-1.93018e-19
0
4.17965e-21
2.40061e-19
-2.96424e-19
0
2.61375e-21
3.52667e-19
-4.00264e-19
0
1.84046e-21
4.33941e-19
-4.52632e-19
0
1.36027e-21
4.58857e-19
-4.57067e-19
0
9.57213e-22
4.51595e-19
-4.43612e-19
0
5.99646e-22
4.18493e-19
-2.95458e-19
0
3.32061e-22
-1.36816e-22
-3.37898e-21
0
1.35907e-22
3.57579e-21
-6.71371e-23
0
-5.73341e-24
-9.06639e-22
2.51372e-22
0
1.47693e-23
5.96938e-21
-6.10149e-21
0
-2.46418e-23
1.84602e-20
3.54273e-20
0
6.28016e-23
1.04583e-20
-1.83802e-20
0
-9.04032e-23
-2.02304e-20
1.78698e-20
0
1.15996e-22
3.45391e-20
1.12399e-20
0
-2.83105e-22
3.88619e-20
-3.9368e-20
0
-3.41731e-22
5.47154e-20
-6.21395e-20
0
-3.70107e-22
-7.8833e-20
-2.99543e-20
0
-2.8643e-22
1.86948e-05
0.000498974
0.00020316
5.84453e-20
-0.00375202
0.00968994
-0.00223345
0
-0.0166772
0.0232898
-0.00513881
0
-0.0292974
0.0364329
-0.00636263
0
-0.0485522
0.0738948
-0.00671478
0
-0.125241
0.20159
-0.0159835
0
-0.26815