/*--------------------------------*- C++ -*----------------------------------*\
| =========                 |                                                 |
| \\      /  F ield         | OpenFOAM: The Open Source CFD Toolbox           |
|  \\    /   O peration     | Version:  v1912                                 |
|   \\  /    A nd           | Website:  www.openfoam.com                      |
|    \\/     M anipulation  |                                                 |
\*---------------------------------------------------------------------------*/
FoamFile
{
    version     2.0;
    format      ascii;
    class       volScalarField;
    location    "18";
    object      alpha.water;
}
// * * * * * * * * * * * * * * * * * * * * * * * * * * * * * * * * * * * * * //

dimensions      [0 0 0 0 0 0 0];


internalField   nonuniform List<scalar> 
20320
(
1
1
1
1
1
1
1
1
1
1
1
1
1
1
1
1
1
1
1
1
1
1
1
1
1
1
1
1
1
1
1
1
1
1
1
1
1
1
1
1
1
1
1
1
1
1
1
1
1
1
1
1
1
1
1
1
1
1
1
1
1
1
1
1
1
1
1
1
1
1
1
1
1
1
1
1
0.999999
1
1
1
1
1
1
1
1
1
1
1
1
1
1
1
1
1
1
1
1
1
1
1
1
1
1
1
1
1
1
1
1
1
1
1
1
1
1
1
1
1
1
1
1
1
1
1
1
1
1
1
1
1
1
1
1
1
1
1
1
1
1
1
1
1
1
1
1
1
1
1
1
1
1
1
1
1
1
1
1
1
1
1
1
1
1
1
1
1
1
1
1
1
1
1
1
1
1
1
1
1
1
1
1
1
1
1
1
1
1
1
1
1
1
1
1
1
1
1
1
1
1
1
1
1
1
1
1
1
1
1
1
1
1
1
1
1
1
1
1
1
1
1
1
1
1
1
1
1
1
1
1
1
1
1
1
1
1
1
1
1
1
1
1
1
1
1
1
1
1
1
1
1
1
1
1
1
1
1
1
1
1
1
1
1
1
1
1
1
1
1
1
1
1
1
1
1
1
1
1
1
1
1
1
1
1
1
1
1
1
1
1
1
1
1
1
1
1
1
1
1
1
1
1
1
1
1
1
1
1
1
1
1
1
1
1
1
1
1
1
1
1
1
1
1
1
1
1
1
1
1
1
1
1
1
1
1
1
1
1
1
1
1
1
1
1
1
1
1
1
1
1
1
1
1
1
1
1
1
1
0.999999
1
1
1
1
1
1
1
1
1
1
1
1
1
1
1
1
1
1
1
1
0.999999
1
1
1
1
1
1
1
1
1
1
1
1
1
1
1
1
1
1
1
0.999999
1
0.999723
0.999786
0.927148
1
1
1
0.999994
0.999994
0.999963
1
1
1
1
1
1
1
1
1
0.999697
1
1
1
1
1
1
1
1
1
1
1
1
1
1
1
1
1
1
1
1
1
1
1
1
1
1
1
1
1
1
1
1
1
1
1
1
1
1
1
1
1
0.999819
1
0.93652
0.97469
0.791994
0.985936
0.999912
0.999954
0.999978
1
1
1
1
1
0.733944
0.360815
0.287217
0.587587
0.983827
1
1
1
1
1
1
1
1
1
1
1
1
1
1
1
1
1
1
1
1
1
1
1
1
1
1
1
1
1
1
1
1
1
1
1
1
1
1
1
1
1
0.998993
1
0.818795
1
0.929002
0.939552
0.999944
0.999967
1
1
1
1
0.976216
0.00136088
3.02319e-22
9.55785e-14
3.49319e-13
-6.37323e-20
0.924027
1
1
1
1
1
1
1
1
1
1
1
1
1
1
1
1
1
1
1
1
1
1
1
1
1
1
1
1
1
1
1
1
1
1
1
1
1
1
1
1
1
0.998611
0.971199
0.847158
0.979354
0.999999
0.978689
0.966788
1
1
1
1
1
0.686919
-5.73263e-21
2.28078e-13
1.1048e-11
3.59173e-11
-6.49121e-20
0.883061
1
1
1
1
1
1
1
1
1
1
1
1
1
1
0.999999
0.999999
0.999999
1
1
1
1
1
1
1
1
1
1
1
1
1
1
1
1
1
1
1
1
1
1
1
1
0.999428
0.985614
0.941103
0.845803
0.999997
0.988719
0.891696
1
1
0.999999
1
1
0.733
4.59636e-20
5.30429e-13
9.93834e-11
1.49081e-09
8.66534e-31
0.945007
1
1
1
1
1
1
1
1
1
1
1
1
1
1
1
1
1
1
1
1
1
1
1
1
1
1
1
1
1
1
1
1
1
1
1
1
1
1
1
1
1
1
1
0.769398
1
1
1
0.920813
0.927817
0.999914
1
0.999999
1
1
0.00784106
4.14532e-13
2.75141e-10
2.08918e-09
2.11941e-29
0.993901
1
1
1
1
1
1
1
0.983643
0.952368
0.926937
0.91122
0.902552
0.899384
0.90052
0.903936
0.909182
0.915485
0.922498
0.929821
0.93745
0.945404
0.953613
0.962153
0.970937
0.97949
0.987513
0.998498
1
1
1
1
1
1
1
1
1
1
1
1
1
1
1
1
0.585132
1
1
0.999336
0.998326
0.895911
0.999939
0.99989
1
1
1
0.00865769
2.81431e-13
4.30093e-10
1.83581e-09
2.68159e-20
1
1
1
1
1
0.824384
0.142779
-4.06892e-20
-2.32225e-20
-2.63408e-20
-2.36633e-20
-2.93104e-20
-4.43449e-20
-5.94925e-20
-6.70164e-20
-6.7416e-20
-6.51709e-20
-4.40774e-20
-2.03841e-22
-1.18846e-21
1.08439e-21
-1.14575e-21
1.83555e-21
-2.55494e-21
2.86077e-21
-6.43127e-21
-6.59905e-21
-8.76128e-21
-3.57302e-21
4.55499e-05
0.00110223
0.00317774
0.00513575
0.00938764
0.0251225
0.0439685
0.0512568
0.0655244
0.124805
0.180557
0.176766
0.18961
0.999997
1
0.465916
1
0.999775
0.999211
0.998313
0.989139
0.993317
0.9983
0.999958
1
1
0.389514
2.16737e-13
4.13584e-10
6.35069e-10
0.4324
1
1
1
1
0.523299
-1.3918e-20
-5.23295e-21
-7.10201e-21
-9.78609e-21
-1.15035e-20
-1.21636e-20
-1.22529e-20
-1.21335e-20
-1.20441e-20
-1.21715e-20
-1.25449e-20
-1.30277e-20
-1.34479e-20
-1.37171e-20
-1.38579e-20
-1.39957e-20
-1.42992e-20
-1.49461e-20
-1.60237e-20
-1.74378e-20
-1.89103e-20
-2.00879e-20
-2.06889e-20
-2.04626e-20
-1.92691e-20
-1.78336e-20
-1.63043e-20
-1.48584e-20
-1.35717e-20
-1.24325e-20
-1.14158e-20
-1.04235e-20
-9.68655e-21
-9.04299e-21
-8.45218e-21
-7.71569e-21
-7.31756e-21
0.661959
1
0.292785
1
0.999458
1
1
0.999689
0.920484
0.999999
1
0.999998
1
0.737718
2.22785e-13
5.33718e-10
1.82023e-11
0.865054
1
1
1
0.928299
-8.21635e-19
-1.5861e-20
-1.24639e-20
-1.02118e-20
-8.91823e-21
-8.45279e-21
-8.29037e-21
-8.15732e-21
-7.99153e-21
-7.83809e-21
-7.80804e-21
-8.00683e-21
-8.44424e-21
-9.01013e-21
-9.53762e-21
-9.89057e-21
-1.00187e-20
-9.96117e-21
-9.81062e-21
-9.66497e-21
-9.58883e-21
-9.59804e-21
-9.66893e-21
-9.76031e-21
-9.83235e-21
-9.85825e-21
-9.85055e-21
-9.85426e-21
-9.90542e-21
-1.0041e-20
-1.02704e-20
-1.05613e-20
-1.08714e-20
-1.11713e-20
-1.14475e-20
-1.16908e-20
-1.18851e-20
-1.20207e-20
0.636152
0.93008
0.642075
0.999993
0.999372
1
1
0.999496
0.985349
0.965511
0.993597
1
1
0.395851
2.28478e-13
1.50729e-09
-3.66332e-28
1
1
1
1
0.11183
-9.08612e-21
-1.05036e-20
-8.85059e-21
-7.0942e-21
-6.22004e-21
-5.86113e-21
-5.74679e-21
-5.72755e-21
-5.71307e-21
-5.66928e-21
-5.6209e-21
-5.61942e-21
-5.69518e-21
-5.83332e-21
-5.9871e-21
-6.10847e-21
-6.17109e-21
-6.1746e-21
-6.13847e-21
-6.08904e-21
-6.04623e-21
-6.01712e-21
-5.99822e-21
-5.98261e-21
-5.96542e-21
-5.94559e-21
-5.93101e-21
-5.93958e-21
-5.99273e-21
-6.11272e-21
-6.30637e-21
-6.55891e-21
-6.8485e-21
-7.15628e-21
-7.46875e-21
-7.77343e-21
-8.04953e-21
-8.27608e-21
0.671067
-1.23224e-19
0.308118
1
0.999152
1
1
0.997586
0.911556
0.832523
1
1
1
0.454413
1.17277e-11
1.52026e-09
0.230584
1
1
1
1
-1.01925e-19
-8.14721e-21
-7.8131e-21
-5.94269e-21
-5.01188e-21
-4.4733e-21
-4.11237e-21
-3.90582e-21
-3.81567e-21
-3.78535e-21
-3.76928e-21
-3.74679e-21
-3.71876e-21
-3.69494e-21
-3.68234e-21
-3.68088e-21
-3.68663e-21
-3.69416e-21
-3.69775e-21
-3.69545e-21
-3.68857e-21
-3.68007e-21
-3.6729e-21
-3.66947e-21
-3.67184e-21
-3.68182e-21
-3.70065e-21
-3.73091e-21
-3.77831e-21
-3.85099e-21
-3.95668e-21
-4.09595e-21
-4.26111e-21
-4.44165e-21
-4.62783e-21
-4.81095e-21
-4.98172e-21
-5.12824e-21
-5.23925e-21
0.993654
6.1434e-29
3.50411e-09
1
0.999684
0.98278
0.652181
1
1
0.983457
0.938245
0.997734
1
0.171226
4.46258e-11
2.16353e-30
0.801064
1
1
1
0.318811
-6.49546e-36
-7.62215e-21
-5.95711e-21
-4.53769e-21
-3.7289e-21
-3.21343e-21
-2.8655e-21
-2.64377e-21
-2.51439e-21
-2.44212e-21
-2.39717e-21
-2.36019e-21
-2.32321e-21
-2.28643e-21
-2.25359e-21
-2.22813e-21
-2.21191e-21
-2.20681e-21
-2.20949e-21
-2.21777e-21
-2.23011e-21
-2.24589e-21
-2.26559e-21
-2.29044e-21
-2.32185e-21
-2.36058e-21
-2.4062e-21
-2.458e-21
-2.51664e-21
-2.58467e-21
-2.66478e-21
-2.75659e-21
-2.85598e-21
-2.95711e-21
-3.05402e-21
-3.14093e-21
-3.21193e-21
-3.26052e-21
-3.28081e-21
0.997962
0.68439
0.908464
0.999881
0.999924
0.759418
0.999103
1
0.998062
0.81456
0.952304
1
0.65799
3.94171e-20
1.08023e-10
1.77127e-28
0.997592
1
1
1
0.0108235
-3.337e-21
-5.82775e-21
-4.71724e-21
-3.5834e-21
-2.82539e-21
-2.32357e-21
-1.98583e-21
-1.76273e-21
-1.61938e-21
-1.52692e-21
-1.46317e-21
-1.41395e-21
-1.37273e-21
-1.33814e-21
-1.31104e-21
-1.29227e-21
-1.28179e-21
-1.27988e-21
-1.28636e-21
-1.29874e-21
-1.31627e-21
-1.33872e-21
-1.3662e-21
-1.39901e-21
-1.43714e-21
-1.47985e-21
-1.52564e-21
-1.57292e-21
-1.62124e-21
-1.67158e-21
-1.72509e-21
-1.78109e-21
-1.8365e-21
-1.88679e-21
-1.92692e-21
-1.95167e-21
-1.95563e-21
-1.93312e-21
-1.87857e-21
0.999457
0.999998
0.999809
0.999062
0.999973
0.760722
1
0.999997
0.999504
1
1
1
0.456834
1.88096e-11
6.70157e-11
0.0911635
1
1
1
0.958952
-1.16048e-19
-4.65649e-21
-4.71482e-21
-3.67663e-21
-2.74297e-21
-2.08051e-21
-1.6308e-21
-1.32671e-21
-1.12321e-21
-9.87746e-22
-8.96117e-22
-8.31462e-22
-7.83586e-22
-7.4726e-22
-7.20192e-22
-7.01277e-22
-6.89615e-22
-6.84232e-22
-6.84199e-22
-6.89986e-22
-7.01473e-22
-7.17239e-22
-7.37068e-22
-7.60811e-22
-7.88228e-22
-8.18755e-22
-8.51325e-22
-8.84427e-22
-9.16565e-22
-9.46908e-22
-9.7533e-22
-1.00155e-21
-1.02404e-21
-1.0396e-21
-1.04386e-21
-1.03186e-21
-9.98517e-22
-9.38842e-22
-8.48139e-22
-7.22442e-22
1
0.999961
0.999931
1
1
0.178737
1
0.982457
0.930585
0.997888
1
1
0.150694
2.47288e-11
2.41561e-12
0.710732
1
0.999999
1
0.313312
-3.61232e-21
-5.09568e-21
-4.01212e-21
-2.95634e-21
-2.08975e-21
-1.498e-21
-1.10638e-21
-8.47667e-22
-6.77012e-22
-5.63687e-22
-4.86958e-22
-4.33549e-22
-3.95527e-22
-3.68316e-22
-3.49232e-22
-3.36521e-22
-3.28897e-22
-3.25373e-22
-3.25197e-22
-3.27897e-22
-3.34119e-22
-3.44117e-22
-3.56798e-22
-3.71828e-22
-3.88736e-22
-4.06796e-22
-4.24926e-22
-4.41717e-22
-4.55668e-22
-4.65469e-22
-4.70022e-22
-4.68056e-22
-4.57653e-22
-4.36086e-22
-4.00088e-22
-3.46242e-22
-2.71398e-22
-1.72947e-22
-5.00649e-23
2.76283e-22
0.234303
0.994297
1
0.917053
0.581947
0.0261828
0.959066
1.46191e-08
0.069745
0.902023
1
0.725425
7.30513e-12
3.56912e-11
-4.41823e-29
0.986503
1
1
1
0.0171802
-5.22975e-21
-4.64828e-21
-3.44428e-21
-2.37119e-21
-1.57132e-21
-1.05223e-21
-7.23581e-22
-5.15848e-22
-3.8395e-22
-2.99086e-22
-2.4328e-22
-2.05703e-22
-1.79962e-22
-1.62228e-22
-1.5013e-22
-1.42125e-22
-1.37167e-22
-1.34529e-22
-1.33695e-22
-1.3429e-22
-1.36083e-22
-1.39438e-22
-1.44736e-22
-1.51032e-22
-1.57808e-22
-1.64359e-22
-1.6973e-22
-1.72755e-22
-1.72187e-22
-1.66869e-22
-1.55782e-22
-1.37931e-22
-1.12204e-22
-7.73591e-23
-3.2377e-23
5.85266e-23
4.65173e-22
1.32498e-21
2.82059e-21
5.20154e-21
1.63634e-12
2.37075e-20
0.0492564
0.152159
0.191562
0.298238
0.00134868
1.00259e-09
0.000452445
0.0232934
0.0252209
5.49601e-29
3.24195e-11
4.13215e-11
0.00999114
1
1
1
1
-1.26003e-19
-5.32346e-21
-4.23871e-21
-2.91495e-21
-1.86409e-21
-1.1547e-21
-7.17392e-22
-4.54679e-22
-2.97906e-22
-2.03932e-22
-1.46644e-22
-1.10862e-22
-8.79322e-23
-7.29099e-23
-6.29218e-23
-5.624e-23
-5.17965e-23
-4.89083e-23
-4.71224e-23
-4.61245e-23
-4.56787e-23
-4.55928e-23
-4.57278e-23
-4.61708e-23
-4.72027e-23
-4.82076e-23
-4.86986e-23
-4.81458e-23
-4.59808e-23
-4.16827e-23
-3.4855e-23
-2.52566e-23
-1.28e-23
4.60489e-24
9.2435e-23
2.90248e-22
6.23702e-22
1.19186e-21
2.19722e-21
4.0035e-21
7.1273e-21
2.8348e-06
0.0138292
0.0119225
-1.82438e-23
-4.63369e-21
0.00148634
5.62888e-08
4.89416e-08
1.24105e-12
2.85879e-12
4.71829e-11
1.34567e-10
1.38163e-10
3.10865e-49
0.639258
1
1
1
0.38356
3.47781e-38
-5.72551e-21
-3.84546e-21
-2.42982e-21
-1.43879e-21
-8.27653e-22
-4.7293e-22
-2.73271e-22
-1.62459e-22
-1.00826e-22
-6.59395e-23
-4.56496e-23
-3.34749e-23
-2.59367e-23
-2.1135e-23
-1.80013e-23
-1.59146e-23
-1.45025e-23
-1.353e-23
-1.2841e-23
-1.23231e-23
-1.18877e-23
-1.14605e-23
-1.09905e-23
-1.04945e-23
-1.00841e-23
-9.60095e-24
-8.83459e-24
-7.65466e-24
-5.98655e-24
-3.83429e-24
-1.28493e-24
4.40836e-24
2.5364e-23
6.16298e-23
1.16729e-22
2.19156e-22
4.23344e-22
8.14568e-22
1.51037e-21
2.5912e-21
3.02847e-05
4.19591e-07
1.71483e-26
1.39091e-05
1.18933e-06
1.15832e-07
1.74209e-08
3.23875e-12
1.39607e-10
1.25816e-11
4.17317e-11
1.15905e-10
6.41099e-11
-4.1367e-32
0.978171
1
1
1
0.0363842
-6.48209e-21
-5.29496e-21
-3.3637e-21
-1.97262e-21
-1.08638e-21
-5.76471e-22
-2.99992e-22
-1.56205e-22
-8.31168e-23
-4.60601e-23
-2.69564e-23
-1.68072e-23
-1.12032e-23
-7.9747e-24
-6.03143e-24
-4.80956e-24
-4.00737e-24
-3.4564e-24
-3.05805e-24
-2.75176e-24
-2.49816e-24
-2.27041e-24
-2.05006e-24
-1.8257e-24
-1.59498e-24
-1.36883e-24
-1.17014e-24
-9.95308e-25
-8.01002e-25
-5.77866e-25
-3.37591e-25
-1.06972e-25
2.243e-25
1.17567e-24
2.66911e-24
5.34159e-24
1.03668e-23
1.88885e-23
3.0545e-23
3.99839e-23
4.08476e-23
0.000388781
-1.21994e-24
0.000139896
1.26031e-08
6.29539e-08
1.24187e-07
3.23875e-12
1.08006e-09
5.35282e-08
3.08937e-11
2.95692e-11
1.42874e-08
-6.41307e-24
0.00536546
1
1
1
1
-1.66318e-19
-1.15834e-20
-4.6653e-21
-2.79138e-21
-1.54805e-21
-7.96457e-22
-3.87575e-22
-1.81927e-22
-8.43336e-23
-3.95941e-23
-1.9272e-23
-9.91341e-24
-5.46206e-24
-3.24472e-24
-2.07846e-24
-1.42765e-24
-1.04168e-24
-7.98284e-25
-6.35014e-25
-5.18389e-25
-4.29703e-25
-3.58126e-25
-2.9734e-25
-2.43802e-25
-1.95777e-25
-1.52781e-25
-1.15194e-25
-8.38975e-26
-5.94904e-26
-4.11508e-26
-2.50239e-26
-8.89488e-27
1.67892e-26
9.17609e-26
1.90447e-25
3.30128e-25
5.1694e-25
6.17761e-25
5.94724e-25
4.35899e-25
2.15107e-25
5.72036e-26
0.000388931
3.66408e-05
0.000114701
3.38932e-09
1.26461e-09
3.23875e-12
4.26783e-08
7.6406e-08
4.13526e-09
2.02776e-06
8.67601e-07
2.76645e-08
1.20987e-44
0.666122
1
1
1
0.450456
-1.13586e-21
-5.70788e-21
-3.82986e-21
-2.24087e-21
-1.1783e-21
-5.63948e-22
-2.49848e-22
-1.04749e-22
-4.26871e-23
-1.7408e-23
-7.30931e-24
-3.23899e-24
-1.54257e-24
-7.9749e-25
-4.48091e-25
-2.71943e-25
-1.76292e-25
-1.2044e-25
-8.55127e-26
-6.22579e-26
-4.5911e-26
-3.39097e-26
-2.48314e-26
-1.7863e-26
-1.25192e-26
-8.48474e-27
-5.5249e-27
-3.43905e-27
-2.03992e-27
-1.14489e-27
-5.83105e-28
-2.20594e-28
-4.96098e-30
2.51996e-28
4.56559e-28
5.18915e-28
4.60174e-28
2.84956e-28
1.13057e-28
3.33094e-29
2.06666e-29
2.35909e-29
0.000307808
0.000264969
1.28408e-10
4.52333e-09
3.58006e-10
1.60468e-07
3.81548e-08
1.20732e-08
0.000188381
5.29707e-06
5.36432e-06
9.21961e-10
-1.89955e-27
0.989512
1
1
1
0.0621267
-4.91793e-21
-5.06449e-21
-3.15713e-21
-1.75602e-21
-8.70852e-22
-3.84303e-22
-1.53595e-22
-5.68955e-23
-2.01008e-23
-6.99966e-24
-2.48442e-24
-9.26428e-25
-3.71525e-25
-1.6235e-25
-7.74824e-26
-4.01276e-26
-2.22708e-26
-1.30456e-26
-7.94124e-27
-4.9493e-27
-3.11584e-27
-1.95771e-27
-1.21481e-27
-7.37625e-28
-4.34762e-28
-2.47068e-28
-1.34592e-28
-6.99583e-29
-3.45977e-29
-1.63e-29
-7.37394e-30
-3.22568e-30
-1.33809e-30
-4.91833e-31
-1.4372e-31
-2.38309e-32
1.87466e-59
8.20303e-33
3.35619e-32
1.63897e-31
1.25735e-30
1.33909e-29
3.02115e-05
0.000264969
1.28408e-10
1.09754e-09
1.63969e-08
3.30478e-09
5.97082e-06
0.000188381
8.6872e-05
3.10607e-05
4.73076e-09
3.88845e-09
0.0957076
1
1
1
1
-8.55299e-21
-5.38518e-21
-4.19663e-21
-2.487e-21
-1.33998e-21
-6.22297e-22
-2.50845e-22
-8.95482e-23
-2.89512e-23
-8.73074e-24
-2.54537e-24
-7.45814e-25
-2.2759e-25
-7.44012e-26
-2.64854e-26
-1.031e-26
-4.35973e-27
-1.97697e-27
-9.45984e-28
-4.6988e-28
-2.38514e-28
-1.2202e-28
-6.21474e-29
-3.11869e-29
-1.52816e-29
-7.25731e-30
-3.31945e-30
-1.45487e-30
-6.08384e-31
-2.41952e-31
-9.13113e-32
-3.27191e-32
-1.12245e-32
-3.74222e-33
-1.07098e-33
4.42267e-34
7.66946e-33
3.8765e-32
1.54892e-31
5.34486e-31
2.39484e-30
2.12426e-29
3.48267e-28
3.02115e-05
9.62433e-05
1.44334e-10
4.26487e-10
1.44523e-10
7.94184e-06
0.00018454
3.60345e-05
3.78411e-10
5.43185e-05
4.30922e-08
1.46362e-27
0.817181
1
1
1
0.470045
8.79168e-22
-5.64178e-21
-3.45152e-21
-1.96032e-21
-9.97133e-22
-4.27971e-22
-1.56104e-22
-4.92398e-23
-1.37035e-23
-3.46463e-24
-8.26664e-25
-1.94325e-25
-4.68705e-26
-1.19854e-26
-3.31494e-27
-9.98291e-28
-3.25621e-28
-1.13612e-28
-4.17488e-29
-1.5896e-29
-6.17537e-30
-2.41506e-30
-9.39642e-31
-3.60098e-31
-1.34823e-31
-4.8973e-32
-1.71602e-32
-5.77309e-33
-1.85781e-33
-5.69513e-34
-1.63824e-34
-3.7711e-35
2.19116e-35
2.21424e-34
8.89702e-34
2.98037e-33
7.92118e-33
1.59169e-32
2.99145e-32
1.06807e-31
1.04196e-30
1.40465e-29
1.75097e-28
0.000185237
1.28406e-10
1.28584e-10
2.31072e-10
1.55347e-14
0.000167711
2.72999e-08
2.82212e-05
0.000983069
4.7024e-08
3.24606e-09
-4.54525e-19
1
1
1
1
0.0612415
-1.24127e-20
-4.77885e-21
-2.78953e-21
-1.5223e-21
-7.19074e-22
-2.82211e-22
-9.22202e-23
-2.53883e-23
-5.98482e-24
-1.24225e-24
-2.36003e-25
-4.29445e-26
-7.82755e-27
-1.48302e-27
-2.99234e-28
-6.49474e-29
-1.51348e-29
-3.74942e-30
-9.74102e-31
-2.61589e-31
-7.16296e-32
-1.97567e-32
-5.4319e-33
-1.47561e-33
-3.93172e-34
-1.02109e-34
-2.57136e-35
-6.25003e-36
-1.45478e-36
-3.05298e-37
-1.44982e-38
2.48873e-37
6.22927e-37
9.43242e-37
9.66651e-37
9.91048e-37
1.7949e-36
1.33061e-35
1.55835e-34
1.90314e-33
2.37085e-32
2.96888e-31
3.34147e-30
9.5361e-05
1.28406e-10
2.6619e-09
3.91175e-11
1.55347e-14
8.15985e-05
3.78411e-10
0.00172925
7.21702e-05
1.84675e-07
4.50993e-26
0.55435
1
1
1
1
-7.76068e-20
-4.9273e-21
-3.80603e-21
-2.28001e-21
-1.15737e-21
-5.00964e-22
-1.77942e-22
-5.15152e-23
-1.22036e-23
-2.39126e-24
-3.97117e-25
-5.80215e-26
-7.80453e-27
-1.01272e-27
-1.3203e-28
-1.77932e-29
-2.51866e-30
-3.75789e-31
-5.8835e-32
-9.58534e-33
-1.60929e-33
-2.75736e-34
-4.77865e-35
-8.31028e-36
-1.43994e-36
-2.4708e-37
-4.17611e-38
-6.91716e-39
-1.11617e-39
-1.70844e-40
-1.89412e-41
8.52064e-42
1.12261e-41
9.33342e-42
1.08847e-41
4.74934e-41
4.62055e-40
4.62118e-39
4.48226e-38
4.26832e-37
4.03193e-36
3.79294e-35
3.55233e-34
3.01442e-33
0.00957911
9.14956e-10
3.3786e-08
6.6394e-12
6.09369e-12
0.000465231
0.000347335
0.00172925
6.62158e-09
2.48055e-09
-5.26506e-21
0.991213
1
1
1
0.400531
-7.92501e-21
-4.4336e-21
-3.1875e-21
-1.79623e-21
-8.50598e-22
-3.35721e-22
-1.0688e-22
-2.7075e-23
-5.42841e-24
-8.64048e-25
-1.11201e-25
-1.19519e-26
-1.11735e-27
-9.5e-29
-7.65795e-30
-6.04398e-31
-4.77681e-32
-3.83217e-33
-3.13963e-34
-2.63552e-35
-2.26878e-36
-2.00147e-37
-1.80643e-38
-1.66285e-39
-1.5548e-40
-1.47008e-41
-1.39744e-42
-1.31296e-43
-1.06378e-44
2.12953e-46
5.22938e-46
7.58076e-47
7.18166e-47
3.72925e-46
3.57697e-45
3.20931e-44
2.67461e-43
2.10104e-42
1.57555e-41
1.13737e-40
7.93376e-40
5.36701e-39
3.47419e-38
1.97676e-37
0.00409183
3.73586e-05
5.6916e-09
2.23587e-10
6.09369e-12
0.000373268
0.00114858
0.000299659
9.09915e-07
-3.57519e-25
0.275666
1
1
1
1
0.0213226
-5.69173e-21
-4.47968e-21
-2.66155e-21
-1.37515e-21
-6.02134e-22
-2.15396e-22
-6.08761e-23
-1.33003e-23
-2.21208e-24
-2.78239e-25
-2.66391e-26
-1.98323e-27
-1.18152e-28
-5.81726e-30
-2.44699e-31
-9.04601e-33
-3.01311e-34
-9.28713e-36
-2.72482e-37
-7.85811e-39
-2.30219e-40
-7.02336e-42
-2.26845e-43
-7.81675e-45
-2.87287e-46
-1.11742e-47
-4.27952e-49
-5.2266e-51
1.28171e-51
3.82609e-53
8.32955e-53
5.84509e-52
5.61899e-51
4.92903e-50
3.84274e-49
2.68609e-48
1.70737e-47
9.97148e-47
5.40484e-46
2.72349e-45
1.27352e-44
5.45956e-44
2.11088e-43
6.82834e-43
0.00439301
0.000686963
6.23613e-10
1.07902e-08
1.73844e-05
4.57476e-05
0.000312059
3.28128e-06
2.40924e-06
-1.47225e-19
0.936093
1
1
1
0.95419
2.39253e-19
-6.29582e-21
-3.74231e-21
-2.11308e-21
-1.02023e-21
-4.09838e-22
-1.31753e-22
-3.26722e-23
-6.05798e-24
-8.16034e-25
-7.82226e-26
-5.28192e-27
-2.50618e-28
-8.34389e-30
-1.94392e-31
-3.12663e-33
-3.37005e-35
-2.35819e-37
-1.06013e-39
-3.25176e-42
-7.92949e-45
-1.88466e-47
-5.14493e-50
-1.7613e-52
-5.21654e-55
1.50508e-55
1.25865e-56
1.05714e-59
5.62701e-60
2.14038e-59
1.64096e-58
1.62248e-57
1.45912e-56
1.14236e-55
7.70941e-55
4.4661e-54
2.2497e-53
1.00986e-52
4.01157e-52
1.39274e-51
4.14699e-51
1.05022e-50
2.11924e-50
3.18707e-50
3.56387e-50
0.00499621
-2.07888e-22
-3.38634e-29
2.03793e-09
5.99303e-05
5.71122e-07
2.82081e-23
0.000119377
-1.39254e-24
0.185596
1
1
1
1
0.228748
-3.60016e-21
-4.70149e-21
-2.95834e-21
-1.62231e-21
-7.30433e-22
-2.67021e-22
-7.64238e-23
-1.64119e-23
-2.53159e-24
-2.68179e-25
-1.87069e-26
-8.25929e-28
-2.20212e-29
-3.29894e-31
-2.44194e-33
-6.81635e-36
-3.48172e-39
-7.27675e-57
-2.00525e-59
-1.39458e-61
1.66982e-63
9.27673e-62
2.81021e-61
4.21701e-61
4.67634e-62
4.64364e-67
-5.97957e-65
-4.73919e-64
-3.76464e-63
-2.86732e-62
-2.14893e-61
-1.63653e-60
-1.20289e-59
-8.41018e-59
-5.43761e-58
-3.17091e-57
-1.64356e-56
-7.49306e-56
-2.98146e-55
-1.02729e-54
-3.04861e-54
-7.80004e-54
-1.73371e-53
-3.38514e-53
-5.8292e-53
0.000174363
-2.01031e-27
8.71747e-09
1.29812e-09
3.08387e-10
-5.15966e-26
0.000803425
2.61079e-13
6.26915e-18
0.93814
1
1
1
1
8.57597e-19
-3.9919e-21
-3.73341e-21
-2.38058e-21
-1.21897e-21
-5.03175e-22
-1.6559e-22
-4.17383e-23
-7.64726e-24
-9.58216e-25
-7.6811e-26
-3.65801e-27
-9.44998e-29
-1.15091e-30
-5.00576e-33
-3.52578e-36
-1.74034e-52
-1.13377e-54
-8.23123e-57
-6.22226e-59
-4.6063e-61
-3.19957e-63
-1.99599e-65
2.24149e-67
-1.2135e-67
-1.48549e-66
-1.42735e-65
-1.25937e-64
-1.02879e-63
-7.82566e-63
-5.56811e-62
-3.92901e-61
-2.69521e-60
-1.75368e-59
-1.1267e-58
-6.74169e-58
-3.66904e-57
-1.78194e-56
-7.54346e-56
-2.73827e-55
-8.41848e-55
-2.17519e-54
-4.72196e-54
-8.68399e-54
-1.36905e-53
-1.84887e-53
0.000287539
0.000202882
1.89445e-09
1.00179e-10
9.11932e-09
0.00114408
0.000504052
2.31217e-13
0.311771
1
1
1
1
0.550807
-5.19009e-21
-4.14372e-21
-3.3178e-21
-1.91509e-21
-8.89684e-22
-3.31303e-22
-9.709e-23
-2.13098e-23
-3.26958e-24
-3.22922e-25
-1.85788e-26
-5.49916e-28
-6.94195e-30
-2.55386e-32
-6.93686e-36
-5.31141e-50
-3.60846e-52
-2.79376e-54
-2.33903e-56
-1.97913e-58
-1.59815e-60
-1.18758e-62
-7.96892e-65
-4.86833e-67
-8.71933e-68
-9.75734e-67
-1.0251e-65
-9.8639e-65
-8.73821e-64
-7.1503e-63
-5.41623e-62
-3.79895e-61
-2.46699e-60
-1.47894e-59
-8.15477e-59
-4.11333e-58
-1.9819e-57
-8.6038e-57
-3.24566e-56
-1.0457e-55
-2.80175e-55
-6.16345e-55
-1.11432e-54
-1.67835e-54
-2.13571e-54
-2.31724e-54
9.71897e-24
1.75356e-05
9.05362e-27
1.77335e-07
5.2985e-05
0.00157254
6.70166e-11
3.27625e-19
1
1
1
1
1
0.0473861
-5.97361e-21
-4.49978e-21
-2.94081e-21
-1.50949e-21
-6.24056e-22
-2.06743e-22
-5.34347e-23
-1.00914e-23
-1.27032e-24
-9.49496e-26
-3.63578e-27
-5.77076e-29
-2.52896e-31
-7.02984e-35
-1.29273e-47
-9.43618e-50
-7.79308e-52
-7.15e-54
-6.87153e-56
-6.46766e-58
-5.65454e-60
-4.46445e-62
-3.14883e-64
-1.98263e-66
-2.29142e-68
-1.55429e-67
-1.86788e-66
-2.0409e-65
-2.02864e-64
-1.83673e-63
-1.51512e-62
-1.13795e-61
-7.76366e-61
-4.79359e-60
-2.66265e-59
-1.32018e-58
-5.78141e-58
-2.20749e-57
-7.23963e-57
-2.00539e-56
-4.61712e-56
-8.78063e-56
-1.36151e-55
-1.7357e-55
-1.85183e-55
-1.76038e-55
0.000155722
9.23763e-28
2.50914e-07
8.63722e-08
0.00146112
1.83593e-08
6.87095e-09
0.708935
1
1
1
1
0.890454
-4.07689e-20
-4.57721e-21
-4.00211e-21
-2.38109e-21
-1.11377e-21
-4.11899e-22
-1.21057e-22
-2.74373e-23
-4.40574e-24
-4.42836e-25
-2.36782e-26
-5.37542e-28
-3.51191e-30
-2.04315e-33
-2.35373e-45
-1.92149e-47
-1.72304e-49
-1.72085e-51
-1.85392e-53
-2.01786e-55
-2.07251e-57
-1.91973e-59
-1.5818e-61
-1.16246e-63
-7.64232e-66
-4.55106e-68
-6.86658e-69
-8.84287e-68
-1.09057e-66
-1.23679e-65
-1.28092e-64
-1.20191e-63
-1.01436e-62
-7.64913e-62
-5.12139e-61
-3.0211e-60
-1.55551e-59
-6.9098e-59
-2.61067e-58
-8.25661e-58
-2.14967e-57
-4.54317e-57
-7.7401e-57
-1.06806e-56
-1.21042e-56
-1.15552e-56
-1.05128e-56
0.000245689
-5.14675e-29
1.05944e-09
0.000182589
1.64508e-06
1.11139e-07
0.113008
1
1
1
1
1
0.127031
-1.30179e-20
-5.13812e-21
-3.28765e-21
-1.78404e-21
-7.6356e-22
-2.53539e-22
-6.61634e-23
-1.31074e-23
-1.76542e-24
-1.36755e-25
-4.80565e-27
-5.29485e-29
-7.70327e-32
-3.06684e-43
-2.90801e-45
-2.90923e-47
-3.18252e-49
-3.7951e-51
-4.7056e-53
-5.61803e-55
-6.04e-57
-5.7739e-59
-4.92454e-61
-3.759e-63
-2.57464e-65
-1.58622e-67
-1.09532e-69
-3.00582e-69
-3.8622e-68
-4.57239e-67
-4.95751e-66
-4.89683e-65
-4.38092e-64
-3.5222e-63
-2.52375e-62
-1.59422e-61
-8.76251e-61
-4.12642e-60
-1.63424e-59
-5.33384e-59
-1.40604e-58
-2.94359e-58
-4.85847e-58
-6.36142e-58
-6.7234e-58
-5.9332e-58
-5.0575e-58
2.52063e-05
2.35736e-24
4.22629e-05
6.44672e-07
9.15148e-07
9.79146e-08
1
1
1
1
1
0.980073
-1.28089e-19
-7.58203e-21
-4.28498e-21
-2.52662e-21
-1.25541e-21
-4.88948e-22
-1.45952e-22
-3.3863e-23
-5.845e-24
-6.51088e-25
-3.71071e-26
-7.49521e-28
-2.66705e-30
-2.79009e-41
-3.16338e-43
-3.63786e-45
-4.42713e-47
-5.82823e-49
-8.10948e-51
-1.11447e-52
-1.3895e-54
-1.53723e-56
-1.51609e-58
-1.33757e-60
-1.05887e-62
-7.54242e-65
-4.8437e-67
-2.81392e-69
-9.62195e-71
-1.10126e-69
-1.37039e-68
-1.56299e-67
-1.62551e-66
-1.53067e-65
-1.29521e-64
-9.74949e-64
-6.45652e-63
-3.70881e-62
-1.81916e-61
-7.47214e-61
-2.51626e-60
-6.78875e-60
-1.43854e-59
-2.36629e-59
-3.03379e-59
-3.08125e-59
-2.54737e-59
-1.954e-59
0.000154692
1.55833e-06
-8.80209e-24
1.11138e-06
2.36712e-07
0.881278
1
1
1
1
1
0.1481
-1.00129e-20
-6.69904e-21
-3.39183e-21
-1.8326e-21
-8.31189e-22
-2.94199e-22
-7.92211e-23
-1.63967e-23
-2.46551e-24
-2.2464e-25
-8.91585e-27
-8.32412e-29
-2.25199e-32
-2.43729e-41
-3.29319e-43
-4.56134e-45
-6.66761e-47
-1.03253e-48
-1.61452e-50
-2.33239e-52
-2.9853e-54
-3.39735e-56
-3.45415e-58
-3.14836e-60
-2.58087e-62
-1.9078e-64
-1.27437e-66
-7.69836e-69
-4.37815e-71
-2.56351e-71
-3.32552e-70
-3.99129e-69
-4.36897e-68
-4.33194e-67
-3.85702e-66
-3.05299e-65
-2.12222e-64
-1.27699e-63
-6.53772e-63
-2.79046e-62
-9.70288e-62
-2.68019e-61
-5.74523e-61
-9.416e-61
-1.18188e-60
-1.15517e-60
-8.99819e-61
-6.31448e-61
0.000533972
4.73275e-09
6.85851e-06
1.04786e-06
0.783102
1
1
1
1
1
0.93969
9.54981e-20
-9.52199e-21
-4.41336e-21
-2.55629e-21
-1.26676e-21
-5.19486e-22
-1.67812e-22
-4.11273e-23
-7.64973e-24
-1.01027e-24
-7.60526e-26
-2.05313e-27
-7.49778e-30
-6.02097e-35
-2.1458e-41
-3.43457e-43
-5.66425e-45
-9.74905e-47
-1.71637e-48
-2.86014e-50
-4.23185e-52
-5.55301e-54
-6.4928e-56
-6.79645e-58
-6.39134e-60
-5.41542e-62
-4.1445e-64
-2.87077e-66
-1.80113e-68
-1.02214e-70
-1.00207e-72
-6.58439e-72
-8.31333e-71
-9.5865e-70
-1.00139e-68
-9.39304e-68
-7.82512e-67
-5.71661e-66
-3.60776e-65
-1.93105e-64
-8.57849e-64
-3.0851e-63
-8.73647e-63
-1.89681e-62
-3.0984e-62
-3.80758e-62
-3.58375e-62
-2.63934e-62
-1.70983e-62
0.000282489
1.39916e-06
7.29259e-18
0.837412
1
1
1
1
1
1
0.0979238
-9.77412e-21
-4.94137e-21
-3.52205e-21
-1.87745e-21
-8.26982e-22
-3.08073e-22
-9.2034e-23
-2.08885e-23
-3.55708e-24
-4.25132e-25
-2.82676e-26
-6.15193e-28
-3.28695e-30
-4.39916e-34
-1.89368e-41
-3.55595e-43
-6.86557e-45
-1.35171e-46
-2.57842e-48
-4.40334e-50
-6.6545e-52
-8.93585e-54
-1.07147e-55
-1.15235e-57
-1.11512e-59
-9.74062e-62
-7.6957e-64
-5.51069e-66
-3.57765e-68
-2.10341e-70
-1.12449e-72
-1.12279e-73
-1.42274e-72
-1.72979e-71
-1.90582e-70
-1.88542e-69
-1.65544e-68
-1.27301e-67
-8.43931e-67
-4.73032e-66
-2.19164e-65
-8.16921e-65
-2.37622e-64
-5.23283e-64
-8.53004e-64
-1.02683e-63
-9.30786e-64
-6.49711e-64
-3.90298e-64
0.206187
0.123381
1
1
1
1
1
1
1
0.693915
3.23682e-20
-6.14294e-21
-5.61144e-21
-2.98604e-21
-1.31343e-21
-5.1422e-22
-1.7622e-22
-4.95752e-23
-1.07309e-23
-1.73905e-24
-2.00497e-25
-1.37098e-26
-3.80642e-28
-4.66107e-30
-2.53474e-33
-1.66398e-41
-3.61574e-43
-7.97732e-45
-1.72417e-46
-3.39029e-48
-5.88903e-50
-9.06599e-52
-1.24302e-53
-1.52422e-55
-1.67957e-57
-1.66789e-59
-1.49728e-61
-1.21732e-63
-8.97596e-66
-6.00735e-68
-3.64349e-70
-1.99807e-72
-1.11962e-74
-1.86484e-74
-2.406e-73
-2.82217e-72
-2.97229e-71
-2.77728e-70
-2.26898e-69
-1.59484e-68
-9.445e-68
-4.60041e-67
-1.79033e-66
-5.38426e-66
-1.20903e-65
-1.9734e-65
-2.33183e-65
-2.03857e-65
-1.35162e-65
-7.54921e-66
1
1
1
1
1
1
1
1
1
1
1
1
1
1
1
1
1
1
1
1
1
1
1
1
1
1
1
1
1
1
1
1
1
1
1
1
1
1
1
1
1
1
1
1
1
1
1
1
1
1
1
1
1
1
1
1
1
1
1
1
1
1
1
1
1
1
1
1
1
1
1
1
1
1
1
1
1
1
1
1
1
1
1
1
1
1
1
1
1
1
1
1
1
1
1
1
1
1
1
1
1
1
1
1
1
1
1
1
1
1
1
1
1
1
1
1
1
1
1
1
1
1
1
1
1
1
1
1
1
1
1
1
1
1
1
1
1
1
1
1
1
1
1
1
1
1
1
1
1
1
1
1
1
1
1
1
1
1
1
1
1
1
1
1
1
1
1
1
1
1
1
1
1
1
1
1
1
1
1
1
1
1
1
1
1
1
1
1
1
1
1
1
1
1
1
1
1
1
1
1
1
1
1
1
1
1
1
1
1
1
1
1
1
1
1
1
1
1
1
1
1
1
1
1
1
1
1
1
1
1
1
1
1
1
1
1
1
1
1
1
0.410437
1
1
1
1
1
1
1
1
1
0.999445
0.994795
0.98228
0.957275
0.915112
0.849889
0.751681
0.59855
0.423043
0.249489
-2.49199e-27
0.014339
3.70724e-21
-4.95792e-22
0.000131161
0.00132322
0.00106243
-2.22977e-27
-1.79543e-23
-1.66093e-23
-1.89678e-23
-2.15821e-23
-2.61987e-23
-3.30287e-23
-4.16067e-23
-5.31262e-23
-7.92903e-40
-8.87785e-24
-9.6684e-24
-1.11006e-23
-5.15551e-28
-8.29236e-27
-5.87727e-26
-1.59502e-25
-3.48654e-25
-6.55895e-25
-1.08934e-24
-1.62039e-24
-2.20317e-24
-2.7819e-24
-3.29671e-24
-3.68413e-24
-3.89837e-24
-3.91895e-24
-3.77234e-24
-3.55316e-24
-3.24326e-24
-2.74317e-24
-2.14879e-24
-1.58223e-24
-8.59145e-29
-3.0118e-28
-1.91122e-27
-6.19486e-27
-1.47972e-26
-2.92891e-26
-5.00857e-26
-7.59143e-26
-1.04187e-25
-1.31544e-25
-1.54404e-25
-1.69585e-25
-1.75206e-25
-1.71194e-25
-1.59443e-25
-1.42966e-25
-1.22932e-25
-9.95269e-26
-7.54863e-26
-5.40536e-26
-1.1174e-29
-1.65282e-29
-6.80813e-29
-2.32246e-28
-6.00747e-28
-1.27457e-27
-2.31104e-27
-3.68107e-27
-5.25678e-27
-6.83279e-27
-8.17184e-27
-9.06501e-27
-9.39055e-27
-9.14432e-27
-8.43012e-27
-7.40449e-27
-6.19935e-27
-4.92308e-27
-3.70243e-27
-2.64848e-27
-1.08186e-30
-1.11555e-30
-3.46045e-30
-1.14194e-29
-3.11568e-29
-7.06783e-29
-1.36321e-28
-2.28414e-28
-3.38676e-28
-4.51324e-28
-5.47534e-28
-6.11271e-28
-6.33927e-28
-6.15888e-28
-5.64801e-28
-4.91721e-28
-4.07377e-28
-3.20995e-28
-2.40526e-28
-1.71787e-28
-8.48185e-32
-7.37475e-32
-1.95882e-31
-6.45193e-31
-1.86258e-30
-4.50215e-30
-9.15516e-30
-1.58856e-29
-2.39792e-29
-3.21428e-29
-3.8978e-29
-4.34231e-29
-4.49734e-29
-4.36747e-29
-3.99874e-29
-3.4615e-29
-2.83526e-29
-2.19755e-29
-1.61395e-29
-1.12777e-29
-5.18563e-33
-4.01761e-33
-1.00328e-32
-3.52601e-32
-1.09098e-31
-2.78049e-31
-5.8348e-31
-1.02041e-30
-1.52944e-30
-2.02835e-30
-2.44337e-30
-2.72012e-30
-2.82353e-30
-2.74066e-30
-2.48769e-30
-2.11156e-30
-1.6788e-30
-1.25567e-30
-8.90201e-31
-6.04368e-31
-2.10035e-34
-1.53693e-34
-4.05825e-34
-1.62732e-33
-5.39951e-33
-1.41926e-32
-2.98503e-32
-5.1119e-32
-7.4654e-32
-9.74706e-32
-1.1715e-31
-1.30876e-31
-1.35608e-31
-1.29683e-31
-1.14256e-31
-9.30883e-32
-7.07837e-32
-5.09072e-32
-3.51459e-32
-2.36023e-32
-3.98322e-36
-3.49944e-36
-1.17546e-35
-5.54348e-35
-1.91281e-34
-5.02674e-34
-1.02993e-33
-1.68974e-33
-2.38888e-33
-3.09193e-33
-3.73303e-33
-4.16323e-33
-4.22706e-33
-3.88506e-33
-3.25175e-33
-2.51806e-33
-1.84239e-33
-1.29904e-33
-8.93908e-34
-6.03301e-34
-1.44125e-38
-4.95731e-38
-2.08609e-37
-1.08759e-36
-3.71771e-36
-9.54086e-36
-1.87583e-35
-2.92914e-35
-4.04485e-35
-5.26078e-35
-6.37758e-35
-6.97179e-35
-6.75367e-35
-5.83324e-35
-4.60439e-35
-3.43096e-35
-2.47611e-35
-1.74731e-35
-1.20336e-35
-8.07383e-36
-2.69782e-42
-2.78536e-40
-1.39185e-39
-7.07627e-39
-2.31236e-38
-5.7684e-38
-1.09405e-37
-1.64796e-37
-2.2704e-37
-3.00233e-37
-3.62145e-37
-3.79639e-37
-3.43604e-37
-2.77172e-37
-2.09616e-37
-1.54401e-37
-1.11467e-37
-7.80027e-38
-5.26634e-38
-3.45498e-38
1
1
1
1
1
1
1
1
1
1
1
1
1
1
1
1
1
1
1
1
1
1
1
1
1
1
1
1
1
1
1
1
1
1
1
1
1
1
1
1
1
1
1
1
1
1
1
1
1
1
1
1
1
1
1
1
1