/*--------------------------------*- C++ -*----------------------------------*\
| =========                 |                                                 |
| \\      /  F ield         | OpenFOAM: The Open Source CFD Toolbox           |
|  \\    /   O peration     | Version:  v1912                                 |
|   \\  /    A nd           | Website:  www.openfoam.com                      |
|    \\/     M anipulation  |                                                 |
\*---------------------------------------------------------------------------*/
FoamFile
{
    version     2.0;
    format      ascii;
    class       volScalarField;
    location    "18";
    object      epsilon;
}
// * * * * * * * * * * * * * * * * * * * * * * * * * * * * * * * * * * * * * //

dimensions      [0 2 -3 0 0 0 0];


internalField   nonuniform List<scalar> 
20320
(
4.44056e-05
0.000214473
0.000220406
0.000226284
0.000232062
0.000237692
0.000243119
0.000248273
0.000253065
0.000257394
0.000261144
0.000264191
0.000266397
0.000267887
0.000273003
0.000326191
0.000702538
0.00234745
0.00618618
0.00786592
4.40062e-05
4.39116e-05
4.46135e-05
4.62808e-05
4.93902e-05
5.45019e-05
6.22633e-05
7.34647e-05
8.90285e-05
0.00010997
0.0001372
0.000171581
0.000213867
0.000269617
0.000425492
0.00129826
0.00437412
0.00947436
0.0140324
0.018758
4.44057e-05
4.48781e-05
4.60223e-05
4.79322e-05
5.10064e-05
5.57673e-05
6.29342e-05
7.35171e-05
8.89088e-05
0.000110981
0.000142093
0.00018471
0.000242633
0.00035476
0.000898288
0.00341826
0.00908614
0.0157609
0.0208053
0.027209
4.49806e-05
4.64204e-05
4.86016e-05
5.15464e-05
5.56791e-05
6.15437e-05
6.98942e-05
8.18461e-05
9.89988e-05
0.000123657
0.000158906
0.00020854
0.000284399
0.00051931
0.00183955
0.00631503
0.0137787
0.0212595
0.0268071
0.0352451
4.56954e-05
4.84363e-05
5.20107e-05
5.63808e-05
6.19686e-05
6.93616e-05
7.93811e-05
9.31928e-05
0.000112602
0.000140171
0.000179382
0.000235598
0.000340717
0.000817135
0.00326378
0.00954881
0.0182121
0.0262149
0.0322707
0.0430303
4.65303e-05
5.09122e-05
5.62936e-05
6.25472e-05
7.01151e-05
7.959e-05
9.1834e-05
0.000108131
0.000130368
0.000161303
0.000204716
0.000268474
0.00042443
0.00129887
0.00505829
0.01285
0.0223664
0.0307891
0.0373721
0.0506023
4.74577e-05
5.37979e-05
6.13884e-05
7.0023e-05
8.01409e-05
9.23115e-05
0.000107442
0.000126898
0.000152616
0.000187506
0.000235529
0.000309771
0.000550381
0.001984
0.0070819
0.0160959
0.0262792
0.0350932
0.0422283
0.0580027
4.84441e-05
5.70161e-05
6.71945e-05
7.87386e-05
9.20002e-05
0.000107589
0.000126372
0.000149726
0.000179748
0.000219276
0.000272489
0.000362221
0.000732451
0.00285714
0.00922112
0.0192444
0.0300034
0.0392145
0.0469271
0.0652893
4.94483e-05
6.0452e-05
7.35571e-05
8.84855e-05
0.000105535
0.000125319
0.000148608
0.000176804
0.00021211
0.000257106
0.000316508
0.000428745
0.000980142
0.00388067
0.0114009
0.0222936
0.0335972
0.0432328
0.0515493
0.0725413
5.04215e-05
6.39579e-05
8.02262e-05
9.89254e-05
0.000120411
0.000145153
0.000173937
0.000208151
0.000249885
0.000301495
0.000368698
0.000512281
0.00129605
0.00500978
0.0135782
0.025263
0.0371245
0.0472317
0.0561835
0.0798638
5.13098e-05
6.73536e-05
8.68537e-05
0.000109596
0.000136034
0.00016648
0.000201874
0.000243457
0.000293068
0.000352919
0.000430225
0.000615351
0.00167521
0.00620236
0.0157332
0.0281876
0.0406605
0.0513104
0.0609399
0.0873967
5.20592e-05
7.04295e-05
9.30256e-05
0.000119893
0.000151566
0.000188425
0.000231558
0.000282012
0.000341397
0.000411705
0.000502188
0.000739566
0.00210629
0.00742396
0.0178645
0.0311181
0.0443014
0.0555997
0.0659672
0.0953295
5.26214e-05
7.29687e-05
9.83071e-05
0.000129098
0.000166007
0.000209831
0.000261704
0.000322678
0.000394231
0.000477882
0.000585519
0.000885274
0.00257411
0.00865007
0.0199881
0.0341291
0.0481833
0.06029
0.0714866
0.103939
5.29592e-05
7.47779e-05
0.000102287
0.000136461
0.000178296
0.000229286
0.000290631
0.000363831
0.000450325
0.000550932
0.000680747
0.0010513
0.00306171
0.0098657
0.022138
0.0373292
0.0525081
0.065677
0.0778488
0.113653
5.30526e-05
7.57196e-05
0.000104635
0.000141332
0.000187418
0.000245243
0.000316368
0.00040331
0.000507617
0.000629489
0.000787608
0.00123488
0.00355191
0.0110642
0.0243692
0.04088
0.0575924
0.0722531
0.0856601
0.1252
5.29024e-05
7.57361e-05
0.000105164
0.000143277
0.000192546
0.000256239
0.000336834
0.000438436
0.00056309
0.000710953
0.000904451
0.00143151
0.00402737
0.0122435
0.02676
0.0450231
0.0639539
0.0808954
0.0960744
0.139886
5.25303e-05
7.48588e-05
0.000103865
0.000142159
0.000193182
0.00026114
0.000350068
0.00046617
0.00061274
0.000791067
0.00102738
0.00163444
0.00446853
0.0133962
0.0294052
0.0501072
0.0724512
0.0932598
0.111516
0.160578
5.19749e-05
7.32013e-05
0.000100919
0.000138162
0.000189274
0.000259369
0.00035453
0.000483464
0.000651784
0.000863623
0.00114922
0.00183347
0.00484939
0.0144892
0.0323822
0.0565845
0.0844707
0.112604
0.137721
0.19489
5.12854e-05
7.09379e-05
9.66587e-05
0.000131753
0.000181252
0.000251049
0.000349442
0.000487828
0.00067527
0.000920734
0.00125897
0.00201382
0.00513388
0.0154319
0.0356646
0.0648871
0.101999
0.145233
0.189767
0.26931
5.0514e-05
6.82727e-05
9.15025e-05
0.0001236
0.000169963
0.000237021
0.000335043
0.000477961
0.000679058
0.000953885
0.00134227
0.00215564
0.0052769
0.0160448
0.0389544
0.0749849
0.126797
0.200908
0.306767
0.524423
5.94919
13.3659
19.1572
23.4228
22.8394
22.6917
22.5202
25.3345
35.3899
64.4043
144.738
327.714
620.567
920.474
1283.18
1845.43
2504.75
3081.03
3508.06
2363.84
1657.67
1236.63
955.349
752.161
600.137
485.292
398.208
331.834
280.8
241.34
210.251
185.249
164.835
147.962
133.868
121.986
111.877
103.2
95.702
89.1806
83.4695
78.4461
74.0023
70.0443
66.5036
63.3175
60.4379
57.8219
55.433
53.2451
51.2389
49.3922
47.6886
46.1121
44.6576
43.3314
42.1292
41.0504
40.1012
39.2838
11.4741
6.32532
8.02371
9.21252
9.76918
10.152
11.0838
13.8699
21.3164
40.7016
91.193
204.593
394.987
579.037
741.779
1049.23
1461.57
1610.21
1330.94
961.875
685.219
516.076
402.365
320.952
260.621
214.931
179.63
151.85
129.649
111.717
97.0824
85.0251
75.0084
66.6249
59.5613
53.5731
48.4668
44.0866
40.3083
37.0313
34.1738
31.6699
29.4648
27.5137
25.7792
24.2303
22.8409
21.5895
20.4587
19.4332
18.4995
17.6464
16.8663
16.1531
15.4997
14.9002
14.3531
13.8571
13.4078
13.0037
15.0372
6.49938
7.56107
8.6325
9.39569
10.0438
11.1471
13.7563
20.0629
35.4826
75.1564
174.883
401.043
814.501
894.843
1210.2
1870.4
2558.89
1281.03
832.056
591.759
444.475
345.582
274.918
223.34
185.17
156.222
133.592
115.418
100.531
88.1698
77.8087
69.0658
61.6469
55.3207
49.9004
45.2353
41.2021
37.6993
34.6428
31.9638
29.6051
27.5191
25.6665
24.014
22.5342
21.2039
20.0035
18.9165
17.9293
17.0296
16.2073
15.4546
14.7652
14.1326
13.5516
13.0191
12.5324
12.0881
11.6861
18.0225
7.34846
8.03588
9.15381
10.1088
10.9812
12.1816
14.5904
19.8891
31.9368
61.1687
135.015
322.905
733.708
1045.89
1239.64
1856.97
2429.63
1251.12
747.576
516.883
385.45
299.414
238.315
194.418
162.622
138.812
120.199
105.118
92.6068
82.079
73.1363
65.4969
58.9408
53.291
48.4032
44.1585
40.4579
37.2188
34.372
31.8596
29.6332
27.652
25.8818
24.2938
22.8637
21.5712
20.3989
19.3317
18.3571
17.4647
16.6459
15.8936
15.2017
14.5646
13.9776
13.4369
12.9397
12.4829
12.0696
20.7455
8.39383
8.90389
10.1318
11.3091
12.4386
13.7873
16.1048
20.8299
30.9385
53.7934
108.327
240.803
558.202
954.949
1190.9
1799.99
1937.36
1117.21
675.252
448.009
325.87
250.796
199.67
164.331
139.379
120.756
106.049
93.9692
83.8121
75.1594
67.7286
61.3081
55.7381
50.8885
46.6515
42.9367
39.6688
36.7837
34.2269
31.9522
29.9204
28.0982
26.4575
24.9743
23.6286
22.4031
21.2828
20.2543
19.3072
18.4337
17.628
16.884
16.196
15.5593
14.9701
14.4241
13.9181
13.4504
13.0277
23.1339
9.5428
10.032
11.4346
12.9019
14.3637
15.9975
18.4143
23.014
32.4556
52.9642
100.157
211.847
489.632
849.976
1214.21
2003.78
1767.78
1040.83
620.333
392.214
273.253
205.908
163.875
136.419
117.4
103.175
91.8601
82.4954
74.5565
67.7299
61.8096
56.6467
52.1238
48.145
44.6325
41.5219
38.7582
36.294
34.0888
32.1076
30.3204
28.7019
27.23
25.8859
24.6541
23.5209
22.4731
21.4979
20.5897
19.746
18.9636
18.2378
17.5617
16.9315
16.345
15.7972
15.2837
14.8063
14.3764
24.7132
10.773
11.371
13.0352
14.8951
16.8158
18.9184
21.7506
26.7182
36.8186
58.805
109.759
229.453
510.347
881.287
1442.54
2581.28
1839.38
1037.54
584.986
348.3
230.257
170.026
136.273
114.212
99.1393
87.9349
79.1092
71.8847
65.8123
60.6068
56.0833
52.1173
48.6154
45.5082
42.7377
40.2567
38.0281
36.0167
34.1934
32.534
31.0176
29.6262
28.3437
27.1562
26.0527
25.0242
24.0575
23.1321
22.2602
21.451
20.6994
19.9979
19.3359
18.7133
18.1308
17.579
17.0525
16.5622
16.1255
25.2141
12.1128
12.9171
14.942
17.3336
19.9003
22.7269
26.385
32.437
44.7831
72.6491
139.708
297.391
630.692
1078.09
2048.48
3592.83
2013.17
1051.49
553.123
308.954
194.85
145.148
118.487
97.6644
83.9545
74.5209
67.6532
62.3045
57.9093
54.1613
50.8877
47.9864
45.3902
43.0539
40.9404
39.0193
37.2692
35.6664
34.1907
32.8271
31.562
30.3838
29.2821
28.2472
27.2745
26.3662
25.5296
24.7698
24.0613
23.3827
22.7362
22.1082
21.4762
20.8663
20.2938
19.738
19.1893
18.6843
18.2482
26.6634
13.7577
14.731
17.1903
20.2864
23.7536
27.6627
32.6934
40.8317
57.5499
97.4064
197.767
438.05
939.785
1739.84
3398.07
4639.76
2169.89
1038.06
509.134
268.645
165.149
129.944
99.2747
81.5171
70.4672
63.1971
58.123
54.2992
51.2093
48.5764
46.2534
44.1596
42.2484
40.4939
38.8756
37.3758
35.9829
34.6859
33.4747
32.3387
31.2694
30.2601
29.3051
28.3998
27.5454
26.7512
26.0256
25.3565
24.7397
24.1731
23.633
23.0942
22.5461
22.0068
21.4861
20.9654
20.4449
19.9644
19.5487
33.2272
16.0924
16.9155
19.8369
23.8491
28.546
34.0229
41.1808
52.7881
76.8364
136.609
295.099
686.86
1544.95
3342.47
6325.18
5262.74
2207.16
974.694
448.302
227.016
140.143
104.677
81.8103
67.9663
59.3981
53.8334
50.0784
47.3742
45.2635
43.4896
41.9158
40.4711
39.1191
37.8438
36.6361
35.4877
34.3953
33.3553
32.3641
31.4177
30.5121
29.6448
28.8141
28.0199
27.2667
26.5641
25.9145
25.3016
24.7266
24.1965
23.6944
23.2062
22.728
22.2611
21.8015
21.3359
20.8702
20.4355
20.054
47.7459
19.2531
19.5902
22.9565
28.1542
34.4999
42.1792
52.4801
69.4421
105.077
195.198
441.511
1095.57
2590.17
4953.82
10170.2
5275.55
2076.57
859.328
375.077
187.061
119.437
88.3584
68.7895
57.3098
50.3322
45.9105
43.0404
41.1057
39.7055
38.5926
37.6254
36.7279
35.8625
35.0142
34.1782
33.3527
32.5392
31.7392
30.9541
30.1848
29.4323
28.6978
27.9832
27.292
26.6306
26.0069
25.4204
24.8573
24.3153
23.8002
23.3101
22.8466
22.4103
21.9937
21.5845
21.1721
20.7624
20.3755
20.0306
50.0654
21.8703
22.6343
26.6444
33.3532
41.9242
52.6192
67.3732
92.1471
144.757
278.235
645.423
1704.86
4537.71
7448.04
13957.2
4776.4
1799.32
707.186
298.558
151.948
102.898
76.3738
59.3564
49.208
43.0596
39.2522
36.8845
35.4128
34.476
33.8331
33.3321
32.883
32.4372
31.9724
31.4809
30.9616
30.4176
29.854
29.2741
28.6827
28.0846
27.4844
26.8873
26.2996
25.7286
25.1808
24.6552
24.1412
23.6339
23.1373
22.6598
22.2134
21.8024
21.4181
21.0464
20.6778
20.3155
19.9707
19.6604
52.8409
23.9412
25.7214
31.0622
39.6708
51.2299
65.9846
86.8666
122.488
198.706
390.822
906.709
2418.65
7584.2
11352.6
11091.8
3937.64
1435.37
542.651
228.179
123.675
89.0683
66.7065
52.2052
43.0906
37.3887
33.8357
31.667
30.3984
29.699
29.3355
29.1474
29.0296
28.9179
28.7772
28.5907
28.3527
28.0639
27.7292
27.3537
26.9425
26.5027
26.0418
25.5674
25.0874
24.6099
24.1407
23.6791
23.2176
22.7512
22.2843
21.8298
21.4042
21.0143
20.6539
20.311
19.9773
19.6528
19.3429
19.0637
61.8778
27.003
29.7217
36.6212
47.5188
62.9466
83.3634
112.512
162.397
269.575
539.751
1243.39
3108.72
8223.97
14641.6
8382.63
2932.23
1049.06
390.35
170.536
102.646
76.7306
58.6855
46.4921
38.3475
32.9842
29.5266
27.3805
26.1363
25.4989
25.2497
25.227
25.3157
25.4377
25.5438
25.6054
25.6081
25.5471
25.4233
25.2417
25.0072
24.7261
24.4071
24.0591
23.6911
23.3112
22.9249
22.5325
22.1293
21.7123
21.2867
20.8671
20.4702
20.1045
19.767
19.4492
19.1442
18.8502
18.5695
18.3175
76.1616
31.786
35.1848
43.844
57.6194
78.1994
106.622
147.371
215.321
360.622
731.024
1702.7
4073.72
8255.7
14556.7
5474.14
1992.56
708.523
267.987
127.77
86.8452
66.3921
51.9832
41.7656
34.5268
29.4945
26.0996
23.9106
22.6001
21.9166
21.6637
21.6877
21.8713
22.1278
22.397
22.639
22.8298
22.9567
23.0152
23.0063
22.9347
22.8055
22.6254
22.4033
22.1483
21.8682
21.5685
21.2502
20.9113
20.5515
20.177
19.8021
19.4422
19.1063
18.7944
18.5014
18.2222
17.9542
17.6986
17.4706
104.037
38.4489
42.3874
53.1982
70.7662
98.3134
139.532
197.472
289.03
478.389
965.465
2300.6
5659.58
9426.32
9839.57
3606.07
1272.57
450.056
180.808
98.3676
73.8104
57.9469
46.4003
37.7743
31.3398
26.6427
23.3276
21.0944
19.6921
18.914
18.5904
18.5817
18.7756
19.0837
19.4391
19.7939
20.1157
20.384
20.5881
20.7241
20.7931
20.7994
20.7485
20.6464
20.501
20.3197
20.1073
19.866
19.5958
19.2988
18.982
18.6585
18.3419
18.0413
17.7587
17.4918
17.2372
16.9928
16.7598
16.5534
130.41
47.4538
51.4831
65.0775
87.4749
124.843
187.944
265.186
394.505
640.31
1252.29
2970.51
5832.84
10745.2
6485.92
2192.89
753.836
275.186
124.115
79.1866
63.281
51.1098
41.7189
34.3495
28.6048
24.2349
21.026
18.7741
17.2909
16.4103
15.9892
15.9054
16.0557
16.3551
16.7356
17.1447
17.5441
17.9072
18.2176
18.4661
18.6498
18.77
18.8306
18.837
18.7933
18.7055
18.5779
18.4132
18.2132
17.9813
17.7253
17.4566
17.1871
16.9254
16.675
16.4356
16.2055
15.9836
15.7717
15.5854
132.347
56.8626
62.1359
79.7285
108.04
156.258
227.443
321.981
505.252
839.163
1508.41
2770.61
4949.33
7982.83
3226.61
1163.43
417.573
168.541
89.387
66.739
55.0492
45.5449
37.7535
31.3647
26.2017
22.1412
19.0597
16.82
15.282
14.3133
13.7947
13.6209
13.7001
13.9539
14.3167
14.7351
15.1678
15.5842
15.9632
16.2914
16.562
16.7728
16.925
17.0218
17.0672
17.064
17.0151
16.9234
16.7915
16.624
16.4282
16.2144
15.993
15.7718
15.555
15.3439
15.1384
14.9385
14.7468
14.5795
150.823
65.6512
72.3576
91.3384
123.145
167.571
226.331
322.458
494.732
791.745
1319.88
2272.66
3799.41
3581.21
1488.64
577.653
230.14
108.382
68.7275
57.4394
48.6396
40.9636
34.3444
28.7216
24.0474
20.2743
17.3342
15.1348
13.5714
12.5381
11.936
11.675
11.675
11.8652
12.1845
12.5816
13.0144
13.4504
13.8657
14.2435
14.5738
14.8512
15.0742
15.2434
15.3608
15.4289
15.4497
15.4242
15.3554
15.2481
15.1094
14.948
14.7731
14.5916
14.4084
14.2256
14.0445
13.8661
13.6944
13.5456
168.506
71.3605
76.7261
94.4491
123.02
160.019
210.669
291.92
426.899
655.66
1051.79
1699.19
2485.97
1535.98
686.018
294.515
134.465
75.3168
56.5864
50.2896
43.5032
37.1129
31.3629
26.3443
22.0839
18.5764
15.7857
13.6492
12.0871
11.0145
10.3487
10.013
9.93749
10.0594
10.3232
10.6807
11.0912
11.5219
11.9475
12.3494
12.715
13.0363
13.3094
13.5327
13.7061
13.8307
13.9076
13.9384
13.9253
13.872
13.7848
13.6713
13.5394
13.3954
13.2443
13.089
12.9317
12.7746
12.6226
12.492
173.418
71.791
76.1803
92.1864
116.792
149.633
194.373
260.224
360.444
520.095
773.935
1140.09
1311.58
699.933
339.834
162.323
85.7249
56.9331
49.4649
44.8034
39.3059
33.8059
28.7082
24.1752
20.2701
17.008
14.371
12.3144
10.7764
9.68758
8.97883
8.58444
8.4436
8.50086
8.7062
9.01532
9.39006
9.79852
10.2153
10.6207
11.0009
11.3461
11.6502
11.9099
12.1233
12.29
12.4103
12.4853
12.5171
12.5095
12.4669
12.3955
12.302
12.1922
12.0709
11.9417
11.8075
11.6714
11.5391
11.4268
163.223
68.8925
72.5965
86.776
108.375
138.239
179.06
234.265
309.653
420.679
576.942
754.721
626.176
352.793
184.714
98.0619
59.9126
46.557
44.3148
40.514
35.7735
30.9
26.305
22.1725
18.578
15.5445
13.0624
11.0981
9.60176
8.51646
7.78374
7.3471
7.1535
7.15393
7.30358
7.56215
7.89429
8.26991
8.66432
9.058
9.43621
9.78825
10.1067
10.3865
10.6249
10.82
10.9712
11.0792
11.1455
11.1731
11.1663
11.1303
11.0702
10.9908
10.8968
10.792
10.6801
10.5648
10.4525
10.3585
140.467
64.1286
67.2035
79.6727
98.8954
126.091
163.408
211.685
272.961
354.484
456.297
508.231
343.81
198.328
110.246
64.8366
45.6838
40.7763
40.2128
36.9401
32.7065
28.2926
24.0989
20.3061
16.9886
14.1694
11.8416
9.97775
8.53678
7.47081
6.73022
6.26625
6.03252
5.98552
6.08508
6.29469
6.58195
6.9189
7.2822
7.65296
8.0165
8.36169
8.68033
8.96654
9.21633
9.42717
9.59776
9.72797
9.81892
9.87299
9.89364
9.88514
9.85213
9.79911
9.72989
9.64813
9.55782
9.46335
9.37132
9.29578
109.129
58.2613
60.9394
71.7584
88.7591
113.181
146.936
191.066
243.294
308.869
371.318
343.408
209.239
122.082
71.3344
46.6511
37.7204
37.7389
36.9298
33.8942
29.9781
25.9132
22.0524
18.556
15.4898
12.8727
10.6972
8.9391
7.56324
6.52883
5.79342
5.31483
5.05234
4.96721
5.02328
5.1875
5.43028
5.72588
6.05266
6.39291
6.73241
7.06015
7.3677
7.64872
7.8986
8.11422
8.2938
8.43669
8.54349
8.61599
8.6569
8.66976
8.65844
8.62692
8.57913
8.51893
8.44991
8.3764
8.30503
8.24809
80.2752
52.526
54.5046
63.586
78.3433
99.8978
130.108
167.848
216.106
279.137
309.629
225.327
135.842
79.7598
49.4336
36.3573
33.4003
35.4307
34.2061
31.1924
27.496
23.7139
20.1398
16.9087
14.0738
11.6481
9.62194
7.97238
6.6683
5.67452
4.9545
4.47166
4.19008
4.07518
4.09429
4.21734
4.41739
4.671
4.95831
5.26299
5.57183
5.87428
6.16206
6.42876
6.66955
6.881
7.06093
7.20838
7.3235
7.40756
7.46267
7.49169
7.49788
7.48475
7.45587
7.41495
7.36593
7.31345
7.2631
7.22467
50.0541
49.1433
48.6893
55.6524
68.1915
86.9767
112.928
145.371
198.331
251.465
241.975
152.435
90.6191
54.2906
36.6309
30.5641
31.3411
33.2904
31.7304
28.7213
25.2017
21.663
18.3449
15.3559
12.7362
10.492
8.61111
7.07085
5.84287
4.89637
4.1996
3.72071
3.42803
3.29051
3.27853
3.36467
3.52439
3.73642
3.98287
4.24898
4.52273
4.79437
5.05608
5.30166
5.52635
5.72662
5.90013
6.04568
6.1631
6.25321
6.31764
6.3587
6.37908
6.38185
6.37019
6.34751
6.31761
6.28489
6.25497
6.2347
34.6485
46.5856
44.2737
48.7296
59.2088
75.642
98.5651
131.568
184.885
218.649
171.833
103.936
61.4568
38.6611
29.1922
27.5306
30.6728
31.3397
29.4392
26.4192
23.0569
19.7393
16.6561
13.8915
11.4735
9.40174
7.66144
6.2298
5.08045
4.18587
3.51832
3.04996
2.75275
2.59873
2.56086
2.61406
2.73602
2.90762
3.11293
3.33891
3.57489
3.81213
4.04351
4.26327
4.46686
4.65089
4.81298
4.95179
5.06695
5.15893
5.22896
5.27886
5.31089
5.3276
5.33175
5.32638
5.31489
5.30129
5.29036
5.28659
44.7932
40.379
39.8341
43.6904
52.7182
67.8869
90.1019
126.942
174.534
182.077
119.605
71.2179
42.7883
29.3025
25.0678
26.2637
29.8215
29.4794
27.2538
24.247
21.0389
17.9292
15.0656
12.5111
10.283
8.37523
6.77036
5.4456
4.37597
3.53662
2.90305
2.45071
2.15468
1.9896
1.93061
1.95468
2.0416
2.17435
2.33905
2.52447
2.72142
2.92229
3.1208
3.31176
3.49103
3.6554
3.8026
3.93129
4.04089
4.13166
4.2045
4.2608
4.3024
4.33137
4.34997
4.36077
4.36665
4.371
4.37758
4.38818
58.2734
37.3374
35.9837
40.9055
49.7724
65.0588
89.724
130.637
168.712
139.887
84.555
49.7016
31.2353
23.9267
23.0158
26.1557
28.6166
27.5885
25.1553
22.1879
19.1341
16.2233
13.5676
11.2114
9.16261
7.41063
5.93592
4.7155
3.72582
2.94413
2.34853
1.91726
1.62789
1.45718
1.38197
1.38096
1.43589
1.53191
1.65728
1.80267
1.9605
2.12432
2.28878
2.44939
2.60245
2.74506
2.87513
2.9913
3.09297
3.18019
3.25357
3.31417
3.36336
3.40278
3.4342
3.45957
3.48114
3.50156
3.52341
3.54611
61.2136
36.1061
33.799
40.1535
50.5554
67.8751
98.0389
143.438
162.563
105
60.8477
35.6937
24.2726
20.9912
22.2839
26.442
27.2499
25.7043
23.1357
20.231
17.3334
14.6153
12.1577
9.98945
8.11057
6.50654
5.15638
4.03745
3.12737
2.40524
1.8514
1.44645
1.16974
0.99976
0.914169
0.89304
0.91994
0.982229
1.07037
1.17716
1.2967
1.42366
1.55385
1.68348
1.80929
1.92885
2.0402
2.14208
2.23386
2.3154
2.38711
2.44971
2.50421
2.55175
2.59363
2.63117
2.66593
2.69965
2.7337
2.76556
60.8042
33.5416
32.9535
41.182
54.9027
76.4174
115.148
166.461
137.86
78.4599
43.7018
26.4792
20.1385
19.5507
22.4711
25.91
25.7043
23.8029
21.1788
18.3657
15.6296
13.0996
10.8323
8.84287
7.12506
5.66151
4.43053
3.40997
2.57882
1.91801
1.41015
1.03808
0.781648
0.619739
0.531173
0.496858
0.501749
0.535187
0.589871
0.660569
0.74316
0.834002
0.929975
1.02815
1.1259
1.22133
1.31239
1.39814
1.47785
1.55128
1.61862
1.68028
1.7369
1.78926
1.83813
1.88434
1.92872
1.97204
2.01437
2.05182
55.3588
31.0359
33.098
43.9391
63.0444
90.9691
147.458
176.357
104.618
56.1621
30.9568
20.4735
17.7782
19.0975
23.1694
25.0025
24.0521
21.8965
19.2778
16.5839
14.0167
11.6724
9.58807
7.76927
6.20443
4.87436
3.7573
2.83201
2.07915
1.4828
1.02731
0.694512
0.466239
0.322493
0.241996
0.205181
0.197415
0.209568
0.236484
0.275145
0.323428
0.379452
0.441394
0.507408
0.575727
0.644793
0.713239
0.78008
0.844594
0.906437
0.965671
1.0222
1.07649
1.12891
1.17985
1.22972
1.27877
1.32693
1.37296
1.41188
46.4341
28.3754
33.514
47.9548
72.8303
118.411
188.546
141.216
73.4486
37.8578
21.9816
16.7616
16.611
19.3798
23.4422
23.7808
22.3096
20.0114
17.4404
14.8845
12.492
10.3308
8.42336
6.76728
5.34775
4.14453
3.13641
2.30344
1.63065
1.103
0.703633
0.417448
0.22859
0.117851
0.0621574
0.0388538
0.0318757
0.0333444
0.040588
0.0530752
0.0708908
0.09409
0.122464
0.155506
0.192469
0.232509
0.274754
0.318472
0.36306
0.40811
0.453403
0.498805
0.544401
0.590243
0.636439
0.6832
0.730263
0.777052
0.821365
0.857015
39.6526
25.7604
34.0918
53.6328
86.8191
155.807
185.947
94.7652
46.6102
24.3982
16.299
14.7008
16.3154
20.2729
22.7844
22.2558
20.4752
18.1441
15.6681
13.2677
11.0537
9.07287
7.33606
5.83545
4.55404
3.47149
2.56764
1.82697
1.23618
0.778266
0.44
0.209877
0.0751041
0.0163634
0.00211712
0.000438659
0.000249113
0.000253905
0.000356085
0.000621127
0.00123132
0.00252767
0.00502635
0.00935883
0.0161356
0.0258049
0.0385737
0.0544324
0.0732146
0.094698
0.118673
0.144946
0.173394
0.203919
0.236453
0.270943
0.307133
0.34417
0.379334
0.40406
35.5238
23.9189
35.7365
64.2405
122.568
182.693
112.062
54.703
26.8254
16.0313
13.1565
13.8186
16.7061
20.9092
21.711
20.6136
18.634
16.3217
13.9687
11.7356
9.70183
7.89748
6.32505
4.97273
3.8226
2.85495
2.05297
1.40549
0.895214
0.509082
0.237935
0.0746153
0.00818659
0.000144182
5.99521e-05
6.02827e-05
6.22278e-05
6.43513e-05
6.64741e-05
6.85609e-05
7.07011e-05
7.30966e-05
7.61924e-05
8.12095e-05
9.15743e-05
0.000116128
0.000176498
0.000323838
0.000667971
0.00141067
0.00286914
0.00547248
0.00972352
0.016127
0.0251071
0.036953
0.0516932
0.0687405
0.085688
0.0940362
30.8745
23.1659
39.683
83.3941
150.883
133.109
60.9625
28.1767
15.478
11.7463
11.7404
13.7969
17.6639
20.4364
20.3741
18.916
16.8363
14.5751
12.3563
10.2932
8.4375
6.80459
5.38975
4.17868
3.15318
2.29559
1.59621
1.03835
0.608027
0.296418
0.0988569
0.0111423
0.000101427
5.35876e-05
5.46411e-05
5.60646e-05
5.76362e-05
5.92883e-05
6.09187e-05
6.24668e-05
6.3942e-05
6.53589e-05
6.66833e-05
6.7824e-05
6.86933e-05
6.92679e-05
6.96093e-05
6.98314e-05
7.00675e-05
7.04465e-05
7.11496e-05
7.25443e-05
7.548e-05
8.20669e-05
9.75574e-05
0.000134722
0.000222978
0.000415963
0.000733531
0.00085482
28.1517
25.2293
51.8409
126.736
129.407
59.6074
27.1064
14.2308
10.292
9.94286
11.4285
14.436
18.4891
19.5826
18.8804
17.191
15.089
12.9132
10.8384
8.94503
7.26281
5.79473
4.53021
3.45307
2.54578
1.79811
1.19652
0.725583
0.375424
0.141538
0.0228198
0.000218499
5.079e-05
5.11455e-05
5.20076e-05
5.30422e-05
5.4217e-05
5.54841e-05
5.67547e-05
5.79651e-05
5.91167e-05
6.02351e-05
6.13139e-05
6.22868e-05
6.30619e-05
6.35862e-05
6.38886e-05
6.40554e-05
6.41868e-05
6.43544e-05
6.45924e-05
6.49246e-05
6.53819e-05
6.60125e-05
6.68905e-05
6.81188e-05
6.98243e-05
7.19616e-05
7.37311e-05
7.18083e-05
41.2384
41.5134
94.5791
129.395
55.0551
23.9003
12.2414
8.73122
8.35539
9.49455
11.8524
15.6044
18.2926
18.4404
17.28
15.4573
13.3921
11.3345
9.41592
7.69241
6.17859
4.86827
3.74645
2.79588
2.00377
1.36174
0.853484
0.467643
0.198527
0.0453234
0.00112293
5.06221e-05
4.9282e-05
4.96228e-05
5.01649e-05
5.08601e-05
5.16879e-05
5.26203e-05
5.35825e-05
5.4506e-05
5.53822e-05
5.62402e-05
5.70957e-05
5.79057e-05
5.8582e-05
5.90536e-05
5.93242e-05
5.9461e-05
5.95542e-05
5.96759e-05
5.98624e-05
6.01315e-05
6.0498e-05
6.09849e-05
6.16308e-05
6.24869e-05
6.36055e-05
6.48961e-05
6.57776e-05
6.37543e-05
118.114
160.325
114.314
44.7545
18.5564
9.65426
7.11219
6.9352
7.92803
9.82608
12.8206
16.6068
17.6297
17.0634
15.6016
13.7314
11.7518
9.83998
8.08891
6.53597
5.18558
4.02594
3.03895
2.20855
1.52885
0.98586
0.567274
0.265555
0.0786977
0.0053254
5.87778e-05
4.88321e-05
4.8661e-05
4.8742e-05
4.90061e-05
4.94044e-05
4.99226e-05
5.0553e-05
5.12378e-05
5.19042e-05
5.25302e-05
5.31475e-05
5.37906e-05
5.44361e-05
5.50026e-05
5.54078e-05
5.56349e-05
5.5734e-05
5.57833e-05
5.58506e-05
5.59729e-05
5.61671e-05
5.644e-05
5.6798e-05
5.7254e-05
5.78274e-05
5.85348e-05
5.93051e-05
5.98047e-05
5.83122e-05
40.2234
59.8751
22.6592
10.5359
6.60263
5.51671
5.67347
6.62787
8.28892
10.6802
14.2361
16.4625
16.5403
15.4892
13.8708
12.0319
10.1794
8.43407
6.85861
5.47573
4.28374
3.26797
2.40832
1.69582
1.11979
0.670069
0.338516
0.120629
0.0161007
0.000125003
4.95239e-05
4.87921e-05
4.84214e-05
4.82713e-05
4.82941e-05
4.84357e-05
4.86809e-05
4.90393e-05
4.94743e-05
4.99107e-05
5.03107e-05
5.07043e-05
5.11445e-05
5.16278e-05
5.20786e-05
5.24081e-05
5.25843e-05
5.26428e-05
5.26501e-05
5.26656e-05
5.27234e-05
5.28405e-05
5.30222e-05
5.32662e-05
5.35705e-05
5.39358e-05
5.43632e-05
5.48152e-05
5.51581e-05
5.43035e-05
4.97099e-05
6.5409e-05
8.58846e-05
0.000114442
0.000156512
0.000218707
0.000312658
0.000454256
0.000661019
0.000955934
0.00138394
0.00223604
0.00523628
0.016072
0.0414978
0.0854956
0.156931
0.28116
0.539456
1.585
4.88919e-05
6.24941e-05
8.01251e-05
0.00010486
0.000141855
0.000197516
0.000284013
0.000418256
0.000621125
0.000922568
0.00137161
0.00223346
0.00498801
0.0152682
0.0421428
0.0932142
0.182608
0.348754
0.697333
1.91026
4.8087e-05
5.95987e-05
7.44095e-05
9.52543e-05
0.000126768
0.000174782
0.000251105
0.000372474
0.000561428
0.000852799
0.00129744
0.00212966
0.00453453
0.0135393
0.0397447
0.0942458
0.19243
0.369124
0.701266
1.45521
4.73242e-05
5.68366e-05
6.89758e-05
8.60836e-05
0.000112121
0.000152096
0.000216662
0.000321176
0.000487681
0.000752402
0.00116487
0.00192278
0.00392105
0.0111281
0.0340908
0.0866476
0.183439
0.348901
0.626701
1.10375
4.66256e-05
5.42961e-05
6.40044e-05
7.76984e-05
9.85975e-05
0.000130804
0.000183287
0.000269122
0.000407944
0.000633477
0.000990659
0.00163658
0.00322038
0.00852788
0.0263744
0.0716047
0.1588
0.303431
0.526016
0.852549
4.6007e-05
5.20351e-05
5.96051e-05
7.03028e-05
8.66225e-05
0.000111849
0.00015298
0.00022046
0.000330459
0.000511069
0.000800104
0.00131559
0.00251506
0.00619756
0.0185964
0.0529874
0.124577
0.244772
0.421783
0.660115
4.5478e-05
5.00824e-05
5.58219e-05
6.39637e-05
7.63941e-05
9.56611e-05
0.000126846
0.000178001
0.00026147
0.000398378
0.000619317
0.00101148
0.00189428
0.0044076
0.012477
0.0359802
0.0893868
0.184013
0.32392
0.506534
4.50452e-05
4.84432e-05
5.26359e-05
5.86349e-05
6.78719e-05
8.2228e-05
0.00010537
0.00014345
0.000205443
0.000308871
0.000487818
0.000827166
0.00159872
0.00367923
0.00974566
0.0265488
0.0655202
0.137658
0.247499
0.3924
4.47188e-05
4.71047e-05
4.99616e-05
5.41881e-05
6.10379e-05
7.26957e-05
9.50697e-05
0.000145504
0.000272156
0.000595338
0.00134987
0.00291486
0.005918
0.0115082
0.0218893
0.0413399
0.0770018
0.137194
0.227484
0.348375
4.45451e-05
4.60542e-05
4.7964e-05
5.36791e-05
8.04657e-05
0.000228159
0.00093234
0.0030861
0.00743997
0.0141095
0.0228756
0.033668
0.0468135
0.0631541
0.0842636
0.112991
0.153942
0.213013
0.29557
0.404629
4.87924e-05
5.23612e-05
0.000164624
0.00156449
0.00833464
0.0226826
0.0413322
0.0605864
0.0790691
0.0968942
0.11474
0.133465
0.154048
0.177709
0.206201
0.242217
0.289533
0.353083
0.437932
0.548064
0.0116845
0.00942743
0.0545367
0.117778
0.166638
0.197055
0.215929
0.229444
0.241287
0.253431
0.267155
0.283447
0.303243
0.327776
0.358832
0.399478
0.454934
0.530204
0.62788
0.750469
1.38525
0.52848
0.603357
0.583597
0.536965
0.493586
0.461834
0.441511
0.430513
0.427122
0.430729
0.441174
0.458433
0.482736
0.514175
0.557188
0.627153
0.72645
0.852484
1.00411
3.7294
2.07639
1.38067
1.03916
0.845763
0.730011
0.65843
0.614731
0.58877
0.576866
0.577005
0.588211
0.609513
0.639429
0.672062
0.710596
0.793101
0.900039
1.05057
1.22087
1.82888
1.56863
1.1818
0.954968
0.811057
0.720706
0.660143
0.619309
0.593247
0.579855
0.578159
0.587118
0.606284
0.634007
0.665898
0.708076
0.774481
0.846154
0.933091
1.03594
1.21732
0.968328
0.777775
0.673304
0.60712
0.56359
0.533659
0.512126
0.497346
0.489372
0.488274
0.493782
0.5056
0.523085
0.546476
0.581497
0.630694
0.683253
0.73711
0.794952
0.931875
0.686504
0.533647
0.463881
0.427849
0.40719
0.394416
0.386109
0.38104
0.379087
0.380397
0.38507
0.393165
0.404852
0.421094
0.444295
0.474963
0.508795
0.542514
0.576245
0.732932
0.508081
0.373448
0.31615
0.291224
0.280244
0.275703
0.274342
0.274808
0.276661
0.279849
0.284453
0.290623
0.29865
0.309157
0.323029
0.340306
0.359381
0.378414
0.396732
0.551933
0.359899
0.247302
0.203189
0.186477
0.181176
0.18091
0.182915
0.185961
0.189534
0.193468
0.197765
0.202516
0.207907
0.214232
0.221797
0.230564
0.239918
0.249004
0.257258
0.371977
0.222607
0.141369
0.11471
0.106743
0.105943
0.108139
0.111565
0.115407
0.119283
0.123035
0.126621
0.130067
0.133451
0.136884
0.140458
0.144135
0.147671
0.150699
0.152898
0.202077
0.102696
0.0604534
0.0510895
0.0502288
0.0522698
0.055426
0.0589448
0.0624496
0.0657396
0.0687098
0.0713125
0.0735364
0.0753945
0.0769137
0.0781121
0.078965
0.0793818
0.0792255
0.0783658
0.0728802
0.0247933
0.0149064
0.0147022
0.0164266
0.0187843
0.0213516
0.0239146
0.0263364
0.0285212
0.0304024
0.0319347
0.0330909
0.0338575
0.0342317
0.0342148
0.0338034
0.0329839
0.0317384
0.0300593
0.0124937
0.00211759
0.00140692
0.00181438
0.00253184
0.00344158
0.00446086
0.00551325
0.0065293
0.0074483
0.00821978
0.00880447
0.00917509
0.00931675
0.009227
0.00891488
0.00839926
0.00770718
0.00687371
0.00594251
0.00212089
0.000122884
8.0987e-05
9.73381e-05
0.000132815
0.000190706
0.00027246
0.000374249
0.000486864
0.000597549
0.000692643
0.000760175
0.000791942
0.00078481
0.000741055
0.000667692
0.000574907
0.000474023
0.000375495
0.00028739
4.00465
6.31574
8.4488
10.6242
12.4078
13.361
13.6333
13.3751
12.9697
12.612
12.2645
12.0436