/*--------------------------------*- C++ -*----------------------------------*\
| =========                 |                                                 |
| \\      /  F ield         | OpenFOAM: The Open Source CFD Toolbox           |
|  \\    /   O peration     | Version:  v1912                                 |
|   \\  /    A nd           | Website:  www.openfoam.com                      |
|    \\/     M anipulation  |                                                 |
\*---------------------------------------------------------------------------*/
FoamFile
{
    version     2.0;
    format      ascii;
    class       volScalarField;
    location    "18";
    object      k;
}
// * * * * * * * * * * * * * * * * * * * * * * * * * * * * * * * * * * * * * //

dimensions      [0 2 -2 0 0 0 0];


internalField   nonuniform List<scalar> 
20320
(
0.00413901
0.00425568
0.00433381
0.00441052
0.00448529
0.00455754
0.00462665
0.00469181
0.00475199
0.00480603
0.0048526
0.00489027
0.00491745
0.00493575
0.0049982
0.00562645
0.00937853
0.02096
0.0399992
0.0469612
0.00415031
0.0041482
0.00419099
0.00428171
0.00443912
0.00468013
0.00501788
0.00546306
0.00602262
0.00669872
0.00748367
0.00836641
0.00931658
0.0103013
0.0124648
0.0243755
0.0602501
0.10626
0.131287
0.121675
0.00417619
0.00421449
0.00429645
0.00442732
0.00463017
0.00493207
0.00536513
0.00596671
0.00677723
0.00783653
0.00917478
0.0107763
0.012502
0.0144815
0.0221891
0.0558221
0.119848
0.17997
0.204276
0.173022
0.00421318
0.004314
0.0044615
0.00465565
0.00492026
0.00528329
0.00577982
0.00645658
0.00737167
0.00859539
0.0101936
0.0121526
0.0142791
0.0180306
0.0373007
0.0956406
0.177872
0.243463
0.264393
0.215593
0.00425875
0.00444205
0.00467481
0.00495237
0.00529699
0.00573742
0.00631054
0.00706379
0.00806437
0.0093935
0.0111242
0.0132161
0.0156536
0.023072
0.0587093
0.13857
0.231841
0.299208
0.315767
0.252598
0.0043114
0.00459632
0.00493554
0.00531813
0.005766
0.00630631
0.00697579
0.00782508
0.00892175
0.01035
0.0121708
0.0142962
0.0172901
0.0309172
0.0847588
0.181378
0.281524
0.349103
0.361157
0.285686
0.00436917
0.00477216
0.00523616
0.00574471
0.00631816
0.00698054
0.00776862
0.00873405
0.0099425
0.0114763
0.0133658
0.0155105
0.0196102
0.0418725
0.113316
0.222614
0.327361
0.394566
0.402344
0.315957
0.0044298
0.00496357
0.00556737
0.0062218
0.0069411
0.00774969
0.00868019
0.00978189
0.011123
0.0127714
0.0147151
0.0169262
0.0228961
0.0555132
0.14272
0.26178
0.369977
0.436718
0.440573
0.344238
0.00449068
0.00516281
0.0059178
0.00673301
0.00761834
0.00859669
0.00969403
0.010958
0.012456
0.0142314
0.0162268
0.0186002
0.0272834
0.0710661
0.171902
0.298843
0.410035
0.476519
0.476847
0.371238
0.00454888
0.00536099
0.00627253
0.00725785
0.00832765
0.00949614
0.0107876
0.0122459
0.0139281
0.015851
0.0179133
0.0205837
0.0327479
0.0877005
0.200235
0.333989
0.448218
0.514872
0.51209
0.397633
0.00460132
0.00554832
0.00661351
0.00777299
0.00903906
0.010416
0.0119316
0.0136197
0.0155204
0.0176241
0.0197869
0.0229149
0.039121
0.104676
0.227393
0.367539
0.485255
0.552728
0.547275
0.424144
0.00464506
0.00571429
0.00692155
0.00825192
0.00971676
0.0113188
0.0130873
0.0150429
0.0172081
0.01954
0.0218564
0.0256087
0.0461309
0.121391
0.253242
0.399922
0.521995
0.591203
0.583555
0.451627
0.00467758
0.00584874
0.00717828
0.00866624
0.0103232
0.0121623
0.0142073
0.0164705
0.0189579
0.0215802
0.0241254
0.028652
0.0534573
0.137394
0.277808
0.431718
0.559531
0.631773
0.622481
0.48121
0.00469699
0.00594312
0.0073676
0.00898866
0.0108223
0.0128999
0.0152367
0.0178486
0.0207227
0.0237132
0.0265866
0.0320013
0.060773
0.152351
0.301236
0.463709
0.599362
0.676558
0.666329
0.514543
0.00470233
0.00599167
0.00747732
0.00919699
0.011182
0.0134845
0.0161175
0.0191132
0.0224385
0.0258885
0.0292134
0.0355844
0.067773
0.166023
0.323789
0.496977
0.643687
0.728865
0.718789
0.554288
0.00469371
0.00599227
0.00750096
0.00927746
0.0113778
0.0138743
0.0167922
0.0201917
0.0240222
0.0280297
0.0319485
0.0393012
0.0741832
0.178215
0.345819
0.53301
0.695856
0.794215
0.786467
0.605105
0.00467228
0.00594659
0.00743895
0.0092266
0.0113958
0.0140381
0.0172095
0.0210065
0.0253731
0.0300282
0.0346885
0.0430161
0.0797424
0.188689
0.367647
0.573729
0.760983
0.882279
0.882278
0.676766
0.00464011
0.0058599
0.00729871
0.00905165
0.0112355
0.013961
0.0173303
0.0214828
0.0263775
0.0317395
0.037269
0.0465413
0.0841608
0.196992
0.38924
0.621146
0.846385
1.01018
1.0338
0.793327
0.00459983
0.0057402
0.00709361
0.00876955
0.0109112
0.0136475
0.0171354
0.0215614
0.0269234
0.0329922
0.0394603
0.0496199
0.0870842
0.202255
0.409551
0.67611
0.960394
1.20582
1.30215
1.02695
0.00455433
0.00559709
0.00684089
0.00840455
0.0104501
0.0131222
0.0166318
0.0212119
0.0269204
0.0336113
0.0409844
0.0519231
0.0881008
0.203049
0.425529
0.735226
1.10517
1.49854
1.80231
1.65201
2.22825
2.65544
3.37584
3.85967
3.79567
3.77973
3.76045
4.06653
5.08037
7.57591
13.0088
22.444
34.3611
44.712
55.8312
71.1444
87.1757
100.002
108.929
83.6793
66.0645
54.3448
45.7563
39.0135
33.5611
29.1288
25.531
22.6087
20.2265
18.285
16.6793
15.3297
14.182
13.1971
12.3454
11.6038
10.9535
10.38
9.87106
9.41733
9.0112
8.64606
8.31632
8.0174
7.74504
7.49579
7.26691
7.05581
6.86025
6.67865
6.50976
6.35263
6.20581
6.06823
5.9401
5.82189
5.71365
5.61561
5.52854
5.45297
3.46272
7.56858
9.4111
10.6147
10.9964
11.108
11.2839
12.1351
14.6385
20.6222
34.0071
59.8509
98.5752
134.264
160.106
204.171
260.362
282.063
251.037
201.57
159.145
130.235
109.121
92.7888
79.8528
69.5341
61.243
54.5094
48.972
44.3559
40.47
37.1652
34.3304
31.8814
29.7526
27.8916
26.2558
24.8103
23.527
22.3828
21.3585
20.4378
19.6066
18.8531
18.1667
17.5389
16.9627
16.4318
15.9405
15.4848
15.0619
14.6695
14.3043
13.9638
13.648
13.3585
13.0951
12.8573
12.6464
12.4646
4.15955
9.76062
12.0926
13.6679
14.4893
14.8637
15.2791
16.353
19.0955
25.3479
39.1094
67.6059
119.862
197.714
221.129
268.876
357.594
436.415
290.761
222.5
177.889
147.183
124.539
106.845
92.8429
81.7661
72.9107
65.6916
59.6868
54.6035
50.2469
46.4822
43.2078
40.3454
37.8325
35.617
33.6552
31.9112
30.3543
28.9587
27.7031
26.5688
25.5398
24.6022
23.7443
22.956
22.2296
21.5577
20.934
20.3536
19.8135
19.3112
18.8436
18.4074
18.0023
17.6303
17.2908
16.9823
16.7065
16.4676
4.70778
11.4554
14.2067
16.1336
17.335
18.0405
18.6677
19.8674
22.5637
28.3785
40.6399
65.8558
115.37
197.832
260.918
294.392
379.692
446.909
297.979
217.008
172.405
143.955
123.432
107.307
94.5766
84.5856
76.5902
69.9882
64.3894
59.5555
55.3347
51.629
48.3631
45.4759
42.9163
40.6401
38.6093
36.791
35.1571
33.6832
32.3486
31.1352
30.0274
29.0116
28.0761
27.2114
26.4099
25.6648
24.9695
24.3192
23.7113
23.1445
22.6158
22.1213
21.661
21.2373
20.8494
20.495
20.1758
19.8999
5.18619
12.9564
16.1405
18.4298
19.9927
21.0501
21.9183
23.2173
25.8536
31.2741
42.228
63.9366
105.307
178.797
255.663
299.516
383.293
396.437
278.932
202.333
157.439
131.27
113.833
100.563
90.3148
82.3466
75.8806
70.3998
65.6267
61.4128
57.6663
54.3243
51.3391
48.6691
46.2771
44.1296
42.1965
40.4512
38.8702
37.4328
36.1208
34.9183
33.8114
32.7884
31.8387
30.9543
30.1287
29.3558
28.6296
27.9456
27.303
26.7018
26.1399
25.6123
25.1192
24.6642
24.246
23.861
23.5124
23.2126
5.59475
14.3718
18.0307
20.7026
22.6463
24.0725
25.2416
26.6692
29.2894
34.4894
44.804
64.9807
103.083
173.563
246.027
308.464
406.575
369.745
261.29
186.855
141.547
116.665
101.928
91.6536
84.0137
78.0642
73.1105
68.7959
64.9545
61.5013
58.3844
55.5661
53.0161
50.7069
48.6144
46.7156
44.9889
43.4145
41.9742
40.6517
39.4323
38.3031
37.2533
36.2732
35.3544
34.4908
33.6779
32.9101
32.1806
31.488
30.8344
30.2215
29.6472
29.1047
28.5947
28.1229
27.6868
27.281
26.9122
26.5983
5.86643
15.734
19.9347
23.0343
25.4053
27.2422
28.7683
30.434
33.1287
38.3756
48.8442
69.6736
109.355
181.153
257.326
340.516
462.504
368.081
252.407
174.302
128.129
104.25
92.072
84.4627
78.5331
73.9036
69.9954
66.584
63.5497
60.8226
58.3523
56.1036
54.0511
52.1729
50.4521
48.8722
47.417
46.0748
44.8317
43.6752
42.5948
41.5812
40.6264
39.7236
38.8667
38.052
37.2782
36.5395
35.8205
35.1327
34.4864
33.8801
33.309
32.763
32.2466
31.7684
31.3212
30.8977
30.5143
30.1946
5.96442
17.055
21.8876
25.4823
28.3524
30.6758
32.6409
34.672
37.6511
43.3326
54.9633
78.931
125.076
203.306
290.35
411.387
552.571
378.504
246.904
163.579
117.148
95.0479
86.3118
80.6776
74.6997
70.2713
66.8871
64.1902
61.9051
59.8814
58.0421
56.3471
54.7747
53.3107
51.9463
50.6726
49.4799
48.3622
47.3102
46.3154
45.3715
44.4726
43.614
42.7917
42.0021
41.2464
40.5328
39.8731
39.2729
38.7078
38.1598
37.6328
37.1157
36.5878
36.0786
35.6088
35.1591
34.7176
34.3269
34.0168
6.20756
18.3904
23.9558
28.1016
31.5624
34.4817
37.0113
39.5707
43.1211
49.7971
64.021
94.3901
153.443
251.549
375.981
542.398
635.259
387.414
238.78
152.243
107.618
88.7152
84.4225
76.2262
70.7623
66.9829
64.2642
62.2032
60.5134
59.0327
57.6766
56.4043
55.1968
54.0448
52.9459
51.8972
50.8938
49.9335
49.0132
48.1295
47.2784
46.4566
45.6623
44.8945
44.1536
43.4453
42.7842
42.1826
41.6289
41.116
40.6433
40.1898
39.7326
39.2643
38.8075
38.3764
37.952
37.5325
37.1633
36.8716
7.20595
19.9513
26.2285
30.9542
35.1147
38.7698
42.0348
45.3437
49.8313
58.2227
76.7432
117.66
197.801
333.375
543.656
773.166
673.004
383.236
224.575
139.205
99.1643
84.5294
78.6112
72.3225
67.6619
64.4063
62.0927
60.418
59.1238
58.0345
57.0492
56.1157
55.2096
54.3206
53.4476
52.591
51.7495
50.9243
50.1156
49.3237
48.5481
47.7886
47.046
46.3221
45.6207
44.9505
44.3253
43.7509
43.2105
42.7028
42.2352
41.7912
41.3578
40.9349
40.5294
40.1409
39.7549
39.3767
39.0423
38.7732
9.20485
22.5052
28.8487
34.1117
39.1026
43.663
47.8779
52.2187
58.0925
69.1205
93.8212
149.173
260.976
452.276
687.915
1016.6
665.975
361.863
203.805
125.009
92.0759
81.913
75.907
69.7504
65.2636
62.1409
59.9702
58.4702
57.4063
56.5928
55.9041
55.2661
54.6388
54.0036
53.3552
52.6937
52.0198
51.3362
50.6459
49.9521
49.2575
48.565
47.8781
47.2016
46.5419
45.9089
45.3139
44.7585
44.2279
43.7182
43.2351
42.7759
42.3428
41.9404
41.5658
41.209
40.8586
40.5207
40.2194
39.9708
9.54769
25.0037
31.7941
37.6557
43.6175
49.3115
54.735
60.4463
68.2253
82.8422
115.585
188.539
342.323
633.468
873.963
1217.07
615.197
324.576
178.292
111.105
86.6923
80.479
74.387
68.0878
63.3472
60.0189
57.7447
56.2365
55.2576
54.6106
54.1458
53.7618
53.3962
53.0147
52.6017
52.1522
51.6657
51.1451
50.5947
50.0194
49.4248
48.8165
48.201
47.5854
46.9784
46.3902
45.8298
45.2971
44.7804
44.2732
43.7791
43.3057
42.8666
42.4695
42.1089
41.7719
41.4481
41.1414
40.8657
40.6339
9.92667
27.0474
34.8585
41.7057
48.7795
55.8878
62.8287
70.3271
80.5895
99.7358
142.034
233.999
428.897
870.669
1117.75
1061.67
538.48
277.078
151.289
99.0324
83.1067
79.3803
73.1059
66.8229
61.7761
58.0773
55.513
53.829
52.7899
52.1886
51.855
51.6613
51.52
51.3756
51.1973
50.9698
50.6875
50.3507
49.9631
49.5305
49.0593
48.5577
48.0343
47.4985
46.9602
46.4298
45.9148
45.415
44.9211
44.4268
43.9355
43.4604
43.0201
42.6248
42.2702
41.9446
41.6388
41.3534
41.0954
40.8763
11.0641
29.7437
38.6405
46.5335
54.8016
63.5831
72.5209
82.3014
95.6254
120.139
173.412
285.91
508.802
929.834
1301.27
882.897
442.033
225.365
126.316
89.7856
81.1655
77.8332
71.7877
65.6409
60.387
56.316
53.3807
51.406
50.1836
49.5095
49.2025
49.1151
49.1362
49.1886
49.2227
49.2096
49.1343
48.9915
48.7819
48.5103
48.1834
47.8096
47.3988
46.9619
46.5098
46.0525
45.5968
45.1428
44.6842
44.2164
43.744
43.2824
42.8511
42.4617
42.1127
41.7951
41.5013
41.2297
40.9832
40.7734
12.7505
33.4483
43.43
52.4233
62.0346
72.8349
84.3851
97.1692
114.071
144.566
210.037
347.356
602.993
941.874
1276.71
674.381
343.124
176.931
106.19
83.522
80.0168
76.1501
70.3688
64.4021
59.0451
54.6753
51.3766
49.0653
47.5815
46.7409
46.3646
46.2949
46.4038
46.5948
46.7999
46.9747
47.0924
47.1394
47.1109
47.0086
46.8382
46.6074
46.3255
46.0037
45.6532
45.2835
44.9011
44.5067
44.097
43.6701
43.2319
42.7982
42.3875
42.0118
41.6722
41.3631
41.0787
40.8164
40.5776
40.3747
15.7491
38.1504
49.3042
59.5624
70.8016
84.0857
99.5329
116.331
137.372
174.015
251.941
418.514
732.326
1010.73
995.692
509.387
256.432
137.594
91.9683
79.7597
78.5808
74.4131
68.8642
63.0581
57.6658
53.0837
49.4753
46.8357
45.0599
43.9956
43.4778
43.349
43.4725
43.7379
44.0618
44.3847
44.6675
44.8866
45.03
45.0945
45.0825
45.0006
44.8572
44.6615
44.4238
44.1533
43.856
43.5337
43.1855
42.8122
42.4214
42.0277
41.6483
41.2947
40.9702
40.6723
40.3972
40.1425
39.9097
39.7128
18.386
43.8824
56.2247
68.0338
81.2152
97.7764
119.494
139.478
166.846
210.768
300.375
493.501
748.534
1071.2
745.341
366.818
187.185
109.566
82.9276
77.7871
76.857
72.6471
67.2628
61.5902
56.2022
51.4816
47.6317
44.7035
42.642
41.3316
40.6283
40.384
40.461
40.7413
41.1301
41.5558
41.9674
42.3312
42.6275
42.8465
42.9864
43.0506
43.0458
42.9803
42.8616
42.6974
42.4935
42.2525
41.9759
41.6665
41.3328
40.9884
40.6487
40.3246
40.0212
39.7382
39.4739
39.2272
39.0005
38.8098
18.6264
49.8084
63.8889
77.7801
93.2154
113.093
135.9
158.447
195.371
251.408
343.657
486.631
685.471
881.82
485.227
251.185
137.884
91.6175
77.5392
76.812
75.0592
70.8245
65.5531
59.9883
54.6287
49.8284
45.8029
42.6381
40.3201
38.7671
37.8604
37.4663
37.4523
37.6988
38.1045
38.5884
39.09
39.5664
39.9896
40.3437
40.6215
40.8224
40.9499
41.0102
41.01
40.9544
40.8479
40.6939
40.495
40.2561
39.9858
39.6969
39.4028
39.114
38.8365
38.5722
38.3213
38.0842
37.865
37.6819
20.3937
55.3278
71.1093
85.6781
102.397
120.394
138.833
163.163
200.097
253.553
332.577
450.943
602.47
554.325
310.566
173.301
106.785
80.7409
74.4298
75.5253
73.2175
68.9203
63.7202
58.2462
52.9323
48.0981
43.9551
40.6084
38.0733
36.2982
35.1892
34.6298
34.4974
34.6749
35.0584
35.5615
36.1163
36.6721
37.1938
37.6592
38.0556
38.378
38.6264
38.8037
38.9145
38.9633
38.9538
38.8879
38.7693
38.6037
38.3999
38.1694
37.9243
37.6746
37.4269
37.1847
36.9499
36.725
36.5158
36.3425
22.0391
58.7878
74.7873
88.9914
104.554
120.284
137.432
160.626
193.964
242.276
311.942
405.227
489.542
347.71
207.232
126.912
88.1187
74.1068
72.7058
73.8617
71.2465
66.9
61.7537
56.3628
51.1094
46.278
42.0667
38.5888
35.8793
33.9111
32.6134
31.8878
31.6235
31.7093
32.0422
32.5329
33.1086
33.7128
34.3045
34.8555
35.3483
35.7733
36.1267
36.4083
36.6201
36.7647
36.8449
36.8637
36.8242
36.7314
36.5939
36.4223
36.2275
36.0188
35.8035
35.5862
35.3707
35.1611
34.9651
34.8045
22.5507
59.1338
75.2993
89.1441
103.536
118.812
136.027
157.852
187.14
227.976
282.891
345.8
356.07
232.896
148.278
99.2963
76.5503
69.933
71.8421
72.0082
69.1477
64.7494
59.6497
54.3419
49.1631
44.3638
40.1256
36.5613
33.7185
31.5894
30.1233
29.2396
28.8405
28.8223
29.0853
29.5397
30.11
30.7354
31.3703
31.9818
32.5477
33.0545
33.4946
33.8647
34.164
34.3934
34.5545
34.6498
34.6828
34.6591
34.5856
34.4713
34.3263
34.1595
33.9783
33.7885
33.5954
33.4046
33.2257
33.081
21.744
57.3926
73.5743
87.0644
100.85
116.216
134.13
155.333
181.038
214.603
254.701
288.712
244.811
166.512
112.403
81.7352
68.9788
67.3133
70.6417
70.0359
66.9089
62.4638
57.4132
52.1941
47.1033
42.3605
38.1289
34.5164
31.5776
29.3192
27.7079
26.6794
26.1491
26.0223
26.2037
26.6048
27.1488
27.7725
28.4268
29.0751
29.6914
30.2587
30.766
31.207
31.5785
31.8795
32.1105
32.2731
32.3706
32.4082
32.3927
32.3325
32.2358
32.1108
31.9651
31.8053
31.638
31.4702
31.3127
31.1875
19.7493
54.2914
70.2284
83.3753
96.8094
112.18
130.419
151.263
174.676
202.038
230.474
237.018
179.149
124.819
88.7511
69.8904
63.9074
65.8266
68.9913
67.8577
64.5289
60.0511
55.057
49.9343
44.9437
40.2772
36.0793
32.4504
29.448
27.0894
25.3557
24.1979
23.544
23.3086
23.402
23.738
24.24
24.8434
25.4966
26.1603
26.8058
27.4129
27.9678
28.4617
28.8892
29.2476
29.5361
29.7555
29.9086
30
30.0359
30.0238
29.9718
29.8879
29.7791
29.652
29.5142
29.3738
29.2425
29.1406
16.7514
50.1027
65.7393
78.4893
91.4992
106.492
124.377
144.944
166.273
189.137
206.136
189.418
135.463
96.323
72.2988
61.7773
60.6571
65.2355
67.1526
65.5521
62.0296
57.5292
52.6001
47.5816
42.7017
38.1273
33.9846
30.3652
27.3267
24.8934
23.0587
21.7868
21.0184
20.6772
20.6796
20.9429
21.391
21.9588
22.5935
23.254
23.9094
24.5369
25.1209
25.6501
26.1175
26.5187
26.8519
27.1171
27.3164
27.4539
27.5349
27.5664
27.5558
27.5105
27.4383
27.3466
27.2425
27.1344
27.0341
26.9592
13.6992
44.7605
60.4034
72.6949
85.1008
99.333
116.294
134.744
154.911
176.864
182.529
145.271
103.954
75.7644
60.8055
56.4347
58.8786
64.3907
65.2151
63.1242
59.4305
54.9203
50.0641
45.1567
40.3958
35.9253
31.8548
28.2658
25.2137
22.7277
20.8107
19.4392
18.5652
18.1223
18.033
18.218
18.6031
19.1234
19.7252
20.3663
21.0144
21.6451
22.2408
22.789
23.2809
23.7111
24.0766
24.3768
24.6132
24.7892
24.9096
24.9805
25.0089
25.0018
24.9667
24.9112
24.8435
24.7725
24.7082
24.6636
10.0263
38.8511
54.3676
66.257
77.9706
91.1865
106.345
122.381
144.256
161.978
152.757
111.527
80.071
60.9505
53.1538
53.2762
58.3189
63.1056
63.0841
60.5898
56.7545
52.2477
47.4717
42.6805
38.0444
33.6866
29.701
26.1589
23.1119
20.5918
18.6092
17.1508
16.18
15.6394
15.4585
15.5619
15.8772
16.34
16.8968
17.5048
18.1307
18.7491
19.3414
19.8936
20.396
20.8423
21.2287
21.5541
21.8192
22.0269
22.1815
22.2884
22.354
22.385
22.3885
22.372
22.3436
22.312
22.2868
22.2756
7.90073
32.4421
48.0988
59.67
70.7541
82.8855
96.3483
112.119
133.356
142.822
118.95
85.0227
62.2509
50.8723
48.5405
51.8511
58.6786
61.6282
60.8313
57.9735
54.0222
49.5317
44.8423
40.1714
35.6643
31.4254
27.5342
24.0522
21.0259
18.4878
16.454
14.9204
13.8608
13.2271
12.9555
12.9749
13.2151
13.6127
14.1146
14.6777
15.2686
15.8615
16.4367
16.9799
17.4805
17.9315
18.3287
18.6703
18.9567
19.1903
19.3746
19.5147
19.6163
19.6857
19.7294
19.7544
19.7683
19.7792
19.7946
19.8171
9.41993
28.7974
42.2985
53.9512
64.5431
75.8641
88.3167
104.782
122.229
120.746
90.1647
64.688
49.7787
44.695
46.2296
51.7587
58.542
59.9786
58.4536
55.2917
51.2516
46.7898
42.1927
37.6448
33.2695
29.1541
25.3646
21.9532
18.9609
16.4191
14.3478
12.7504
11.6102
10.8884
10.5281
10.4626
10.6241
10.9504
11.3891
11.8976
12.4426
12.9982
13.5447
14.0673
14.5552
15.001
15.4
15.7503
16.0516
16.3058
16.5162
16.6871
16.8237
16.9315
17.0165
17.0849
17.1434
17.1987
17.2558
17.3111
11.2588
28.9443
38.6301
50.0699
60.3881
71.1794
83.63
100.049
111.779
95.8603
68.3586
50.1616
41.9431
41.4752
45.5759
52.6511
57.7984
58.0852
55.9788
52.5638
48.4577
44.0353
39.5359
35.1138
30.8721
26.8835
23.2018
19.8699
16.9233
14.3914
12.2963
10.6476
9.43699
8.63454
8.19003
8.04103
8.12227
8.37306
8.74189
9.18727
9.67669
10.1847
10.692
11.1838
11.6493
12.0809
12.4737
12.8255
13.1357
13.4058
13.6385
13.8377
14.0077
14.1534
14.2799
14.3924
14.4961
14.5959
14.6941
14.7808
11.6778
30.16
37.3363
48.1535
58.5409
69.228
82.2936
97.8895
100.928
74.3772
52.5666
40.6699
37.6851
40.288
46.0814
53.8226
56.6911
56.0169
53.424
49.8009
45.6502
41.2785
36.8817
32.5882
28.4825
24.6234
21.0542
17.8099
14.9203
12.4122
10.3087
8.62432
7.35762
6.4875
5.96868
5.74249
5.7456
5.91891
6.21243
6.58687
7.01147
7.46162
7.91927
8.37022
8.80363
9.21219
9.59078
9.93687
10.2497
10.5303
10.7808
11.0045
11.2049
11.3862
11.5523
11.7072
11.8547
11.9971
12.1333
12.2481
11.6732
30.5106
37.2371
47.6645
58.5642
69.5696
83.5949
98.4172
84.1655
57.6768
41.3773
35.0787
35.8539
40.4167
47.4448
53.9067
55.2068
53.7578
50.7835
47.004
42.8337
38.525
34.2382
30.0765
26.1089
22.382
18.9301
15.7811
12.9599
10.4908
8.39814
6.70188
5.40346
4.48627
3.91189
3.62392
3.55888
3.65801
3.87357
4.16923
4.51766
4.89757
5.29284
5.69036
6.08001
6.45509
6.80947
7.14089
7.44818
7.73171
7.99322
8.235
8.45997
8.67134
8.872
9.06465
9.25106
9.43118
9.59987
9.73724
11.0147
29.9439
37.4654
47.9136
59.8515
71.3061
88.8174
94.0588
65.5573
44.2584
33.8697
32.2655
35.5487
41.4186
49.2428
53.3856
53.4199
51.3214
48.0539
44.1709
40.0101
35.7797
31.6102
27.585
23.7584
20.1669
16.8372
13.7914
11.0511
8.64287
6.59265
4.9144
3.61651
2.69047
2.10154
1.78903
1.68218
1.71938
1.85653
2.06421
2.32195
2.61411
2.92808
3.25326
3.581
3.90465
4.21918
4.52151
4.80985
5.08399
5.3451
5.59377
5.83254
6.06339
6.28826
6.5087
6.72487
6.93396
7.12647
7.27781
9.84029
28.3746
37.0905
48.0833
60.5795
75.9427
94.5489
75.653
48.8644
34.024
29.4985
31.3152
36.2075
43.0598
50.3761
52.3104
51.3432
48.7395
45.2485
41.3061
37.1829
33.0473
29.0046
25.1208
21.4387
17.9862
14.7842
11.8507
9.21279
6.89636
4.91838
3.30013
2.06143
1.20664
0.700754
0.457494
0.372943
0.375556
0.433182
0.533665
0.671366
0.841514
1.03864
1.25663
1.48924
1.73084
1.9766
2.22305
2.46772
2.70933
2.94751
3.18235
3.41483
3.64572
3.87596
4.10651
4.33563
4.55867
4.76159
4.91251
8.89026
26.1866
35.8698
47.8767
61.3814
81.4998
85.9444
54.1072
35.0023
27.4024
27.6127
31.5614
37.5269
45.2307
50.1922
50.6692
48.964
46.0069
42.3727
38.4159
34.3572
30.3327
26.4264
22.6901
19.1567
15.8478
12.7799
9.977
7.46852
5.26955
3.40529
1.91285
0.841861
0.237621
0.0416941
0.0129189
0.00941805
0.00948471
0.011176
0.0152696
0.0240195
0.0412269
0.0718501
0.120811
0.191449
0.284634
0.398908
0.531506
0.679269
0.839457
1.01
1.1893
1.37633
1.5704
1.77107
1.97794
2.18909
2.39824
2.58692
2.7032
8.29486
24.042
34.2978
48.0346
66.9793
80.8888
56.7254
35.4266
25.4936
24.286
27.4076
32.5841
39.3579
46.8671
49.2813
48.6723
46.3814
43.1584
39.4411
35.5093
31.5401
27.6424
23.8822
20.2996
16.9198
13.7598
10.8392
8.19205
5.83272
3.78525
2.09226
0.829465
0.132279
0.00725218
0.00540603
0.00548212
0.0056081
0.00574069
0.00587064
0.0059948
0.0061153
0.00623583
0.00636246
0.00651429
0.00675012
0.00721785
0.00825894
0.010632
0.0158464
0.0264209
0.045875
0.0783146
0.127677
0.196846
0.287039
0.397784
0.526334
0.665248
0.793594
0.845654
7.59181
22.2293
33.0128
49.0161
65.6685
57.9998
34.3494
23.1541
21.1167
23.6729
28.2212
34.1664
41.6249
46.8643
47.8072
46.3939
43.6638
40.2401
36.4796
32.6011
28.7417
24.9847
21.3799
17.9575
14.7366
11.7336
8.98529
6.50842
4.32377
2.47214
1.03204
0.169301
0.00611446
0.00505149
0.0051262
0.00521871
0.00532004
0.00542571
0.00552922
0.00562683
0.00571918
0.00580725
0.00588907
0.00595922
0.00601255
0.00604771
0.00606834
0.00608095
0.00609264
0.0061089
0.00613504
0.00618021
0.0062633
0.00642711
0.00676899
0.00750762
0.00910977
0.0123344
0.0171945
0.0184537
7.16971
21.3913
33.5791
52.7446
50.6473
30.0783
19.919
17.9806
20.3219
24.4091
29.6671
36.216
43.4645
46.1301
45.901
43.8695
40.8257
37.2723
33.5076
29.7071
25.9744
22.3701
18.9291
15.6729
12.6169
9.79401
7.23003
4.94214
2.96546
1.37009
0.306993
0.00837487
0.00486222
0.00489607
0.00495328
0.00502157
0.00509864
0.00518122
0.00526352
0.00534147
0.00541522
0.0054864
0.00555466
0.00561595
0.00566466
0.00569763
0.00571673
0.00572734
0.00573565
0.00574615
0.00576098
0.00578162
0.00580994
0.00584886
0.00590273
0.00597731
0.00607788
0.00619173
0.00623968
0.0059747
9.28328
24.3969
39.1648
43.9339
24.6977
16.1706
15.0003
17.3916
21.1613
25.8415
31.5783
38.6832
43.7072
44.7825
43.6283
41.1251
37.8711
34.2598
30.5349
26.8386
23.2494
19.8092
16.5401
13.4564
10.5813
7.9532
5.58748
3.51356
1.7902
0.540878
0.0245437
0.00480451
0.00477117
0.0047941
0.00483044
0.00487689
0.00493194
0.00499358
0.00505688
0.00511738
0.00517451
0.00523018
0.0052854
0.00533744
0.00538076
0.00541097
0.00542836
0.0054372
0.00544321
0.00545097
0.0054628
0.00547983
0.005503
0.00553373
0.00557436
0.00562782
0.005696
0.00576638
0.00577697
0.00552295
18.8175
42.4679
32.9432
17.902
12.3527
12.4678
14.9749
18.4685
22.687
27.7124
33.899
40.6788
43.0928
42.8885
41.0254
38.184
34.8122
31.2104
27.5707
24.007
20.5791
17.3151
14.226
11.3239
8.6499
6.22552
4.07671
2.25142
0.848413
0.0883618
0.00499831
0.00473984
0.00472877
0.00473423
0.00475206
0.00477892
0.00481373
0.00485588
0.00490146
0.00494568
0.0049871
0.00502778
0.00506995
0.0051121
0.00514898
0.00517534
0.00519015
0.00519664
0.00519988
0.00520423
0.0052121
0.00522459
0.00524215
0.00526518
0.00529445
0.00533108
0.00537528
0.00541758
0.00541467
0.00520537
9.21983
14.9215
9.5896
9.05655
10.6588
13.1679
16.3077
20.1033
24.6261
29.9477
36.6125
40.8604
41.6625
40.487
38.1219
35.0726
31.6698
28.1385
24.6267
21.2233
17.9753
14.9011
12.0016
9.30474
6.83676
4.62863
2.72357
1.19814
0.226106
0.0064388
0.00478189
0.00473686
0.00471181
0.00470164
0.00470319
0.00471283
0.00472948
0.00475366
0.00478289
0.00481215
0.00483895
0.00486525
0.00489451
0.00492649
0.00495622
0.00497793
0.00498953
0.00499339
0.00499386
0.00499483
0.00499857
0.0050062
0.00501805
0.005034
0.00505389
0.00507769
0.00510497
0.00512976
0.00512449
0.00496553
0.00450638
0.00544053
0.00655923
0.00798475
0.00988899
0.0124271
0.0158545
0.0204444
0.026324
0.0334569
0.041565
0.0530842
0.0868467
0.197623
0.431454
0.786408
1.25852
1.8582
2.5816
3.52893
0.00445704
0.00527802
0.00626295
0.00753258
0.00925981
0.0116029
0.0148466
0.0192916
0.0251301
0.032443
0.0409824
0.0527581
0.0831017
0.184513
0.419929
0.808932
1.36378
2.11656
3.0689
4.47545
0.00440795
0.00511321
0.00596048
0.00706389
0.00858881
0.0106882
0.0136573
0.0178061
0.0233728
0.0305405
0.0390915
0.0506421
0.0768447
0.163524
0.384981
0.782773
1.37142
2.16574
3.1343
4.21984
0.00436091
0.00495265
0.00566433
0.00659992
0.00791032
0.00973638
0.0123639
0.016092
0.0211747
0.0278583
0.0359497
0.0466825
0.0684703
0.13709
0.327766
0.702694
1.27759
2.04427
2.95284
3.88243
0.00431739
0.00480192
0.00538524
0.00615942
0.00725551
0.00879898
0.0110491
0.0142761
0.0187208
0.0246387
0.0318532
0.04122
0.0586862
0.109358
0.258018
0.580578
1.10421
1.80864
2.63631
3.48492
0.0042785
0.00466517
0.00513112
0.00575606
0.00664843
0.00791949
0.00978663
0.0124819
0.016216
0.0211989
0.0272601
0.0349323
0.0484136
0.0841356
0.189871
0.441203
0.88468
1.50634
2.24959
3.03143
0.00424496
0.00454497
0.00490667
0.0053976
0.00610554
0.00712608
0.00862744
0.0108053
0.0138243
0.0178125
0.0226252
0.0286047
0.0387842
0.063972
0.13592
0.316789
0.666722
1.19329
1.8516
2.57284
0.00421732
0.00444249
0.00471301
0.00508585
0.00563199
0.00642582
0.00758858
0.00926208
0.0115223
0.0144602
0.0181862
0.0232864
0.0326157
0.0550816
0.113724
0.254733
0.534079
0.97675
1.55953
2.23214
0.00419636
0.00435765
0.00454666
0.00481488
0.00521609
0.00579174
0.00659691
0.007788
0.00986715
0.0142134
0.0233431
0.0409932
0.0730888
0.129757
0.2282
0.39587
0.667595
1.06915
1.60042
2.23769
0.00418457
0.00428875
0.00439804
0.00458011
0.00496396
0.00638495
0.0128123
0.0319028
0.0691649
0.124694
0.196531
0.284365
0.390942
0.522572
0.689994
0.91002
1.20517
1.5976
2.09903
2.70648
0.00420322
0.00426993
0.00495764
0.0139962
0.0570022
0.14495
0.257937
0.377665
0.49862
0.621894
0.750948
0.890253
1.04519
1.22273
1.43264
1.68887
2.00884
2.41125
2.90989
3.50967
0.0399057
0.0426626
0.226257
0.484051
0.702037
0.86862
1.00446
1.12752
1.24882
1.37496
1.51112
1.66204
1.83264
2.02923
2.26088
2.54226
2.89486
3.33349
3.85973
4.47438
2.41891
1.29223
1.63562
1.7683
1.81639
1.84989
1.89598
1.96145
2.0465
2.15098
2.2773
2.42818
2.60584
2.81282
3.05208
3.34514
3.7468
4.25413
4.84856
5.51795
5.86919
3.93349
3.2709
2.94502
2.76501
2.67812
2.65498
2.67957
2.73921
2.83225
2.95908
3.1209
3.3173
3.54465
3.7861
4.0615
4.49786
5.01684
5.66404
6.35396
4.29883
3.95574
3.49184
3.21756
3.05287
2.9695
2.93643
2.94234
2.98209
3.05572
3.16484
3.30939
3.4897
3.70108
3.93083
4.20452
4.5679
4.95186
5.38343
5.85785
3.5017
3.23952
2.9868
2.85356
2.78447
2.75925
2.76349
2.78796
2.83121
2.89607
2.98485
3.09812
3.23576
3.39623
3.58181
3.81463
4.10106
4.3983
4.69715
5.00523
2.90017
2.66998
2.44798
2.36382
2.34317
2.35532
2.38626
2.42916
2.4822
2.54647
2.62353
2.71447
2.82002
2.94135
3.08297
3.25439
3.45542
3.66615
3.8723
4.07382
2.31603
2.1351
1.92566
1.85699
1.8559
1.88671
1.93307
1.98745
2.0469
2.11094
2.18011
2.2552
2.33718
2.42762
2.52944
2.64614
2.77645
2.91146
3.04194
3.1645
1.70905
1.58693
1.40216
1.35228
1.36603
1.40821
1.46272
1.52206
1.58289
1.64397
1.70517
1.76685
1.82969
1.89474
1.96346
2.03696
2.11421
2.19102
2.26236
2.32504
1.10025
1.03015
0.890534
0.872031
0.903062
0.953525
1.01093
1.06961
1.12687
1.18155
1.23323
1.28196
1.32804
1.37195
1.41428
1.45529
1.49427
1.52923
1.55755
1.57714
0.557992
0.513419
0.440439
0.457076
0.500924
0.553084
0.606721
0.658754
0.707587
0.752366
0.792658
0.828289
0.859255
0.88566
0.907635
0.925161
0.937828
0.94473
0.944694
0.936701
0.184946
0.143389
0.133822
0.162062
0.200083
0.240793
0.281196
0.319619
0.35497
0.386494
0.413664
0.436121
0.45364
0.466101
0.473455
0.475657
0.472594
0.464057
0.449828
0.429831
0.0321915
0.016268
0.0182024
0.0272513
0.0405994
0.0569376
0.074846
0.0929961
0.110262
0.125737
0.138715
0.148675
0.155268
0.158308
0.15776
0.15373
0.14644
0.136224
0.123537
0.10898
0.0108134
0.00453847
0.00452239
0.00487637
0.00560065
0.00680825
0.0085412
0.010714
0.0131219
0.0154904
0.0175353
0.0190151
0.0197673
0.019729
0.0189401
0.0175302
0.0156914
0.0136435
0.0115982
0.00972897
1.84074
2.49418
3.02813
3.52787
3.91256
4.11061
4.16639
4.11372
4.03018
3.95577
3.88275
3.83593
3.84255
3.94264
4.22573
3.79581
6.76971
9.04565
10.0095
10.2006
10.1244
9.89333
9.55289
9.15015
8.73722
8.36417
8.07773
7.92169
7.93511
8.13362
4.98245
5.0282
5.99442
7.1208
7.86622
8.01434
7.86402
7.63499
7.40802
7.22145
7.11042
7.11612
7.28417
7.65611
8.25522
4.87115
5.24905
5.25255
5.21059
5.16883
5.21868
5.32374
5.44799
5.59524
5.79244
6.07926
6.50028
7.09456
7.88569
8.88148
4.33509
5.00698
5.33917
5.44371
5.45099
5.43943
5.46352
5.55772
5.74637
6.05516
6.51304
7.1457
7.96792
8.983
10.1952
3.80943
4.51003
5.02532
5.36334
5.58273
5.74914
5.92324
6.15573
6.48671
6.95041
7.57503
8.37882
9.36903
10.5492
11.9369
3.3211
4.03823
4.64863
5.15337
5.584
5.98534
6.39671
6.85677
7.40383
8.07347
8.89424
9.88427
11.054
12.4184
14.0125
2.9728
3.73633
4.45374
5.12372
5.76479
6.39467
7.03739
7.72562
8.49621
9.38384
10.4174
11.6163
12.9959
14.5873
16.4509
2.97723
3.79113
4.61192
5.43181
6.24643
7.06484
7.90936
8.81095
9.80395
10.9184
12.1831
13.6224
15.2614
17.1721
19.3852
3.43301
4.27228
5.16556
6.08693
7.03204
8.01315
9.04893
10.1618
11.3832
12.7425
14.2946
16.1002
17.9769
19.5852
20.8972
4.23622
5.09735
6.03931
7.04456
8.1159
9.26254
10.5085
11.8591
13.3639
15.0634
16.7101
18.1014
19.0798
19.5704
19.7289
5.21124
6.12999
7.15379
8.27815
9.57108
10.9232
12.5498
14.0078
15.1805
16.4092
17.1124