/*--------------------------------*- C++ -*----------------------------------*\
| =========                 |                                                 |
| \\      /  F ield         | OpenFOAM: The Open Source CFD Toolbox           |
|  \\    /   O peration     | Version:  v1912                                 |
|   \\  /    A nd           | Website:  www.openfoam.com                      |
|    \\/     M anipulation  |                                                 |
\*---------------------------------------------------------------------------*/
FoamFile
{
    version     2.0;
    format      ascii;
    class       volScalarField;
    location    "18";
    object      nut;
}
// * * * * * * * * * * * * * * * * * * * * * * * * * * * * * * * * * * * * * //

dimensions      [0 2 -1 0 0 0 0];


internalField   nonuniform List<scalar> 
20320
(
0.0347214
0.00759991
0.00766934
0.00773692
0.00780223
0.00786482
0.00792422
0.00797983
0.00803084
0.00807637
0.00811541
0.00814684
0.00816945
0.00818459
0.00823573
0.00873455
0.0112679
0.0168434
0.0232768
0.0252331
0.0352281
0.0352681
0.0354332
0.0356514
0.0359083
0.0361699
0.0363958
0.0365625
0.0366678
0.0367243
0.0367383
0.0367157
0.0365268
0.0354226
0.0328642
0.0411894
0.0746907
0.107258
0.110549
0.0710328
0.035348
0.0356204
0.0360988
0.0368041
0.0378279
0.0392574
0.0411639
0.0435837
0.0464945
0.0498012
0.0533165
0.0565832
0.0579764
0.0532025
0.0493296
0.0820444
0.142275
0.184954
0.180511
0.0990222
0.0355171
0.0360822
0.0368598
0.0378446
0.0391315
0.0408195
0.043016
0.0458406
0.049402
0.0537719
0.0588518
0.0637366
0.0645228
0.0563426
0.0680713
0.130362
0.206657
0.250932
0.234689
0.118689
0.0357219
0.0366638
0.0378161
0.0391505
0.0407501
0.0427126
0.04515
0.0481876
0.05198
0.0566551
0.062087
0.0667233
0.0647261
0.0586297
0.0950465
0.180979
0.265622
0.307356
0.278078
0.133453
0.0359537
0.0373456
0.0389452
0.040696
0.0426757
0.0449712
0.0476898
0.0509646
0.0549505
0.05977
0.0651225
0.0685139
0.0633915
0.0662331
0.127823
0.230414
0.318916
0.356248
0.314115
0.145161
0.0362021
0.0380985
0.040196
0.0424169
0.04483
0.0475077
0.0505541
0.0541026
0.0582953
0.0632161
0.0682636
0.0698964
0.0628847
0.0795348
0.163183
0.277097
0.367016
0.399264
0.345012
0.154899
0.0364561
0.0388896
0.0415154
0.0442473
0.0471314
0.0502394
0.0536601
0.0575161
0.0619471
0.0669467
0.0715184
0.0711853
0.0644151
0.0970741
0.198807
0.320488
0.410602
0.437722
0.372267
0.16335
0.0367042
0.0396829
0.0428488
0.0461093
0.0494954
0.0530746
0.0569127
0.0611235
0.0658319
0.0708962
0.0748727
0.0726235
0.0683518
0.117128
0.233271
0.360535
0.450383
0.472704
0.396989
0.170986
0.0369348
0.0404425
0.0441378
0.0479238
0.0518348
0.0559125
0.0602147
0.0648406
0.0698687
0.0750023
0.0783293
0.0744359
0.0744712
0.138174
0.265755
0.397395
0.487035
0.505135
0.420075
0.178179
0.037137
0.0411343
0.0453229
0.0496163
0.0540556
0.0586513
0.0634682
0.0685728
0.0739743
0.07921
0.0819031
0.0767991
0.0822232
0.158993
0.295787
0.431313
0.521207
0.535871
0.442335
0.185257
0.0373017
0.0417265
0.0463496
0.0511162
0.0560639
0.0611935
0.0665706
0.0722163
0.078064
0.083465
0.0856114
0.079807
0.0909302
0.178641
0.323091
0.462572
0.55355
0.565775
0.464599
0.192564
0.0374216
0.042192
0.0471736
0.0523584
0.0577756
0.0634458
0.0694148
0.075664
0.0820483
0.087707
0.0894643
0.0834592
0.0999148
0.196407
0.347505
0.491493
0.584781
0.595826
0.487832
0.200508
0.0374921
0.0425107
0.0477611
0.0532873
0.0591204
0.0653185
0.0718925
0.0788047
0.0858237
0.09186
0.0934505
0.0876696
0.108567
0.211741
0.368908
0.518425
0.615738
0.627248
0.513296
0.209655
0.0375113
0.0426708
0.0480901
0.0538632
0.0600441
0.0667295
0.0738998
0.0815214
0.0892672
0.0958224
0.0975208
0.0922862
0.116384
0.224211
0.387191
0.543756
0.647481
0.661729
0.542833
0.220855
0.0374799
0.0426699
0.0481517
0.0540658
0.0605099
0.0676112
0.0753427
0.083692
0.0922342
0.0994576
0.101568
0.0971088
0.122979
0.233469
0.40221
0.567908
0.681418
0.701771
0.579424
0.235575
0.0374016
0.0425144
0.047951
0.0538952
0.0605015
0.0679182
0.0761423
0.0851935
0.0945609
0.102586
0.105411
0.101891
0.128073
0.239196
0.413695
0.591228
0.719361
0.751207
0.628226
0.256705
0.0372825
0.0422186
0.0475074
0.0533715
0.0600259
0.067633
0.0762431
0.0859137
0.0960738
0.104983
0.108776
0.106328
0.131455
0.241043
0.421085
0.613666
0.763259
0.815618
0.698422
0.290642
0.0371307
0.041804
0.0468528
0.0525334
0.0591154
0.0667714
0.0756237
0.085769
0.0966105
0.106397
0.111313
0.110036
0.132946
0.238574
0.423274
0.634043
0.813849
0.901032
0.804169
0.352442
0.0369555
0.0412971
0.0460293
0.0514346
0.0578261
0.0653834
0.0743054
0.0847246
0.0960503
0.10659
0.112626
0.112561
0.13238
0.231265
0.418355
0.648799
0.866951
1.00596
0.952997
0.468365
0.0751125
0.047481
0.0535395
0.0572408
0.0567721
0.0566626
0.0565132
0.058746
0.0656377
0.0802042
0.105228
0.13834
0.171234
0.19547
0.21863
0.246847
0.273067
0.292121
0.304415
0.266601
0.236963
0.214942
0.197234
0.182122
0.168913
0.157357
0.147323
0.138635
0.131126
0.124682
0.119086
0.11417
0.109817
0.105938
0.102465
0.0993423
0.0965179
0.0939624
0.0916325
0.0895009
0.0875547
0.0857645
0.0841125
0.0825919
0.0811792
0.0798645
0.0786379
0.0774897
0.0764106
0.0753945
0.0744343
0.0735345
0.0726818
0.0718708
0.0711107
0.0703992
0.0697409
0.0691382
0.0685971
0.0681232
0.0940502
0.815058
0.993455
1.10072
1.114
1.09387
1.03388
0.955549
0.904736
0.940377
1.14136
1.57577
2.21409
2.80194
3.11015
3.5757
4.17424
4.44686
4.26148
3.80168
3.32661
2.95793
2.6634
2.41431
2.20198
2.0246
1.87921
1.76104
1.66482
1.58499
1.51834
1.46207
1.41414
1.37303
1.33761
1.3069
1.28011
1.25661
1.2359
1.2176
1.20141
1.18703
1.1742
1.16268
1.1522
1.14259
1.13375
1.12556
1.11782
1.11047
1.10368
1.09753
1.09184
1.0864
1.08157
1.07787
1.07527
1.07366
1.07353
1.0753
0.103554
1.31924
1.74059
1.94765
2.01099
1.9797
1.88484
1.74958
1.63572
1.62971
1.83163
2.35215
3.22414
4.31943
4.918
5.37635
6.15302
6.69868
5.93961
5.35488
4.81279
4.38643
4.03927
3.73717
3.47355
3.24952
3.06254
2.90724
2.77795
2.66921
2.57716
2.49912
2.43279
2.3764
2.32855
2.28798
2.25357
2.22438
2.19962
2.17866
2.16094
2.14595
2.13325
2.12239
2.11298
2.10472
2.09744
2.09095
2.085
2.07952
2.07472
2.07086
2.06782
2.06531
2.06384
2.06429
2.06676
2.07111
2.07805
2.08849
0.110677
1.6072
2.26044
2.5592
2.67539
2.66742
2.57466
2.43476
2.30381
2.2695
2.43007
2.89101
3.7098
4.80078
5.85823
6.29215
6.98717
7.39845
6.38727
5.66944
5.1755
4.83867
4.57958
4.34856
4.14069
3.95964
3.80331
3.66768
3.54972
3.44702
3.35742
3.28017
3.21403
3.15784
3.11052
3.07099
3.03817
3.01108
2.98886
2.97074
2.95606
2.9442
2.93461
2.92678
2.92026
2.91473
2.91006
2.90611
2.90265
2.89959
2.89729
2.8962
2.89629
2.89715
2.89935
2.9041
2.9116
2.92155
2.93487
2.95292
0.116685
1.7999
2.63327
3.01715
3.18097
3.20612
3.136
3.01238
2.888
2.84521
2.98342
3.39628
4.14472
5.15434
6.16023
6.77964
7.3457
7.30096
6.26764
5.45643
4.97944
4.75912
4.65005
4.55832
4.46725
4.3786
4.29137
4.20607
4.12495
4.04999
3.98202
3.92156
3.86921
3.82469
3.78751
3.75697
3.73222
3.71242
3.69676
3.68452
3.675
3.66759
3.66177
3.65707
3.65308
3.64961
3.64665
3.64421
3.64213
3.64042
3.63956
3.64018
3.6423
3.64528
3.64974
3.65723
3.66802
3.68163
3.69914
3.7224
0.121774
1.94799
2.91662
3.3734
3.57754
3.63095
3.58447
3.47623
3.35485
3.29856
3.4111
3.79429
4.51434
5.53716
6.40914
7.05274
7.42463
6.96018
5.90351
5.06557
4.5975
4.4829
4.54108
4.61349
4.6566
4.67172
4.6626
4.63704
4.60289
4.56589
4.52955
4.49579
4.46563
4.43957
4.41795
4.40064
4.38709
4.37672
4.3689
4.36302
4.35851
4.35488
4.35174
4.34878
4.34576
4.34271
4.33988
4.3375
4.33545
4.33393
4.33346
4.33465
4.33749
4.34113
4.3463
4.35488
4.36725
4.38263
4.40245
4.42894
0.125332
2.06817
3.14531
3.66333
3.89986
3.97201
3.9372
3.83256
3.69695
3.59986
3.65136
3.98049
4.69061
5.78721
6.76225
7.23415
7.45829
6.62915
5.52635
4.67412
4.24214
4.24801
4.48726
4.71154
4.85998
4.95824
5.01442
5.04378
5.0563
5.05901
5.05636
5.05116
5.04511
5.03916
5.03399
5.02985
5.02658
5.02417
5.02238
5.02077
5.01901
5.01681
5.014
5.01054
5.00644
5.00201
4.99795
4.9948
4.99219
4.99042
4.9899
4.99085
4.99325
4.99625
5.00104
5.00975
5.02255
5.03855
5.05977
5.08849
0.12698
2.16125
3.33791
3.91121
4.17382
4.25573
4.21916
4.10055
3.93329
3.77362
3.74247
4.01343
4.73435
5.89831
7.03767
7.43554
7.6486
6.40478
5.21786
4.35388
3.99775
4.17279
4.61924
4.94397
5.14213
5.29365
5.40317
5.4814
5.53574
5.57287
5.5981
5.61529
5.62709
5.6352
5.64078
5.64465
5.64703
5.64813
5.64798
5.64658
5.64385
5.63979
5.63445
5.62806
5.62095
5.61382
5.60799
5.60478
5.60411
5.6043
5.6048
5.60605
5.60795
5.60991
5.61429
5.62331
5.63656
5.65305
5.6759
5.70701
0.130067
2.21249
3.50618
4.13448
4.41954
4.50496
4.45674
4.31052
4.09849
3.87799
3.78704
4.05454
4.83738
6.05982
7.31249
7.79195
7.82797
6.22522
4.94328
4.09715
3.88002
4.28907
4.93633
5.26759
5.52838
5.73038
5.88143
5.99127
6.06949
6.12462
6.16334
6.19048
6.20934
6.22214
6.23044
6.23524
6.23708
6.23634
6.23326
6.22801
6.22079
6.21179
6.20135
6.18993
6.17816
6.16709
6.15837
6.1533
6.15095
6.14994
6.1502
6.15114
6.15227
6.15413
6.1591
6.16898
6.18315
6.20116
6.2261
6.25903
0.140647
2.2262
3.66019
4.34718
4.65315
4.73898
4.674
4.49348
4.23361
3.97064
3.88011
4.22214
5.12664
6.47432
7.95835
8.50581
7.74579
5.98883
4.65692
3.89027
3.89849
4.58868
5.31324
5.75415
6.0623
6.28532
6.44574
6.56032
6.64087
6.6968
6.73529
6.76135
6.77839
6.78863
6.79366
6.79449
6.79168
6.78567
6.77679
6.76535
6.75171
6.73627
6.71952
6.70214
6.68498
6.66928
6.65658
6.64774
6.6416
6.63729
6.63499
6.63388
6.63365
6.63543
6.64105
6.65165
6.66675
6.68644
6.71317
6.74691
0.159713
2.36759
3.82346
4.56187
4.88777
4.97339
4.8912
4.67627
4.37381
4.09211
4.05854
4.53607
5.59502
7.10759
8.5975
9.14562
7.56642
5.67525
4.35024
3.74975
4.07898
5.05603
5.86892
6.36522
6.68891
6.90481
7.05019
7.14884
7.21539
7.25962
7.28831
7.30599
7.31557
7.31893
7.31732
7.31157
7.30211
7.28925
7.27337
7.25491
7.23433
7.21215
7.189
7.16571
7.14325
7.12288
7.10586
7.09269
7.08241
7.07437
7.06863
7.06474
7.06284
7.06414
7.06995
7.08084
7.09653
7.11737
7.14504
7.17853
0.163871
2.57275
4.01946
4.78958
5.13364
5.22004
5.12422
4.88085
4.54623
4.26684
4.32146
4.95678
6.18623
7.95893
9.22968
9.55155
7.13132
5.26945
4.04553
3.72116
4.45154
5.66501
6.52068
7.02932
7.33942
7.52919
7.64544
7.71678
7.76007
7.78537
7.79884
7.80419
7.80356
7.79816
7.78873
7.77571
7.75932
7.7397
7.71701
7.69194
7.66498
7.63674
7.60797
7.57954
7.5525
7.52799
7.50703
7.48988
7.47583
7.4643
7.45526
7.44866
7.44501
7.44548
7.45093
7.46161
7.47732
7.49847
7.52605
7.55834
0.167834
2.75011
4.25172
5.03965
5.39817
5.48722
5.38413
5.1243
4.77206
4.5054
4.64565
5.43504
6.84503
8.99578
9.90456
9.14584
6.62743
4.81376
3.7961
3.86831
5.02611
6.36715
7.21074
7.69803
7.97077
8.11923
8.19704
8.23508
8.25075
8.25376
8.24954
8.24089
8.22912
8.21466
8.19762
8.17793
8.15549
8.13027
8.10223
8.07183
8.03986
8.00697
7.97396
7.94173
7.91128
7.88363
7.85957
7.83925
7.82216
7.80779
7.79605
7.78717
7.78191
7.7813
7.78593
7.79584
7.81091
7.83143
7.8579
7.88822
0.17805
2.94864
4.5212
5.32159
5.68806
5.78034
5.67798
5.41822
5.0677
4.8187
5.01429
5.91689
7.4948
9.46175
10.4084
8.36917
5.99726
4.3573
3.67882
4.25441
5.77623
7.10565
7.90335
8.34089
8.55839
8.65366
8.68555
8.68616
8.67205
8.65162
8.62903
8.60611
8.58333
8.56038
8.53667
8.51159
8.48466
8.45556
8.42418
8.39059
8.35552
8.31985
8.28438
8.24999
8.21761
8.18812
8.16212
8.13971
8.12051
8.1041
8.09042
8.07983
8.07318
8.07134
8.07474
8.08336
8.09708
8.11609
8.14055
8.16827
0.192113
3.16778
4.82466
5.64132
6.01093
6.10547
6.01072
5.76617
5.43881
5.21582
5.43131
6.37754
8.03296
9.67106
10.0778
7.47719
5.3178
3.97644
3.787
4.91379
6.63528
7.86081
8.57315
8.93766
9.0877
9.12189
9.10207
9.06154
9.01587
8.97147
8.93067
8.89396
8.86086
8.83035
8.8012
8.77228
8.74264
8.71166
8.67902
8.64469
8.60893
8.57258
8.53664
8.50192
8.46924
8.43936
8.41272
8.3894
8.36912
8.35156
8.33669
8.32496
8.31714
8.31398
8.31583
8.32267
8.33441
8.35115
8.3729
8.39757
0.214567
3.40689
5.16147
6.00192
6.37534
6.47253
6.39001
6.1678
5.87622
5.69684
5.91704
6.85204
8.52839
9.75371
9.0681
6.47594
4.65056
3.78594
4.21017
5.82046
7.52936
8.60026
9.19834
9.47389
9.54955
9.51888
9.44387
9.35899
9.27962
9.21039
9.15145
9.10152
9.05894
9.02189
8.98857
8.95731
8.92672
8.89582
8.86401
8.83107
8.7971
8.76252
8.72811
8.69491
8.66361
8.63481
8.60887
8.58585
8.56554
8.5477
8.53237
8.51998
8.51122
8.50673
8.50682
8.51151
8.52076
8.53467
8.55325
8.57465
0.233295
3.65218
5.52627
6.40119
6.7863
6.89201
6.83766
6.60244
6.35073
6.24397
6.48431
7.37884
8.64542
9.61099
7.7087
5.5224
4.18319
3.92617
4.98675
6.87712
8.40109
9.2934
9.7602
9.93905
9.93826
9.84252
9.71133
9.58002
9.46458
9.36891
9.29122
9.22819
9.17669
9.13394
9.09749
9.06517
9.03516
9.00608
8.977
8.94743
8.91723
8.88662
8.85604
8.82615
8.79782
8.77156
8.74763
8.72608
8.70675
8.68949
8.67437
8.66178
8.65232
8.64657
8.64482
8.64716
8.65366
8.66446
8.67967
8.69779
0.235933
3.92664
5.91222
6.82913
7.23822
7.36669
7.30818
7.01748
6.79917
6.77881
7.04649
7.69251
8.54426
8.76689
6.56729
4.88078
4.09767
4.48224
6.05355
7.95648
9.21084
9.91218
10.244
10.326
10.2508
10.0924
9.90632
9.7278
9.57425
9.44993
9.35193
9.27509
9.21458
9.16644
9.12748
9.095
9.06673
9.04086
9.01608
8.99156
8.96688
8.94197
8.91703
8.89245
8.86869
8.84633
8.82567
8.80671
8.78934
8.77347
8.7592
8.74689
8.73708
8.73026
8.72678
8.72683
8.73058
8.73829
8.75024
8.76529
0.248181
4.1965
6.28944
7.23317
7.66299
7.78492
7.66452
7.43043
7.28375
7.30794
7.54206
8.05289
8.598
7.72222
5.83124
4.67924
4.45937
5.41345
7.25447
8.93754
9.91932
10.4361
10.64
10.6309
10.4862
10.2696
10.0313
9.80614
9.61302
9.45758
9.33691
9.24455
9.17402
9.12006
9.07857
9.04625
9.02036
8.99864
8.97933
8.96121
8.94347
8.92574
8.90792
8.89012
8.8726
8.85562
8.83939
8.82409
8.80964
8.79599
8.78327
8.7718
8.76208
8.75459
8.74974
8.74781
8.74912
8.75408
8.76317
8.77557
0.259427
4.35873
6.56077
7.54642
7.99744
8.13745
8.06901
7.95449
7.93156
8.05721
8.32648
8.69754
8.67614
7.08424
5.63405
4.92201
5.19719
6.56247
8.40754
9.76343
10.5014
10.8535
10.9434
10.8528
10.6455
10.376
10.0892
9.81882
9.58531
9.39638
9.25012
9.1396
9.05703
8.99584
8.95097
8.91845
8.895
8.87784
8.86475
8.85398
8.84433
8.83499
8.82553
8.81578
8.80575
8.79549
8.7851
8.77458
8.76401
8.75344
8.74302
8.73308
8.7241
8.71656
8.71094
8.70765
8.70715
8.71002
8.71694
8.7273
0.263918
4.38374
6.69856
7.75819
8.26055
8.4905
8.5675
8.61778
8.74455
8.99368
9.30628
9.43958
8.69994
6.97444
5.82279
5.46675
6.15219
7.73112
9.39082
10.4159
10.9481
11.1615
11.1546
10.9937
10.7316
10.4147
10.0832
9.76945
9.49524
9.27063
9.09553
8.96344
8.86584
8.79503
8.74502
8.71113
8.68951
8.67682
8.67024
8.66746
8.66673
8.66679
8.66679
8.66623
8.66483
8.66245
8.65904
8.65455
8.649
8.64247
8.63524
8.62768
8.62027
8.61354
8.60803
8.60428
8.6029
8.60464
8.6103
8.61938
0.2607
4.30311
6.71088
7.86183
8.44627
8.79314
9.04273
9.26964
9.52587
9.85288
10.1198
9.94
8.61403
7.07321
6.15602
6.13141
7.14752
8.75911
10.1348
10.8963
11.2629
11.3643
11.2779
11.0579
10.7484
10.3893
10.0167
9.66154
9.34651
9.08419
8.87687
8.71927
8.60278
8.51901
8.46118
8.42397
8.40293
8.39408
8.39392
8.39946
8.40828
8.41858
8.42901
8.43867
8.44699
8.45359
8.45826
8.4609
8.46149
8.46017
8.4572
8.45303
8.44822
8.44337
8.4391
8.43606
8.43501
8.43683
8.44235
8.451
0.249902
4.13668
6.60505
7.8525
8.52906
8.98238
9.36804
9.72785
10.0602
10.3636
10.477
9.94816
8.40137
7.07001
6.43026
6.78042
8.04604
9.56397
10.6529
11.2187
11.4582
11.4713
11.3206
11.0513
10.7009
10.3041
9.89345
9.49838
9.14242
8.84042
8.59737
8.40988
8.26998
8.16908
8.09993
8.05671
8.03442
8.02837
8.03424
8.04819
8.06705
8.0883
8.11004
8.13091
8.14997
8.16662
8.18047
8.19133
8.19918
8.20418
8.20666
8.2071
8.20612
8.20441
8.20271
8.20178
8.20247
8.20575
8.21239
8.22152
0.231422
3.87779
6.38255
7.72664
8.48915
9.01791
9.47538
9.89599
10.2272
10.4237
10.2992
9.40314
7.89299
6.8399
6.59486
7.36272
8.77869
10.149
10.9898
11.4101
11.5515
11.4947
11.2917
10.9809
10.5947
10.1636
9.7171
9.28327
8.88606
8.54234
8.25993
8.03786
7.8695
7.74663
7.66198
7.6095
7.58369
7.57908
7.59038
7.61275
7.64201
7.67483
7.70868
7.74165
7.77242
7.80011
7.82418
7.84435
7.86059
7.87308
7.88221
7.88854
7.89275
7.8956
7.89794
7.90065
7.90466
7.91092
7.92
7.93054
0.210401
3.43288
6.02465
7.47977
8.3197
8.88943
9.35519
9.73518
9.99403
10.0857
9.68426
8.42918
7.15958
6.47722
6.7314
7.88395
9.34132
10.532
11.1901
11.497
11.5609
11.4474
11.2006
10.8537
10.4352
9.97214
9.49138
9.01941
8.58027
8.19264
7.86711
7.60552
7.40322
7.25305
7.14822
7.08283
7.05097
7.04633
7.06241
7.09309
7.13307
7.17804
7.22468
7.27052
7.31385
7.35348
7.38872
7.41921
7.44492
7.46607
7.4831
7.49663
7.50744
7.51636
7.52431
7.53226
7.54119
7.55199
7.56487
7.57772
0.180753
2.76429
5.46374
7.09939
8.02369
8.604
9.01321
9.27245
9.44318
9.39028
8.67906
7.34371
6.36757
6.15847
6.94167
8.35791
9.76669
10.7661
11.2878
11.5037
11.5031
11.3412
11.056
10.6765
10.2279
9.73417
9.21986
8.70983
8.22785
7.79398
7.42145
7.11518
6.87312
6.68992
6.55993
6.47778
6.43732
6.4312
6.45145
6.49041
6.54138
6.59894
6.65892
6.71825
6.77478
6.82709
6.8743
6.91601
6.95217
6.98306
7.00919
7.03125
7.05007
7.06658
7.08176
7.09659
7.11206
7.12887
7.1468
7.16283
0.162141
2.03334
4.70288
6.57599
7.60956
8.17404
8.47633
8.59911
8.65701
8.3963
7.41083
6.25959
5.67498
6.02464
7.26416
8.7891
10.103
10.907
11.3128
11.4494
11.3916
11.1861
10.8654
10.4551
9.97735
9.45355
8.90587
8.3575
7.83158
7.34903
6.92549
6.5692
6.28135
6.05914
5.89882
5.79608
5.74461
5.7358
5.7598
5.80704
5.86922
5.93966
6.01331
6.0865
6.15666
6.22213
6.2819
6.33552
6.38298
6.42458
6.46091
6.49273
6.52095
6.54653
6.57049
6.59383
6.6174
6.64166
6.66576
6.68568
0.17829
1.84839
4.04239
5.99596
7.11184
7.63009
7.79101
7.78419
7.70397
7.20661
6.11739
5.28812
5.21201
6.13558
7.67302
9.18023
10.3431
10.9829
11.2833
11.3476
11.2366
10.9897
10.6348
10.1943
9.68759
9.13364
8.55237
7.96516
7.39409
6.86047
6.38201
5.97032
5.63042
5.36301
5.16716
5.04018
4.97569
4.96336
4.99092
5.04652
5.11999
5.20337
5.29072
5.3778
5.46169
5.54049
5.61314
5.67915
5.73852
5.79163
5.83913
5.88183
5.9207
5.95675
5.99096
6.02429
6.05745
6.09047
6.12179
6.14624
0.195776
2.01942
3.73241
5.51589
6.59412
7.00882
7.01549
6.89605
6.66531
5.91211
4.97382
4.55632
5.06893
6.4705
8.12245
9.53876
10.5064
11.0064
11.2114
11.2073
11.0449
10.7574
10.3686
9.89778
9.36173
8.77724
8.16201
7.53538
6.91812
6.33132
5.79425
5.32187
4.92361
4.60476
4.36832
4.21392
4.135
4.11885
4.15008
4.21404
4.29863
4.39461
4.49524
4.5958
4.69309
4.78505
4.87056
4.94913
5.02079
5.08598
5.1454
5.19992
5.25052
5.29823
5.34402
5.38871
5.43277
5.47575
5.51524
5.54482
0.2005
2.26738
3.71193
5.19725
6.10091
6.3547
6.21694
6.01245
5.63952
4.7417
4.08713
4.1706
5.26582
6.95916
8.57635
9.86001
10.6147
10.9869
11.1028
11.0332
10.8204
10.4926
10.0697
9.56801
9.00215
8.38665
7.73703
7.07061
6.40643
5.76479
5.16592
4.62795
4.16512
3.7888
3.50729
3.32332
3.22963
3.21006
3.24512
3.31716
3.41211
3.51967
3.63249
3.7455
3.85529
3.95976
4.05769
4.14864
4.23266
4.31021
4.38203
4.44903
4.51221
4.57255
4.63099
4.68818
4.74429
4.79827
4.84675
4.88202
0.201693
2.49782
3.78698
4.96508
5.6223
5.7002
5.4619
5.23688
4.62457
3.8159
3.52588
4.1824
5.74498
7.51974
9.0156
10.0939
10.6714
10.9269
10.9594
10.8269
10.565
10.1969
9.73965
9.20672
8.61054
7.9636
7.27938
6.57305
5.8617
5.16429
4.50137
3.89406
3.36183
2.92283
2.59286
2.37885
2.27187
2.25023
2.28933
2.3683
2.47165
2.58844
2.71112
2.83444
2.95496
3.07055
3.17984
3.28245
3.37841
3.4682
3.55256
3.63235
3.70856
3.78217
3.85397
3.9245
3.99353
4.05937
4.1175
4.15886
0.197242
2.60012
3.81682
4.70228
5.11383
5.03038
4.81472
4.51491
3.69723
3.13899
3.3351
4.57643
6.39737
8.08455
9.4192
10.2591
10.6781
10.8259
10.7806
10.5884
10.2786
9.87089
9.37917
8.81473
8.18792
7.50934
6.79053
6.04458
5.28647
4.53393
3.80768
3.12971
2.52471
2.02012
1.64251
1.40391
1.29005
1.26958
1.31173
1.39376
1.50027
1.62082
1.74817
1.87725
2.00464
2.12807
2.24628
2.35869
2.46523
2.56634
2.66271
2.75497
2.84412
2.93099
3.01631
3.10046
3.18286
3.26106
3.32914
3.37635
0.187682
2.55365
3.69438
4.3391
4.53506
4.3835
4.26715
3.64764
2.9258
2.75206
3.56274
5.26546
7.10303
8.61067
9.74299
10.356
10.6345
10.6838
10.5656
10.3166
9.96086
9.51437
8.98855
8.39259
7.73512
7.02499
6.272
5.48721
4.68452
3.88066
3.09414
2.34802
1.67311
1.11189
0.711017
0.484819
0.392707
0.380687
0.416088
0.482935
0.57223
0.677364
0.7928
0.913923
1.03708
1.15963
1.27979
1.39659
1.50958
1.61879
1.72453
1.82729
1.9278
2.02665
2.12444
2.22147
2.31669
2.40696
2.48434
2.53431
0.179391
2.39578
3.39664
3.84645
3.90572
3.83679
3.5751
2.78038
2.36568
2.76989
4.21015
6.09837
7.76837
9.08223
9.95126
10.3822
10.5382
10.4992
10.3133
10.0108
9.61097
9.12685
8.56751
7.94038
7.25249
6.51123
5.72482
4.90355
4.06099
3.21116
2.37191
1.56906
0.849298
0.310555
0.0739001
0.0342427
0.0320455
0.0318874
0.0315692
0.0337845
0.0421699
0.060518
0.0924367
0.140356
0.204439
0.282562
0.371276
0.467091
0.567189
0.669728
0.773638
0.878246
0.983235
1.08844
1.1939
1.29955
1.40425
1.50402
1.58776
1.62762
0.174318
2.17492
2.96252
3.23253
3.29419
3.22327
2.58429
2.06486
2.18051
3.3112
5.13856
6.91496
8.34508
9.45452
10.0676
10.3432
10.3902
10.2709
10.0227
9.66988
9.22815
8.70773
8.11574
7.45799
6.74023
5.96857
5.15053
4.29735
3.42026
2.53305
1.65583
0.829872
0.192363
0.0328299
0.0438728
0.0448691
0.0454873
0.0460908
0.0466617
0.0471754
0.0476048
0.0478778
0.0478168
0.0470295
0.0447808
0.0403758
0.0347817
0.0314153
0.0338334
0.0445361
0.0660151
0.100866
0.150885
0.216243
0.295343
0.385379
0.482317
0.579424
0.661483
0.684437
0.168009
1.91974
2.47173
2.59289
2.57226
2.2745
1.74188
1.71242
2.59286
4.29382
6.10537
7.6148
8.828
9.67212
10.0961
10.2408
10.1915
9.99882
9.69292
9.29302
8.81156
8.25637
7.63279
6.94533
6.19851
5.39772
4.55216
3.67156
2.76723
1.85559
0.969674
0.23152
0.0331746
0.0428567
0.0432827
0.0437201
0.0441953
0.0446875
0.0451668
0.0456163
0.0460388
0.0464387
0.0468078
0.0471235
0.0473636
0.0475217
0.0476118
0.0476578
0.0476802
0.047677
0.0476108
0.0473854
0.0467754
0.0453008
0.0422698
0.0376538
0.0334961
0.0329174
0.0362748
0.0358536
0.164339
1.63235
1.95753
1.97559
1.78401
1.366
1.31736
2.04466
3.61135
5.39307
6.93109
8.17704
9.19595
9.78003
10.0433
10.0755
9.94144
9.68235
9.32316
8.87936
8.36044
7.7722
7.11839
6.40232
5.62766
4.80119
3.9319
3.0296
2.10817
1.19363
0.371697
0.0288901
0.0418923
0.0421823
0.0424581
0.0427858
0.0431534
0.0435449
0.0439331
0.0442994
0.0446442
0.0449747
0.0452897
0.0455714
0.0457955
0.0459481
0.0460378
0.0460884
0.0461278
0.0461763
0.0462439
0.0463375
0.0464654
0.04664
0.0468797
0.0472048
0.0476146
0.0479474
0.0475245
0.0447405
0.18808
1.2904
1.45961
1.34253
0.997143
0.984674
1.65428
3.11779
4.8235
6.33002
7.57203
8.63056
9.39882
9.78785
9.91366
9.84741
9.63851
9.31981
8.91197
8.42751
7.87368
7.25439
6.57204
5.82885
5.0289
4.18052
3.29215
2.37587
1.45287
0.580922
0.0482802
0.0410393
0.0415722
0.0416846
0.0418617
0.0420873
0.0423534
0.0426495
0.0429522
0.0432407
0.0435122
0.0437753
0.0440346
0.0442779
0.0444802
0.0446218
0.0447041
0.0447467
0.0447756
0.0448117
0.0448661
0.0449443
0.0450506
0.0451914
0.0453768
0.0456178
0.0459079
0.0461138
0.0456631
0.0430601
0.269814
1.01243
0.854428
0.644483
0.740066
1.44911
2.83771
4.42638
5.84292
7.03412
8.06688
8.96791
9.47997
9.70198
9.70913
9.55633
9.28115
8.90935
8.45764
7.9361
7.35018
6.70233
5.99357
5.22551
4.40454
3.53817
2.63676
1.71791
0.823181
0.131953
0.0382538
0.0414061
0.0413578
0.0413846
0.0414722
0.0416041
0.0417744
0.0419789
0.0421991
0.0424123
0.0426118
0.0428067
0.0430075
0.0432071
0.0433813
0.0435061
0.0435767
0.0436081
0.0436239
0.0436442
0.0436807
0.0437386
0.0438202
0.0439274
0.0440635
0.0442323
0.0444253
0.0445412
0.0441217
0.0418202
0.1902
0.334672
0.365257
0.700641
1.5486
2.82875
4.21868
5.48788
6.5847
7.55766
8.47439
9.12751
9.44474
9.52452
9.42955
9.20117
8.86773
8.44902
7.95824
7.40333
6.78847
6.11505
5.3828
4.59483
3.7567
2.87758
1.97215
1.07104
0.285774
0.0298491
0.0415554
0.0413879
0.0412648
0.0412148
0.0412225
0.0412706
0.0413533
0.041472
0.0416143
0.0417568
0.0418875
0.0420153
0.0421562
0.042309
0.0424506
0.042554
0.0426095
0.042628
0.04263
0.0426341
0.0426511
0.0426865
0.042742
0.0428171
0.0429109
0.0430227
0.0431444
0.0432052
0.0428484
0.0408645
0.0367667
0.0407275
0.0450851
0.0501393
0.0562338
0.0635505
0.072357
0.0828113
0.0943482
0.105387
0.112352
0.113421
0.129636
0.2187
0.403726
0.651021
0.908355
1.10529
1.11189
0.707129
0.0365678
0.0401185
0.0440587
0.048699
0.0544006
0.0613442
0.069849
0.0800822
0.0915063
0.10268
0.110207
0.112161
0.124605
0.200681
0.376592
0.631808
0.91667
1.15607
1.21554
0.943677
0.0363654
0.0394814
0.0429712
0.0471462
0.0523721
0.0588242
0.0668519
0.0766102
0.0875726
0.0984349
0.106003
0.108382
0.117203
0.177751
0.335614
0.58513
0.879646
1.14362
1.26079
1.10131
0.0361671
0.038841
0.0418642
0.0455407
0.0502277
0.0560944
0.0634993
0.0725642
0.0827452
0.0928331
0.099852
0.102005
0.107608
0.151997
0.283617
0.512884
0.800826
1.07799
1.25216
1.22908
0.03598
0.0382212
0.0407796
0.0439451
0.0480522
0.0532703
0.0599465
0.068157
0.0773195
0.0862478
0.0921775
0.0934373
0.0962513
0.126213
0.227175
0.423665
0.691031
0.970261
1.18915
1.28206
0.0358097
0.0376427
0.0397542
0.0424151
0.0459251
0.0504666
0.0563474
0.0636022
0.0716166
0.0791392
0.0835891
0.083479
0.0838744
0.102797
0.174473
0.330632
0.565427
0.834304
1.07984
1.25291
0.0356605
0.037121
0.0388161
0.0409931
0.0439168
0.0477758
0.0528115
0.0590332
0.0657816
0.0716796
0.0743897
0.0728045
0.0714675
0.0835642
0.133259
0.251026
0.447568
0.69644
0.952579
1.17614
0.035536
0.0366659
0.0379803
0.0397021
0.0420606
0.0451939
0.0491867
0.0538218
0.0581604
0.0609277
0.0610198
0.0590005
0.0598857
0.0742162
0.119437
0.219973
0.391813
0.623745
0.884421
1.14276
0.0354403
0.0362812
0.0372384
0.0385043
0.0401174
0.041529
0.0411985
0.0375163
0.0321965
0.0305405
0.0363303
0.0518857
0.0812399
0.131674
0.214112
0.341176
0.520916
0.749865
1.01334
1.29358
0.0353789
0.0359447
0.0362948
0.0351714
0.0275606
0.0160812
0.0158461
0.0296818
0.0578685
0.0991789
0.151961
0.216161
0.29383
0.389165
0.508503
0.659632
0.84915
1.07838
1.34159
1.62928
0.0325877
0.0313382
0.0134369
0.0112692
0.0350864
0.0833647
0.144871
0.211876
0.282992
0.359234
0.442333
0.534443
0.638235
0.757175
0.895832
1.05982
1.2544
1.48201
1.74015
2.02275
0.012266
0.0173757
0.0844806
0.179044
0.266189
0.3446
0.420532
0.498672
0.581717
0.67137
0.769264
0.877116
0.996792
1.13065
1.28205
1.4561
1.65786
1.88624
2.1354
2.4009
0.380149
0.284376
0.399054
0.482218
0.552988
0.623981
0.700528
0.784254
0.875546
0.974908
1.08363
1.2028
1.3331
1.47509
1.63051
1.80746
2.0146
2.24211
2.48188
2.72908
0.831304
0.670639
0.697411
0.751165
0.813558
0.884249
0.963511
1.05121
1.14696
1.2515
1.36577
1.49029
1.62491
1.76847
1.91963
2.08926
2.29575
2.51676
2.74833
2.97622
0.909407
0.897795
0.928554
0.97568
1.03421
1.10116
1.17555
1.25812
1.34912
1.44927
1.55919
1.67885
1.80777
1.94449
2.08836
2.24696
2.42473
2.60813
2.79536
2.98115
0.906556
0.975396
1.03229
1.08844
1.14935
1.2158
1.28794
1.36596
1.45053
1.54249
1.6422
1.74946
1.86376
1.98456
2.11289
2.25216
2.40002
2.54818
2.69388
2.83628
0.812329
0.934577
1.01066
1.08409
1.15494
1.22615
1.29934
1.37545
1.45527
1.5395
1.62847
1.72216
1.82041
1.92327
2.03143
2.14542
2.26247
2.3775
2.48753
2.59203
0.658669
0.807509
0.893662
0.981679
1.06445
1.14318
1.21983
1.29581
1.37216
1.44959
1.52853
1.60917
1.6916
1.77599
1.86256
1.95086
2.0387
2.1228
2.20078
2.27173
0.476284
0.629763
0.7155
0.809976
0.900608
0.985089
1.0644
1.13988
1.21261
1.28335
1.3526
1.42067
1.48778
1.55408
1.61957
1.68366
1.7448
1.80084
1.84995
1.89118
0.292896
0.429046
0.504881
0.596629
0.687604
0.772383
0.850557
0.922912
0.990286
1.05333
1.11251
1.16812
1.22038
1.26939
1.3151
1.35705
1.39423
1.42525
1.44883
1.46415
0.13867
0.231011
0.288797
0.368034
0.449608
0.526713
0.597732
0.662588
0.721561
0.77495
0.822991
0.865846
0.903616
0.936346
0.963965
0.986187
1.00243
1.0119
1.01382
1.00767
0.0422399
0.0746345
0.108125
0.160777
0.219338
0.277803
0.333297
0.384453
0.430596
0.471368
0.50656
0.536035
0.559702
0.577496
0.589348
0.595136
0.594645
0.587603
0.573788
0.553171
0.00746504
0.0112479
0.0211948
0.0368375
0.0585928
0.0847778
0.113021
0.141177
0.167583
0.191034
0.210682
0.22595
0.236481
0.242093
0.24276
0.238585
0.229784
0.216696
0.199822
0.179874
0.00496192
0.0150857
0.0227281
0.0219863
0.0212555
0.0218751
0.0240978
0.0276048
0.0318295
0.0361405
0.039954
0.042808
0.044406
0.0446363
0.043567
0.0414228
0.0385448
0.0353421
0.0322419
0.0296418
0.0761488
0.088649
0.0976782
0.105431
0.111038
0.113819
0.114594
0.113871
0.11271
0.111665
0.110629
0.109958
0.110049
0.111468
0.115392
0.381788
0.380186
0.55532
0.70483
0.784776
0.836369
0.876453
0.909168
0.936687
0.962243
0.99086
1.0295
1.08774
1.17881
1.32036
0.772322
0.504962
0.50108
0.585913
0.678189
0.754828
0.826243
0.901094
0.983155
1.07676
1.1899
1.33554
1.53115
1.7958
2.14543
1.04851
0.851047
0.734663
0.70329
0.726494
0.787077
0.876356
0.989829
1.12998
1.30504
1.52758
1.81111
2.16393
2.58373
3.05922
1.23983
1.15058
1.0835
1.06027
1.08188
1.13913
1.23435
1.37428
1.56714
1.82148
2.14221
2.52531
2.95653
3.41678
3.89108
1.33555
1.35728
1.36713
1.39608
1.45815
1.55819
1.70443
1.90768
2.17382
2.50127
2.87918
3.28951
3.71353
4.1387
4.56198
1.35153
1.48234
1.58929
1.70334
1.84846
2.03378
2.26545
2.5459
2.87029
3.22708
3.60136
3.97975
4.35472
4.72605
5.09984
1.38839
1.61831
1.83402
2.058
2.30841
2.58337
2.883
3.20303
3.53575
3.87266
4.20763
4.53838
4.8673
5.20107
5.54933
1.58712
1.89154
2.19468
2.50557
2.82037
3.137
3.45365
3.76724
4.0754
4.37776
4.67689
4.97703
5.28522
5.61278
5.96438
1.94222
2.28004
2.62102
2.9561
3.28224
3.59806
3.90218
4.19505
4.48022
4.76291
5.05217
5.35746
5.66362
5.94069
6.18002
2.33256
2.66846
3.00307
3.32994
3.64545
3.94881
4.23987
4.52396
4.80856
5.10115
5.38031
5.62791
5.82129
5.96414
6.06361
2.68944
3.0069
3.3211
3.634
3.94237
4.24293
4.54722
4.82296
5.05845
5.28228
5.44707
5.57272
5.65213
5.69657
5.71311
2.99684
3.31935
3.61403
3.90844
4.18908
4.43741
4.67849
4.85936
5.00896
5.12236
5.19959
5.24688