/*--------------------------------*- C++ -*----------------------------------*\
| =========                 |                                                 |
| \\      /  F ield         | OpenFOAM: The Open Source CFD Toolbox           |
|  \\    /   O peration     | Version:  v1912                                 |
|   \\  /    A nd           | Website:  www.openfoam.com                      |
|    \\/     M anipulation  |                                                 |
\*---------------------------------------------------------------------------*/
FoamFile
{
    version     2.0;
    format      ascii;
    class       volScalarField;
    location    "18";
    object      p;
}
// * * * * * * * * * * * * * * * * * * * * * * * * * * * * * * * * * * * * * //

dimensions      [1 -1 -2 0 0 0 0];


internalField   nonuniform List<scalar> 
20320
(
416578
426836
426865
426919
426992
427083
427188
427305
427432
427567
427705
427844
427982
428116
428244
428364
428478
428590
428689
428726
396655
406572
406609
406665
406740
406831
406937
407056
407183
407318
407457
407598
407737
407872
408001
408120
408223
408313
408391
408449
377331
386935
386973
387030
387106
387198
387304
387423
387551
387686
387826
387966
388105
388241
388369
388480
388568
388643
388708
388771
358604
367910
367948
368004
368079
368171
368277
368395
368523
368658
368796
368935
369073
369208
369331
369429
369505
369570
369630
369698
340465
349478
349516
349572
349646
349736
349841
349958
350084
350217
350354
350491
350627
350759
350872
350958
351024
351083
351142
351216
322898
331626
331663
331718
331790
331879
331981
332096
332220
332350
332483
332618
332751
332877
332979
333054
333114
333168
333228
333307
305890
314340
314375
314428
314498
314584
314683
314794
314914
315039
315169
315299
315428
315546
315636
315701
315754
315806
315866
315950
289430
297608
297641
297692
297758
297840
297934
298039
298153
298273
298396
298519
298642
298750
298827
298882
298928
298975
299036
299126
273507
281416
281447
281494
281556
281632
281720
281818
281923
282034
282148
282262
282375
282469
282532
282574
282611
282653
282713
282808
258107
265755
265783
265826
265882
265950
266029
266117
266211
266310
266410
266512
266610
266686
266731
266757
266781
266814
266872
266972
243221
250611
250636
250673
250722
250781
250848
250923
251002
251084
251168
251250
251327
251380
251400
251404
251408
251428
251480
251584
228840
235977
235998
236028
236068
236115
236168
236226
236286
236347
236406
236463
236512
236532
236518
236489
236464
236462
236503
236609
214951
221842
221858
221880
221909
221942
221978
222015
222052
222085
222113
222135
222144
222120
222059
221981
221911
221874
221894
221998
201547
208194
208204
208218
208234
208251
208267
208280
208287
208286
208274
208250
208207
208123
207994
207844
207705
207609
207594
207686
188617
195026
195030
195034
195036
195035
195029
195014
194987
194944
194883
194801
194689
194524
194300
194044
193796
193605
193525
193587
176153
182328
182325
182318
182306
182286
182255
182209
182144
182054
181935
181781
181582
181311
180955
180542
180125
179771
179569
179562
164141
170088
170079
170062
170035
169994
169938
169859
169753
169611
169426
169188
168884
168480
167948
167310
166625
165990
165550
165374
152573
158297
158281
158254
158212
158152
158070
157959
157811
157615
157360
157030
156606
156043
155290
154343
153250
152121
151185
150582
141436
146943
146922
146885
146829
146751
146645
146503
146314
146067
145742
145318
144768
144033
143025
141689
140013
138053
136050
134245
130718
136015
135989
135943
135875
135780
135653
135483
135258
134963
134576
134066
133396
132496
131236
129478
127082
123881
119714
114399
91503.4
93188.2
92468.5
92045.2
91391.2
90897.4
90092.8
89034.6
87644.1
85422.1
81022.2
73145.7
61344.7
47074
35860.2
29735.3
28553.1
95391.9
311582
377337
334071
265469
198404
141986
99750.2
71015.9
52758.7
41676.8
35166.8
31410.1
29340.6
28241.4
27689.2
27449.1
27385.5
27415.3
27495.9
27605.3
27727.9
27857
27988.5
28118.4
28246.8
28374.1
28499.2
28624.3
28751.7
28884.1
29021.5
29160.4
29303
29456.6
29620.9
29781.1
29925.4
30055.6
30166
30223.8
30203.2
30118.2
86745.2
88626.3
88000.6
87129.3
86788.3
86202.1
85627.9
84873.9
83954.5
82739.9
80419.4
75865.8
70177.1
54980.5
34437.9
27598.1
23858.7
22121.2
177119
292538
286913
237902
180667
129571
90460.7
63600.6
46447.5
36009.1
29887.5
26324.9
24329.7
23260.8
22722.1
22484
22414.7
22437.1
22510.7
22613.8
22732.5
22858.3
22986.8
23114.7
23240.9
23366.2
23490.6
23615.2
23742.2
23874.6
24013.6
24156.7
24302.4
24455.9
24622.6
24791.7
24945.8
25080.9
25196.6
25264.5
25246.6
25135.6
81926.2
83533.3
83262
82457.9
82364.5
81628.4
80800.1
80111.4
79285.7
78314.4
76663.2
73237.4
68409.9
27622.2
26189.5
26128.3
26385.2
27701.3
130286
233247
244433
210157
161209
114709
78703.7
54181.9
38698.3
29360.9
23888
20750.2
18994.7
18048.3
17572.5
17364.5
17307.1
17331.4
17403.2
17503.4
17619.5
17743.4
17870.5
17997.7
18123.6
18249.1
18374.5
18500.1
18627.9
18762.6
18906.3
19054
19203
19359.4
19534.6
19715.5
19878.7
20022.5
20153.4
20237.9
20224.8
20082.1
76927.9
78413.2
78340.7
77709.2
77339.3
76791.5
75780
75037.2
74067.4
72855.9
70914.2
66647.3
44412.6
26525.2
26179.4
26084.7
26190.7
27351.1
114604
193675
206181
181326
138749
96108.3
63404.3
41953.5
28910.7
21295
16944.9
14500.3
13158.3
12447.9
12110.8
11982.6
11971.2
12019.9
12105.5
12214.1
12336.2
12465.1
12596.8
12728.1
12857.6
12987.1
13116.6
13244.5
13373.8
13513.5
13665.3
13818.5
13967.6
14126.5
14319.3
14516.5
14681.9
14834.7
14997.1
15108.2
15104.6
14949.6
71691.7
73269.7
72840.9
73225.7
72430.7
71912.9
71035.9
69892.2
68703.6
67062.8
64507.9
59288.2
38822.6
26218.4
26117.2
26017.5
26055.6
26413.8
101511
156909
168368
149533
111735
72594.5
43841.7
26469.5
16774.8
11579.4
8850.18
7437.17
6747.98
6429.81
6317.15
6329.81
6412.72
6512.51
6631.33
6763.09
6902.42
7045.24
7188.97
7330.18
7467.74
7605.82
7743.48
7875.5
8005.9
8152.88
8318.73
8478.98
8621.83
8778.95
9002.65
9223.5
9376.76
9533.45
9750.31
9900.25
9909.47
9776.01
66170.7
67909.1
67660.1
68395
67565.8
66985.2
66295.5
64926.4
63447.9
61404.5
58347.3
52788.2
38389
25897.2
25993.4
25940.5
25986.9
26276.2
85932.8
121420
131075
115201
80225.1
43531.5
18395.4
6869.77
2344.7
911.664
561.132
531.108
606.205
717.24
818.752
924.801
1039.23
1195.24
1318.54
1436.35
1552.77
1670.58
1792.33
1911.24
2023.53
2143.33
2269.64
2375.46
2480.45
2625.48
2820.45
2991.4
3094.02
3208.94
3536.45
3821.42
3899.47
4032.57
4421.13
4633.49
4627.11
4583.78
60359.8
62478.1
63088.4
63310.7
62706.2
62101.5
61369.1
60212.9
58378
56099.9
52796.7
47443.2
36687.1
25824.9
25870.2
25845.9
25898.8
26216.2
67738.5
90058.6
96171.7
80443.1
44914.5
7697.88
204.914
110.331
71.6076
44.4468
24.9189
9.71812
-2.1627
-11.5471
-18.9923
-24.6698
-29.0544
-32.952
-35.6395
-37.9636
-39.5098
-40.6339
-41.4791
-42.089
-42.4525
-42.6625
-42.8315
-42.7589
-42.6153
-42.5049
-40.6904
-35.6811
-30.2078
-20.2287
9.80303
44.2141
59.581
89.4067
189.03
274.162
266.06
290.954
54329.1
57007.7
58004.5
58227.7
57802.2
57247.8
56506.8
55346
53417
51164.3
47828.8
42842
34988
25241.7
25780.2
25715.5
25835.4
27320.7
49760.2
64115.6
65798.1
48289.3
6964.99
174.995
144.041
109.505
81.6368
55.9871
34.418
16.8227
2.69187
-8.56655
-17.5118
-24.5798
-30.1676
-34.6458
-38.1736
-41.0103
-42.9277
-44.5293
-45.8111
-46.8164
-47.5849
-48.1709
-48.6269
-48.9683
-49.3144
-50.1077
-51.0014
-50.2123
-49.177
-48.7866
-48.4063
-47.9746
-47.4865
-47.0782
-47.0986
-47.1988
-47.1962
-47.4358
49457.3
51790.7
53548.8
53211
52858.4
52398.6
51738.9
50611.2
48793.6
46511.3
43291.6
38604.4
32033
25220.1
25175.7
25463.4
25961.7
26978.8
36782
43850.2
41460.2
16966.6
195.583
145.573
120.79
89.5095
64.4738
42.2993
23.4295
7.74122
-5.10883
-15.5343
-23.942
-30.6757
-36.0509
-40.3664
-43.7653
-46.4406
-48.5817
-50.2459
-51.5415
-52.5406
-53.2953
-53.861
-54.2897
-54.6087
-54.9044
-55.3555
-55.7978
-55.4453
-54.7561
-54.2444
-53.7591
-53.2348
-52.7034
-52.2491
-52.1138
-52.1437
-52.1668
-52.4048
46106
46453.4
48274.8
48167
47899.7
47534.9
47050.7
46068.4
44288
42072.5
39113.3
34579
28507
24396.9
23939.2
24998.6
24835.1
24503.4
27225.3
28802.9
22642.5
867.302
115.681
119.684
92.6679
68.8957
47.9727
29.1769
12.7674
-1.19871
-12.8819
-22.5333
-30.4339
-36.8516
-42.036
-46.2201
-49.5634
-52.2253
-54.3365
-56
-57.3029
-58.312
-59.0792
-59.6569
-60.0889
-60.4115
-60.6845
-60.996
-61.2547
-61.0866
-60.6437
-60.1997
-59.7298
-59.2195
-58.7049
-58.2571
-58.0029
-57.8889
-57.8411
-57.9713
42795.9
42587.2
43037.3
43633.4
42989.8
42603.5
42447.9
41683.6
40258.8
38217.6
35129.9
30820.7
25700.3
23035
23600.4
24357.9
24538.3
20711.8
20167.3
18042.7
7735.89
140.63
84.5192
81.0494
64.6251
47.2222
30.3939
14.7959
0.835312
-11.3165
-21.692
-30.4175
-37.6687
-43.6401
-48.5227
-52.4961
-55.7029
-58.278
-60.337
-61.9686
-63.2526
-64.2499
-65.0093
-65.5816
-66.0069
-66.317
-66.5557
-66.773
-66.9255
-66.8364
-66.5406
-66.1708
-65.7456
-65.2654
-64.7657
-64.3107
-63.9754
-63.7484
-63.6067
-63.6053
38926.8
42524.5
42495.6
39673.9
38205
37677
37887.3
37285
36241.4
34121.6
31480.7
27235
22900.5
21552.7
22628.1
24255.1
21658.3
17659.5
14860.8
10400.1
887.81
25.2252
48.6118
47.2542
38.108
25.7853
12.681
-0.0174505
-11.7021
-22.1089
-31.1737
-38.927
-45.4638
-50.9168
-55.4286
-59.135
-62.1548
-64.6009
-66.5713
-68.1432
-69.385
-70.3527
-71.0904
-71.6456
-72.0546
-72.346
-72.5536
-72.7093
-72.7958
-72.7311
-72.5155
-72.2054
-71.8185
-71.3666
-70.8831
-70.4178
-70.0206
-69.7029
-69.4655
-69.3344
33714
39802.4
39324
35340.6
33410
33057.5
33677.1
32936.1
32332.6
31025.5
28202.1
23856.2
19881.1
20226
21517.3
21282.2
18581.1
14763.4
10760.5
4797.71
61.1507
5.31186
17.0191
18.7208
13.8645
5.36012
-4.64167
-14.8193
-24.4743
-33.2815
-41.1002
-47.894
-53.6995
-58.6016
-62.7021
-66.1031
-68.8991
-71.1826
-73.0352
-74.5228
-75.7035
-76.6254
-77.3291
-77.8568
-78.2429
-78.5112
-78.689
-78.8001
-78.8419
-78.7784
-78.6
-78.3269
-77.9709
-77.5441
-77.0734
-76.5967
-76.1525
-75.7608
-75.4326
-75.1827
27843.6
31907.2
32102.3
30231.1
28445.7
28739.9
28728.2
28788.2
28651.7
27456.7
24980.3
21430.5
19100.9
19819.9
20506
20976.7
15957.3
12222.1
7416.44
1076.52
-28.324
-17.1195
-8.33059
-5.54624
-7.91419
-13.7098
-21.2421
-29.3024
-37.2056
-44.5921
-51.2681
-57.1559
-62.2505
-66.5998
-70.2744
-73.3505
-75.9016
-78.0005
-79.7146
-81.0998
-82.2035
-83.0671
-83.7267
-84.2192
-84.5754
-84.8181
-84.9678
-85.0438
-85.0509
-84.9763
-84.8094
-84.5556
-84.2191
-83.809
-83.3471
-82.8602
-82.378
-81.9243
-81.5151
-81.1567
21650.3
25256.7
25353.7
24376.8
22962.5
21779.3
23494.4
23810
24560.1
23985.9
22078.6
19948.7
18216.5
19019.2
20249
18377.3
14018.8
9843.27
4480.6
24.9267
-51.7885
-36.2038
-29.3512
-26.3836
-27.3895
-31.3179
-36.9434
-43.2808
-49.7121
-55.8642
-61.5201
-66.5763
-71.0038
-74.8211
-78.0764
-80.8247
-83.1221
-85.0255
-86.5893
-87.86
-88.8759
-89.6726
-90.2806
-90.7321
-91.0551
-91.2693
-91.3912
-91.4365
-91.415
-91.3232
-91.153
-90.903
-90.5753
-90.1758
-89.7172
-89.2188
-88.7056
-88.2008
-87.7192
-87.2647
16231.3
18369.6
18464.1
18459.1
18255.6
18360.3
17934
15903
16785.8
19407.6
19250.7
17957.1
17177.3
18120.4
18535.8
15400.8
11905.1
7545.31
1833.3
-64.6819
-57.6919
-52.7174
-47.1301
-44.5217
-44.8265
-47.4841
-51.6867
-56.6658
-61.8809
-66.9777
-71.7381
-76.0486
-79.8654
-83.1872
-86.0442
-88.4747
-90.5204
-92.2267
-93.6366
-94.7866
-95.7095
-96.4338
-96.9859
-97.3931
-97.6801
-97.8636
-97.9578
-97.9757
-97.9277
-97.815
-97.6327
-97.378
-97.0513
-96.6542
-96.1939
-95.6843
-95.1459
-94.597
-94.0517
-93.5117
15747.4
15759.3
15767.9
15874.8
16261.6
16353.9
15916.1
15873.8
15855.7
15971
16188.3
16406.7
16810.6
17432.9
17467.7
13595.7
9905.9
5213.6
-40.7154
-75.7949
-72.9723
-66.9382
-62.6689
-60.5243
-60.4877
-62.3225
-65.497
-69.4205
-73.643
-77.8507
-81.839
-85.494
-88.7635
-91.6338
-94.1225
-96.2542
-98.0592
-99.5739
-100.832
-101.862
-102.691
-103.341
-103.836
-104.197
-104.447
-104.599
-104.665
-104.657
-104.583
-104.448
-104.25
-103.986
-103.653
-103.252
-102.787
-102.267
-101.707
-101.121
-100.52
-99.905
15738
15724.9
15711.2
15716.6
15696.8
15809.6
15831.9
15857.2
15868.1
15909.3
16044.7
16235.7
16559.7
16965.6
16158.5
11564.3
7813.02
2815.15
-264.862
-97.5649
-84.0407
-79.7178
-76.5051
-74.8164
-74.6616
-75.9929
-78.4363
-81.5481
-84.9698
-88.4369
-91.7689
-94.8564
-97.644
-100.112
-102.267
-104.125
-105.706
-107.04
-108.154
-109.069
-109.806
-110.384
-110.821
-111.137
-111.35
-111.471
-111.509
-111.475
-111.378
-111.22
-111.005
-110.727
-110.384
-109.977
-109.505
-108.975
-108.396
-107.777
-107.13
-106.45
15722.6
15708.4
15705.7
15711.7
15708.6
15734.2
15794.6
15829.3
15854.6
15896.5
15995.2
16148.9
16346.1
16916.7
12670.7
9656.47
5643.67
469.195
-141.419
-93.0853
-94.6646
-91.3392
-89.0475
-87.763
-87.6312
-88.6638
-90.5875
-93.0752
-95.8535
-98.7127
-101.495
-104.098
-106.469
-108.584
-110.443
-112.054
-113.433
-114.601
-115.582
-116.389
-117.04
-117.551
-117.934
-118.205
-118.382
-118.473
-118.485
-118.426
-118.306
-118.129
-117.895
-117.603
-117.249
-116.833
-116.354
-115.815
-115.219
-114.575
-113.888
-113.154
15711.3
15705.8
15700.3
15704
15708.8
15725.6
15763.6
15797.2
15825.5
15863.6
15938
16049.7
16179.7
15884.6
10871.3
7641.07
3399.58
-910.032
-101.85
-107.655
-104.604
-102.241
-100.612
-99.6742
-99.6312
-100.491
-102.037
-104.043
-106.311
-108.676
-111.001
-113.196
-115.21
-117.02
-118.62
-120.014
-121.213
-122.234
-123.094
-123.804
-124.377
-124.826
-125.159
-125.39
-125.532
-125.595
-125.583
-125.503
-125.362
-125.166
-124.916
-124.61
-124.246
-123.822
-123.336
-122.789
-122.181
-121.516
-120.799
-120.019
15701.9
15696.3
15692.2
15695.4
15701.2
15714.1
15739.6
15766.9
15792.2
15821.9
15874.3
15945.4
16073.1
14374.6
9014.36
5673.19
1140.53
-646.254
-129.512
-115.895
-114.205
-112.576
-111.44
-110.797
-110.863
-111.611
-112.875
-114.51
-116.375
-118.339
-120.287
-122.141
-123.854
-125.404
-126.78
-127.986
-129.028
-129.92
-130.674
-131.299
-131.803
-132.197
-132.486
-132.681
-132.794
-132.832
-132.798
-132.698
-132.54
-132.329
-132.064
-131.746
-131.373
-130.943
-130.453
-129.901
-129.285
-128.607
-127.867
-127.052
15691.1
15686.4
15682.8
15684.6
15689.6
15699.9
15718.2
15739.6
15758.3
15778.6
15814.1
15861
15807.1
10887.6
7427.89
3751.66
-1008.16
-229.912
-119.104
-125.194
-123.614
-122.529
-121.726
-121.316
-121.477
-122.143
-123.192
-124.539
-126.083
-127.722
-129.362
-130.932
-132.393
-133.723
-134.911
-135.955
-136.864
-137.645
-138.309
-138.86
-139.306
-139.653
-139.905
-140.069
-140.157
-140.174
-140.122
-140.006
-139.834
-139.61
-139.334
-139.008
-138.629
-138.195
-137.704
-137.151
-136.534
-135.849
-135.095
-134.255
15681.4
15676.4
15672.6
15672.7
15675.9
15683.6
15698.2
15716
15727.7
15740
15763.2
15786.2
15334.3
8768.72
5887.12
1823.54
-1890.23
-131.746
-135.808
-134.24
-132.984
-132.193
-131.609
-131.376
-131.603
-132.199
-133.08
-134.2
-135.487
-136.862
-138.246
-139.582
-140.833
-141.979
-143.008
-143.918
-144.714
-145.402
-145.991
-146.481
-146.878
-147.187
-147.408
-147.548
-147.617
-147.617
-147.551
-147.424
-147.241
-147.008
-146.725
-146.394
-146.013
-145.579
-145.091
-144.542
-143.929
-143.245
-142.486
-141.632
15677
15668.6
15662.7
15660.5
15661.3
15666.8
15679.1
15697.5
15705.8
15706.5
15728.4
15798.4
12681.6
7469.59
4333.03
-146.922
-992.186
-156.55
-143.957
-143.194
-142.24
-141.631
-141.188
-141.084
-141.348
-141.877
-142.622
-143.558
-144.637
-145.795
-146.968
-148.109
-149.185
-150.177
-151.073
-151.872
-152.574
-153.186
-153.714
-154.156
-154.515
-154.795
-154.992
-155.113
-155.168
-155.157
-155.081
-154.946
-154.757
-154.519
-154.233
-153.901
-153.521
-153.093
-152.612
-152.073
-151.47
-150.796
-150.042
-149.183
15681.7
15664.2
15653.9
15648.7
15647.3
15650.3
15658.5
15676.5
15667.4
15674.9
15700.4
15482.8
9058.59
6316.96
2705.42
-2001.26
-284.182
-145.824
-153.314
-152.122
-151.4
-150.881
-150.538
-150.528
-150.803
-151.267
-151.896
-152.68
-153.587
-154.564
-155.56
-156.539
-157.469
-158.331
-159.116
-159.823
-160.449
-161.001
-161.481
-161.885
-162.216
-162.473
-162.654
-162.763
-162.809
-162.791
-162.711
-162.572
-162.381
-162.142
-161.857
-161.528
-161.154
-160.735
-160.267
-159.744
-159.159
-158.501
-157.761
-156.909
15692.1
15662.8
15646
15637.7
15634.4
15635.2
15638.6
15647
15646.4
15655.3
15667.7
14235.8
7856.23
5053.94
939.93
-2367.04
-161.723
-162.634
-162.117
-161.065
-160.453
-159.983
-159.726
-159.778
-160.043
-160.442
-160.971
-161.628
-162.39
-163.213
-164.06
-164.9
-165.706
-166.459
-167.151
-167.781
-168.347
-168.851
-169.294
-169.671
-169.982
-170.225
-170.395
-170.498
-170.539
-170.519
-170.438
-170.3
-170.11
-169.875
-169.595
-169.273
-168.91
-168.505
-168.054
-167.553
-166.992
-166.359
-165.643
-164.809
15598.9
15654.1
15637.5
15627.2
15622.7
15619
15620.9
15626.9
15632.9
15645.5
15690
10187.4
7008.5
3632.32
-937.636
-958.38
-178.664
-171.022
-170.694
-169.925
-169.408
-168.984
-168.805
-168.894
-169.132
-169.468
-169.91
-170.459
-171.096
-171.789
-172.509
-173.228
-173.926
-174.585
-175.197
-175.763
-176.279
-176.747
-177.162
-177.52
-177.819
-178.053
-178.218
-178.319
-178.36
-178.341
-178.263
-178.129
-177.945
-177.716
-177.446
-177.136
-176.786
-176.399
-175.971
-175.497
-174.967
-174.368
-173.685
-172.881
15553.4
15614.2
15617.1
15615.2
15612
15606.7
15605.4
15616.3
15621.8
15640.2
14822.7
8673.71
5940.78
2029.35
-2484.86
-255.332
-173.116
-180.312
-179.388
-178.784
-178.307
-177.937
-177.825
-177.927
-178.128
-178.405
-178.771
-179.227
-179.758
-180.338
-180.947
-181.561
-182.162
-182.738
-183.281
-183.792
-184.267
-184.705
-185.101
-185.445
-185.735
-185.965
-186.129
-186.231
-186.275
-186.26
-186.188
-186.062
-185.887
-185.669
-185.411
-185.115
-184.784
-184.418
-184.017
-183.574
-183.081
-182.524
-181.884
-181.121
15581.5
15570
15591.5
15600.9
15601.4
15601.5
15602.3
15610.4
15615.4
15651.9
11443.1
7887.73
4587.28
207.398
-2218.92
-200.699
-188.891
-189.14
-188.209
-187.65
-187.188
-186.879
-186.821
-186.916
-187.078
-187.301
-187.601
-187.978
-188.418
-188.901
-189.413
-189.933
-190.449
-190.949
-191.432
-191.894
-192.333
-192.747
-193.125
-193.458
-193.741
-193.969
-194.133
-194.238
-194.287
-194.279
-194.215
-194.099
-193.936
-193.733
-193.49
-193.212
-192.902
-192.56
-192.187
-191.78
-191.329
-190.82
-190.233
-189.523
15573.1
15551.9
15571
15585.5
15591.8
15596.8
15598
15596.4
15612.4
15042.8
9693.06
6846.78
2988.18
-1657.2
-605.898
-195.709
-199.269
-197.962
-197.092
-196.54
-196.091
-195.846
-195.821
-195.898
-196.02
-196.199
-196.444
-196.753
-197.116
-197.516
-197.944
-198.382
-198.821
-199.254
-199.68
-200.099
-200.505
-200.895
-201.257
-201.577
-201.852
-202.076
-202.24
-202.348
-202.403
-202.402
-202.348
-202.245
-202.097
-201.909
-201.685
-201.427
-201.139
-200.823
-200.481
-200.11
-199.703
-199.248
-198.724
-198.081
15547.2
15537.9
15555.7
15570.7
15581.4
15591
15579
15586.5
15617.6
12039.1
8756.84
5423.84
1154.4
-2653.89
-207.641
-208.581
-208.153
-206.801
-206.016
-205.466
-205.051
-204.865
-204.853
-204.906
-204.994
-205.135
-205.333
-205.587
-205.885
-206.216
-206.571
-206.939
-207.311
-207.685
-208.062
-208.441
-208.815
-209.179
-209.519
-209.821
-210.084
-210.3
-210.461
-210.571
-210.629
-210.637
-210.594
-210.503
-210.372
-210.203
-209.998
-209.762
-209.498
-209.208
-208.896
-208.562
-208.199
-207.798
-207.344
-206.787
15539.6
15537
15544.4
15556.5
15569.1
15568.7
15570.1
15580.4
14873.6
10358.1
7541.01
3711.05
-824.42
-1298.77
-230.887
-217.116
-216.887
-215.725
-215.005
-214.464
-214.096
-213.957
-213.944
-213.971
-214.031
-214.139
-214.298
-214.507
-214.751
-215.025
-215.321
-215.631
-215.949
-216.274
-216.61
-216.953
-217.295
-217.629
-217.937
-218.215
-218.458
-218.658
-218.81
-218.918
-218.979
-218.993
-218.96
-218.883
-218.768
-218.618
-218.435
-218.221
-217.981
-217.717
-217.435
-217.134
-216.811
-216.462
-216.079
-215.628
15527.7
15529.1
15533.5
15542.8
15552
15549.2
15573.4
15547.8
12005.8
9259.4
5916.39
1759.83
-2489.58
-315.617
-219.81
-226.923
-225.638
-224.711
-224.067
-223.553
-223.243
-223.136
-223.112
-223.114
-223.151
-223.233
-223.361
-223.532
-223.733
-223.962
-224.209
-224.473
-224.748
-225.036
-225.341
-225.653
-225.96
-226.255
-226.526
-226.772
-226.989
-227.168
-227.306
-227.405
-227.465
-227.482
-227.457
-227.393
-227.294
-227.163
-227
-226.809
-226.592
-226.353
-226.097
-225.826
-225.536
-225.227
-224.904
-224.582
15515.7
15519.5
15521.8
15527.9
15531.1
15549.5
15572.4
14119.4
10635.1
7790.59
3963.74
-389.883
-2021.94
-252.47
-236.155
-236.053
-234.682
-233.84
-233.225
-232.752
-232.505
-232.414
-232.375
-232.358
-232.376
-232.436
-232.539
-232.679
-232.846
-233.037
-233.246
-233.471
-233.712
-233.97
-234.242
-234.511
-234.779
-235.039
-235.277
-235.494
-235.688
-235.846
-235.967
-236.056
-236.11
-236.127
-236.107
-236.051
-235.965
-235.849
-235.705
-235.533
-235.338
-235.122
-234.89
-234.642
-234.377
-234.094
-233.795
-233.514
15501
15507.5
15509.7
15516.1
15527.3
15518.2
15203.9
11825.1
9314.54
5855.29
1794.88
-2414.8
-397.813
-240.421
-247.052
-245.141
-243.885
-243.087
-242.491
-242.083
-241.889
-241.804
-241.749
-241.716
-241.721
-241.763
-241.845
-241.958
-242.097
-242.257
-242.433
-242.626
-242.833
-243.055
-243.287
-243.522
-243.759
-243.988
-244.199
-244.395
-244.57
-244.713
-244.824
-244.905
-244.954
-244.969
-244.95
-244.899
-244.819
-244.712
-244.578
-244.42
-244.24
-244.041
-243.826
-243.596
-243.349
-243.081
-242.789
-242.458
15485.9
15493.9
15496.1
15502.9
15519.7
15491.7
12820.5
10511.1
7406.92
3602.29
-482.154
-2263.28
-267.522
-255.904
-255.829
-254.197
-253.133
-252.416
-251.876
-251.549
-251.397
-251.312
-251.245
-251.202
-251.195
-251.224
-251.289
-251.38
-251.493
-251.627
-251.776
-251.936
-252.107
-252.297
-252.498
-252.705
-252.914
-253.116
-253.304
-253.479
-253.636
-253.765
-253.866
-253.942
-253.99
-254.006
-253.991
-253.949
-253.879
-253.783
-253.662
-253.517
-253.35
-253.165
-252.964
-252.748
-252.516
-252.266
-252.002
-251.745
15471.6
15481.3
15483.3
15489.2
15484.1
13768.1
11405.1
8601.56
5045.33
1255.7
-2529.01
-405.481
-258.393
-266.117
-264.526
-263.285
-262.448
-261.836
-261.391
-261.15
-261.03
-260.944
-260.87
-260.823
-260.809
-260.827
-260.877
-260.949
-261.041
-261.152
-261.272
-261.399
-261.544
-261.707
-261.882
-262.063
-262.247
-262.424
-262.591
-262.748
-262.888
-263.002
-263.093
-263.164
-263.21
-263.227
-263.217
-263.181
-263.12
-263.036
-262.928
-262.798
-262.648
-262.482
-262.301
-262.108
-261.902
-261.685
-261.464
-261.265
15447.6
15468.4
15472.7
15468.4
14088.8
12054.6
9450.07
6126.54
2566.4
-1060.96
-2176.26
-285.401
-274.459
-274.793
-273.45
-272.525
-271.883
-271.383
-271.056
-270.892
-270.794
-270.709
-270.636
-270.59
-270.57
-270.581
-270.618
-270.674
-270.748
-270.837
-270.925
-271.029
-271.152
-271.292
-271.442
-271.599
-271.76
-271.917
-272.064
-272.204
-272.327
-272.428
-272.51
-272.575
-272.618
-272.635
-272.629
-272.599
-272.546
-272.472
-272.375
-272.259
-272.126
-271.978
-271.818
-271.648
-271.469
-271.284
-271.102
-270.946
15394.2
15450.7
15454.7
14094.7
12369.8
9892.6
6819.01
3500.29
184.694
-2883.31
-339.641
-277.211
-284.887
-283.619
-282.64
-281.971
-281.473
-281.098
-280.884
-280.773
-280.689
-280.612
-280.546
-280.505
-280.485
-280.49
-280.517
-280.56
-280.62
-280.678
-280.744
-280.829
-280.932
-281.051
-281.179
-281.315
-281.456
-281.593
-281.723
-281.846
-281.953
-282.042
-282.116
-282.175
-282.214
-282.232
-282.228
-282.203
-282.157
-282.092
-282.006
-281.904
-281.786
-281.655
-281.515
-281.367
-281.212
-281.056
-280.906
-280.781
13294.4
15058.9
14044.2
12538.9
10116.2
7261.06
4241.66
1198.04
-2020.27
-1574.6
-310.293
-293.33
-294.042
-292.941
-292.232
-291.732
-291.339
-291.074
-290.931
-290.842
-290.763
-290.689
-290.63
-290.59
-290.568
-290.567
-290.582
-290.614
-290.652
-290.684
-290.733
-290.801
-290.886
-290.986
-291.095
-291.213
-291.335
-291.454
-291.568
-291.675
-291.768
-291.846
-291.912
-291.965
-292
-292.017
-292.015
-291.994
-291.955
-291.897
-291.822
-291.732
-291.629
-291.514
-291.392
-291.265
-291.133
-291.001
-290.877
-290.776
120409
125501
125470
125417
125338
125230
125084
124891
124637
124303
123864
123284
122517
121485
120027
117921
114858
110293
102926
89887.3
110221
115299
115264
115204
115118
114998
114838
114627
114350
113989
113513
112886
112055
110942
109385
107118
103746
98560.7
90117.5
75714.5
100060
105123
105085
105020
104927
104799
104628
104405
104114
103735
103239
102588
101729
100595
99046.9
96837.3
93608.9
88822.3
81663
71128.8
89927.3
94974.6
94934.5
94867.1
94769.3
94635.7
94458.7
94228.1
93929.8
93544.3
93044.1
92392.9
91543.9
90439.4
88980.3
86975.6
84146.6
80127.1
74475.2
66806.6
79824.6
84856.4
84815.1
84746
84646
84509.8
84330.5
84098.2
83799.9
83417.6
82926.6
82294.9
81483
80444.1
79114.7
77368.6
75008.8
71792.5
67478.6
61935.3
69752.3
74768.8
74727.4
74658.1
74558
74422.1
74244
74014.8
73722.5
73351.4
72879.8
72281
71523.3
70570.2
69380.9
67884.7
65956.9
63437.4
60177.8
56117.8
59710.2
64712.1
64671.5
64603.6
64505.4
64372.5
64198.9
63976.6
63695.3
63340.9
62895.4
62337.2
61641.4
60780.3
59725.4
58440.4
56858.2
54876.1
52389.8
49351.3
49697.2
54685.7
54647.2
54582.3
54488
54360.2
54193.9
53982.2
53715.4
53381.8
52966.7
52452.3
51818
51042.6
50103.1
48977.5
47635.1
46016.7
44047.8
41681.8
39711
44688.4
44653.9
44593.8
44504.8
44383.9
44228
44030.4
43782.6
43473.9
43090.4
42614.3
42026.8
41309.9
40443.7
39412.7
38205.7
36795
35134.6
33185
29745.9
34718.4
34691.8
34638.3
34554.6
34442.2
34299
34115.9
33882
33585.9
33214.5
32752.3
32184
31495.4
30672
29703.7
28584.4
27301.5
25829.8
24142.9
19782.6
24773.9
24764.9
24714.9
24630.4
24522.9
24385.3
24205
23970.8
23672.9
23301
22843.8
22289.4
21626.8
20845.2
19934.4
18889
17706.4
16369.3
14864.7
9732.38
14859.4
14891.2
14811.3
14707.4
14598.2
14466.3
14291.1
14058.5
13760.4
13389.7
12937.5
12396.3
11758.9
11020.6
10171.4
9152.8
8007.27
6756.34
5395.63
389.085
5022.21
5054.39
4896.32
4759.75
4669.54
4565.73
4404.26
4170.03
3861.74
3501.36
3091.16
2633.15
2156.53
1685.57
1250.94
921.962
552.572
185.847
-130.994
-428.805
-401.118
-424.341
-425.021
-424.077
-422.011
-423.275
-426.225
-426.914
-427.587
-428.279
-429.034
-429.697
-430.267
-430.323
-425.325
-418.49
-419.259
-419.59
-420.067
-439.598
-434.354
-433.819
-433.765
-433.576
-433.566
-433.676
-433.917
-434.114
-434.277
-434.422
-434.561
-434.67
-434.738
-434.673
-434.225
-434.391
-434.939
-435.425
-435.75
-448.95
-443.994
-443.557
-443.393
-443.316
-443.288
-443.288
-443.347
-443.439
-443.54
-443.647
-443.759
-443.873
-443.983
-444.069
-444.096
-444.204
-444.465
-444.737
-444.953
-458.672
-453.675
-453.502
-453.378
-453.305
-453.273
-453.274
-453.308
-453.368
-453.443
-453.527
-453.617
-453.71
-453.8
-453.884
-453.96
-454.067
-454.224
-454.402
-454.572
-468.515
-463.451
-463.364
-463.292
-463.243
-463.22
-463.221
-463.244
-463.286
-463.341
-463.406
-463.477
-463.554
-463.633
-463.713
-463.797
-463.894
-464.013
-464.147
-464.285
-478.387
-473.3
-473.232
-473.189
-473.163
-473.152
-473.156
-473.175
-473.207
-473.249
-473.3
-473.358
-473.422
-473.491
-473.564
-473.643
-473.73
-473.83
-473.941
-474.06
-488.262
-483.178
-483.117
-483.091
-483.08
-483.079
-483.087
-483.104
-483.13
-483.163
-483.204
-483.252
-483.307
-483.367
-483.433
-483.504
-483.582
-483.67
-483.767
-483.872
-498.127
-493.061
-493.016
-493.002
-493.001
-493.006
-493.016
-493.032
-493.053
-493.081
-493.115
-493.156
-493.203
-493.256
-493.315
-493.38
-493.451
-493.529
-493.616
-493.711
-507.981
-502.951
-502.929
-502.924
-502.927
-502.933
-502.944
-502.958
-502.977
-503.001
-503.031
-503.066
-503.107
-503.155
-503.208
-503.268
-503.333
-503.405
-503.485
-503.573
-517.799
-512.85
-512.844
-512.846
-512.853
-512.861
-512.871
-512.885
-512.903
-512.924
-512.95
-512.982
-513.02
-513.063
-513.112
-513.167
-513.228
-513.296
-513.37
-513.452
-527.569
-522.73
-522.754
-522.768
-522.777
-522.787
-522.798
-522.812
-522.828
-522.849
-522.873
-522.903
-522.938
-522.979
-523.025
-523.077
-523.135
-523.2
-523.27
-523.346
40682.3
37968.7
37843.9
40731.4
46702.3
54215.9
61697.2
67894.1
72082.8
74050.7
73872.8
71645.7
67238
59796.9
46213
48337.9
32437.2
28540.7
30344.5
35608.3
42494.2
49486.2
55323.7
59284.1
61142.5
60940
58750.2
54485.6
47745.5
37956.1
55638.5
38374.2
29102.2
27121.6
29954.9
35242.5
40973.3
45805.3
49026.4
50422.9
50031.1
47931.5
44133
38573.3
31332.1
57240.4
45891.7
37082.8
32450
31669.9
33476.5
36349.4
39008.5
40748.7
41265.5
40475.8
38374.9
34969.9
30308.5
24611.5
55243.9
47596.4
40901.8
36166.9
33638.8
32890.6
33177.2
33689.1
33865.2
33370.9
32032.6
29771.4
26575.8
22520.2
17814.1
51260.5
45676.7
40448.6
36151.3
33031.2
30975.4
29659.5
28660.2
27608.3
26232.4
24355.9
21881.2
18784.6
15122.7
11041.1
45722.4
41454.8
37220.3
33369.6
30094.5
27417.3
25212.5
23281.6
21408.2
19403.2
17123.8
14476.9
11423.1
7963.32
4149.48
38858
35463.5
31932
28481.7
25269.6
22369.6
19759.7
17353.2
15029.8
12663.6
10141.1
7342.39
4206.42
1030.91
-715.379
30877.7
28075.5
25075.5
22014.5
19024.2
16181
13498.1
10940.3
8428.9
5847.72
3151.82
643.142
-402.315
-471.923
-386.57
22177.4
19799.5
17235
14565.1
11878.5
9227.26
6616.13
4003.76
1606.55
-224.643
-229.994
-451.191
-392.507
-381.918
-388.35
13134.1
11054.8
8838.28
6453.98
4012.83
1779.88
-42.4832
-376.62
-367.164
-447.787
-390.777
-395.583
-399.132
-399.421
-399.047
3908.14
2161.77
778.373
-55.738
-163.119
-424.172
-450.305
-407.692
-400.255
-407.615
-408.6
-408.786
-408.694
-408.476
-408.406
-360.336
-450.23
-443.531
-418.247
-408.511
-410.688
-417.78
-417.675
-418.102
-418.081
-417.833
-417.86
-417.931
-417.94
-417.941
-420.926
-424.978
-427.292
-426.112
-427.591
-427.13
-427.355
-427.241
-427.196
-427.267
-427.317
-427.377
-427.438
-427.484
-427.522
-435.694
-435.626
-436.021
-436.018
-436.221
-436.364
-436.526
-436.638
-436.72
-436.804
-436.881
-436.955
-437.027
-437.091
-437.148
-445.081
-445.209
-445.423
-445.573
-445.743
-445.901
-446.049
-446.179
-446.292
-446.397
-446.492
-446.58
-446.661
-446.736
-446.804
-454.721
-454.872
-455.036
-455.192
-455.35
-455.506
-455.655
-455.794
-455.92
-456.036
-456.142