/*--------------------------------*- C++ -*----------------------------------*\
| =========                 |                                                 |
| \\      /  F ield         | OpenFOAM: The Open Source CFD Toolbox           |
|  \\    /   O peration     | Version:  v1912                                 |
|   \\  /    A nd           | Website:  www.openfoam.com                      |
|    \\/     M anipulation  |                                                 |
\*---------------------------------------------------------------------------*/
FoamFile
{
    version     2.0;
    format      ascii;
    class       volScalarField;
    location    "18";
    object      p_rgh;
}
// * * * * * * * * * * * * * * * * * * * * * * * * * * * * * * * * * * * * * //

dimensions      [1 -1 -2 0 0 0 0];


internalField   nonuniform List<scalar> 
20320
(
431846
431925
431954
432008
432082
432172
432277
432394
432521
432656
432794
432933
433071
433205
433333
433454
433567
433679
433778
433815
431733
431835
431872
431929
432003
432095
432201
432319
432447
432582
432721
432861
433000
433136
433265
433384
433486
433576
433655
433713
431508
431650
431688
431745
431821
431913
432019
432138
432267
432402
432541
432681
432820
432956
433085
433195
433284
433358
433424
433486
431198
431380
431418
431474
431550
431641
431747
431866
431993
432128
432266
432406
432543
432678
432801
432899
432975
433040
433100
433168
430814
431032
431069
431125
431199
431289
431394
431511
431638
431771
431907
432044
432180
432312
432425
432511
432578
432636
432696
432769
430367
430615
430651
430706
430778
430867
430970
431084
431208
431338
431472
431606
431739
431866
431968
432042
432102
432157
432216
432295
429867
430139
430174
430227
430297
430383
430482
430593
430713
430839
430968
431098
431227
431345
431436
431500
431553
431605
431665
431749
429322
429615
429648
429699
429766
429847
429941
430047
430160
430280
430403
430527
430649
430757
430835
430889
430935
430982
431043
431133
428743
429051
429082
429129
429192
429267
429355
429453
429558
429669
429783
429897
430010
430104
430167
430210
430246
430288
430348
430444
428139
428457
428486
428528
428584
428653
428732
428819
428914
429012
429113
429215
429312
429389
429434
429460
429483
429517
429575
429675
427519
427843
427868
427905
427953
428012
428079
428154
428233
428316
428399
428482
428559
428611
428632
428635
428640
428659
428711
428815
426892
427216
427237
427267
427306
427353
427407
427465
427525
427586
427645
427702
427750
427771
427757
427728
427703
427701
427741
427847
426265
426586
426602
426624
426653
426686
426722
426759
426796
426829
426857
426879
426888
426864
426803
426725
426655
426618
426638
426742
425648
425961
425971
425984
426000
426017
426034
426047
426054
426053
426041
426017
425974
425890
425761
425611
425472
425376
425361
425453
425047
425348
425352
425356
425358
425357
425351
425336
425309
425267
425206
425123
425011
424847
424622
424366
424119
423927
423847
423909
424469
424755
424753
424746
424734
424714
424682
424636
424571
424482
424362
424208
424010
423739
423383
422970
422552
422198
421997
421989
423918
424188
424179
424161
424134
424094
424037
423959
423852
423711
423526
423288
422984
422579
422048
421410
420725
420089
419649
419474
423401
423650
423635
423607
423566
423506
423424
423313
423164
422969
422713
422384
421960
421397
420643
419696
418603
417475
416539
415936
422918
423147
423126
423089
423033
422955
422849
422707
422518
422271
421946
421522
420972
420237
419229
417893
416217
414257
412254
410449
422473
422681
422655
422609
422541
422446
422318
422148
421924
421629
421241
420732
420062
419162
417902
416144
413748
410547
406379
401065
95323.8
94462.1
93649.9
93319.2
92665.3
92171.5
91366.8
90308.7
88918.2
86696.3
82296.3
74419.9
62618.8
48348.1
37134.3
31009.4
29827.2
96666
312856
378611
335345
266743
199678
143260
101024
72290
54032.8
42950.9
36440.9
32684.2
30614.7
29515.5
28963.3
28723.2
28659.6
28689.4
28770
28879.4
29002.1
29131
29262.6
29392.6
29520.8
29648.2
29773.3
29898.4
30025.8
30158.3
30295.6
30434.6
30577.1
30730.7
30895
31055.1
31199.5
31329.7
31440.1
31497.9
31477.3
31392.4
95728.2
95017.9
93986.9
93359.3
91851.7
92503.9
92018.9
91265.2
90346
89131.6
86810.9
82257.4
76568.8
61372
39130.7
29908.4
25699
25879.4
183407
298929
293304
244293
187059
135962
96852.3
69992.3
52839.1
42400.7
36279.1
32716.5
30721.4
29652.5
29113.7
28875.6
28806.3
28828.7
28902.2
29005.5
29124.1
29249.9
29378.4
29506.3
29632.5
29757.7
29882.3
30006.9
30133.8
30266.2
30405.3
30548.2
30694
30847.5
31014.2
31183.3
31337.4
31472.6
31588.2
31656.1
31638.2
31527.2
96152.2
95134.1
92762.9
94058.8
93142.6
92528.7
92400.4
91711.9
90886.6
89915.2
88264.1
84838.4
79735.2
27649.6
26201.1
26139.9
26396.8
27712.9
141006
244848
256034
221758
172810
126309
90304.6
65782.8
50299.2
40961.8
35488.9
32351.1
30595.6
29649.2
29173.4
28965.4
28908
28932.4
29004.1
29104.3
29220.4
29344.3
29471.4
29598.7
29724.5
29850
29975.5
30101
30228.8
30363.6
30507.2
30654.9
30803.9
30960.3
31135.5
31316.5
31479.6
31623.4
31754.3
31838.8
31825.7
31683.1
96491.1
94830.4
92663.3
94264.1
94242.9
93335.2
92122.8
91940.8
90971
89759.5
87817.8
83550.8
56029.3
26542.1
26196.3
26101.6
26207.6
27368
129533
210579
223084
198230
155652
113012
80307.9
58857.1
45814.3
38198.6
33848.5
31403.9
30061.9
29351.5
29014.4
28886.2
28874.7
28923.5
29009.1
29117.7
29239.8
29368.7
29500.4
29631.7
29761.2
29890.7
30020.2
30148.1
30277.4
30417.1
30568.9
30722.1
30871.2
31030
31222.9
31420.1
31585.5
31738.3
31900.7
32011.8
32008.2
31853.2
96713.7
95250.4
93830
92091.7
94731.9
93962.9
90924.3
92193.5
91004.9
89364.1
86809.2
81589.5
55175.4
26240.8
26139.5
26039.8
26077.9
26436.1
122587
179210
190669
171834
134036
94895.8
66143
48770.8
39076.1
33880.7
31151.5
29738.5
29049.3
28731.1
28618.5
28631.1
28714
28813.8
28932.6
29064.4
29203.7
29346.5
29490.3
29631.4
29769.1
29907.1
30044.8
30176.8
30307.2
30454.2
30620
30780.3
30923.1
31080.3
31303.9
31524.8
31678
31834.7
32051.6
32201.6
32210.7
32077.3
96750.6
95705
89052.6
96190.9
95361.6
94781
91892.5
90717.9
91241.4
89200.4
86143.1
80584.1
66184.8
26142.7
26021.2
25968.2
26014.7
26304
113559
149216
158871
142997
108021
71327.4
46191.3
34665.6
29686.4
27384.8
26328.2
25861.7
25696.1
25719.2
25852.2
26053.1
26313.2
26644.3
26962.3
27283.5
27611.7
27950.4
28300.1
28656.1
29012.4
29369.7
29718.7
30129.6
30276.3
30421.3
30616.3
30787.3
30889.9
31004.7
31332.3
31617.3
31695.3
31828.4
32217
32429.3
32422.9
32379.6
96582.7
95867
82639.2
96699.7
96095.1
95468.3
94702.2
90129.9
91764.9
89485.1
86185.6
80832.1
70076
26147.1
25903.6
25879.3
25932.2
26249.6
101127
123448
129561
113832
78303.5
35229
5000.76
143.72
104.996
77.8357
58.3079
43.1071
31.2262
21.8419
14.3967
8.71911
4.33463
0.436899
-2.25052
-4.57468
-6.12086
-7.24495
-8.09013
-8.70005
-9.06356
-9.2736
-9.44255
-9.36998
-9.22632
-7.59659
29.4641
103.703
174.487
326.291
881.165
1544.2
1802.67
2308.4
4385.35
6330.14
6195.57
6648.88
96296.1
96090
76234.5
97309.9
96875.8
96299.3
95523.2
94004.2
92238.4
90180.2
86909.5
81924.3
74070.3
40488.6
25819.3
25754.6
25874.5
44242.1
88842.4
103198
104880
87371.5
27435.4
214.078
183.124
148.588
120.719
95.0694
73.5002
55.9049
41.7741
30.5157
21.5705
14.5025
8.9147
4.43654
0.908645
-1.92794
-3.84542
-5.44694
-6.72883
-7.73405
-8.50264
-9.08863
-9.5446
-9.88607
-10.2321
-11.0254
-11.9191
-11.1301
-10.0947
-9.70436
-9.32402
-8.89236
-8.40423
-7.99592
-8.01628
-8.11652
-8.11383
-8.35351
81124.6
96668.5
66720.1
98088.7
97711.9
97276.4
96616.6
95475
90106.4
91389.2
88169.5
83482.1
76910.8
58339.1
25220.6
25508.2
26006.6
65806.6
81659.9
88728
86338
58629.9
240.461
190.451
165.667
134.387
109.352
87.1771
68.3073
52.619
39.769
29.3435
20.9358
14.2021
8.82698
4.51143
1.1125
-1.56277
-3.70391
-5.36814
-6.66363
-7.66272
-8.41747
-8.98321
-9.41185
-9.7309
-10.0266
-10.4777
-10.92
-10.5675
-9.87823
-9.36662
-8.88124
-8.35694
-7.82553
-7.37138
-7.236
-7.26588
-7.289
-7.52706
80329.1
93683.7
80895.8
98943.8
98645
98312.1
97827.9
96820
94322
91100.2
89565.7
85356.2
79284.1
44527.7
23990
25049.4
24885.9
75280.5
78002.5
79580.1
73419.7
6590.79
166.459
170.461
143.445
119.673
98.7498
79.9541
63.5446
49.5784
37.8953
28.2438
20.3433
13.9255
8.74112
4.55711
1.2138
-1.4482
-3.55935
-5.22278
-6.52581
-7.53483
-8.30197
-8.87971
-9.31176
-9.63435
-9.90728
-10.2188
-10.4776
-10.3095
-9.86654
-9.42256
-8.95259
-8.44235
-7.92768
-7.47988
-7.22578
-7.11174
-7.06392
-7.19417
82962.3
42644
60572.3
100416
99724
99385.8
99230.2
98329
92024.1
85499.8
91912.2
87603
82482.6
48868.6
23657.2
24414.7
37675
77494.1
76949.6
74825.1
64518.2
197.412
141.301
137.832
121.407
104.004
87.1762
71.5782
57.6177
45.4658
35.0904
26.3649
19.1136
13.1422
8.25958
4.28626
1.07935
-1.4957
-3.5546
-5.18627
-6.47031
-7.46761
-8.22695
-8.79923
-9.22466
-9.5346
-9.77333
-9.99065
-10.1432
-10.0541
-9.75817
-9.38851
-8.96326
-8.4831
-7.9834
-7.52844
-7.19305
-6.96606
-6.82437
-6.82295
104501
42587.4
42558.5
102569
101080
99490.2
78928.2
100180
99136.6
95977.4
90495.6
89987.9
85795.7
32374.1
22691
24317.9
72053.9
80554.6
77756
73295.3
20982.4
88.1204
111.507
110.149
101.003
88.6805
75.5762
62.8777
51.1931
40.7862
31.7215
23.9682
17.4314
11.9784
7.46659
3.76015
0.740385
-1.7057
-3.67619
-5.24793
-6.48975
-7.45747
-8.1952
-8.75043
-9.15945
-9.45084
-9.65843
-9.81408
-9.90057
-9.83587
-9.6203
-9.31021
-8.92338
-8.47138
-7.98791
-7.52262
-7.12532
-6.80774
-6.57021
-6.43917
105837
87127.7
102121
104450
102522
85563.4
102733
102054
101317
87338.8
94026.4
92973.9
65383.5
20295.1
21586.4
21351.3
87532.5
83881.1
79878.2
73915.4
877.614
74.4295
86.1368
87.8385
82.9822
74.4778
64.4761
54.2984
44.6434
35.8362
28.0175
21.2237
15.4182
10.5161
6.41559
3.01465
0.218683
-2.06489
-3.91755
-5.40516
-6.58586
-7.5077
-8.21142
-8.73912
-9.12521
-9.39351
-9.57131
-9.68245
-9.72425
-9.66062
-9.48224
-9.20919
-8.85319
-8.42635
-7.95562
-7.47901
-7.03483
-6.64302
-6.31491
-6.06496
106462
107359
107540
105612
103895
86155.8
104180
104240
104066
102908
100432
96882.2
53610.8
19895.4
20581.5
27923.7
91409.1
87673.9
82868.2
73434.2
47.1278
58.3322
67.1212
69.9055
67.5375
61.7419
54.2097
46.1493
38.2461
30.8597
24.1837
18.2958
13.2013
8.85202
5.17736
2.10117
-0.449747
-2.5488
-4.26284
-5.64805
-6.75182
-7.6154
-8.27492
-8.76736
-9.12372
-9.36631
-9.51599
-9.59205
-9.59922
-9.52454
-9.35763
-9.10391
-8.76733
-8.35725
-7.89536
-7.40849
-6.92621
-6.47252
-6.06334
-5.70491
106817
107153
107247
106276
104862
36485
105394
104274
100780
105713
103978
101848
30627.8
19101.1
20330.9
76609.6
95918.2
91742.6
86380
25741.3
30.1108
45.6957
52.5482
55.5158
54.5099
50.5814
44.956
38.6187
32.1873
26.0352
20.3793
15.3231
10.8955
7.07832
3.82304
1.07467
-1.22268
-3.12613
-4.68995
-5.9605
-6.97651
-7.77323
-8.38118
-8.83267
-9.15572
-9.36982
-9.49182
-9.53708
-9.51556
-9.42388
-9.2536
-9.00359
-8.67589
-8.2764
-7.81779
-7.31941
-6.80622
-6.30132
-5.81976
-5.36527
37807.8
106328
106927
99591.3
69773.2
20762.7
102779
15991.5
23037.9
99211.6
107713
82154.4
17265.8
18208.8
18624.3
102671
100368
96008
90295.9
1542.07
30.7707
35.7453
41.3325
43.941
43.6361
40.9785
36.776
31.7968
26.5818
21.485
16.7246
12.4141
8.59728
5.27539
2.41841
-0.0120036
-2.05773
-3.76409
-5.1739
-6.32395
-7.24687
-7.97115
-8.52325
-8.93046
-9.21748
-9.40096
-9.49515
-9.51299
-9.46503
-9.35244
-9.17
-8.91532
-8.58861
-8.19155
-7.73124
-7.22169
-6.68321
-6.13434
-5.58909
-5.049
15845.9
15854.4
20544.8
30432.4
34564.5
44796.1
16139.4
15968.9
15993.8
18280.2
18680.7
16501.9
16905.8
17528
18512.5
108739
105049
100357
95102.9
19.3487
22.1714
28.2054
32.4747
34.6193
34.6559
32.8212
29.6466
25.7232
21.5006
17.2929
13.3047
9.64956
6.38019
3.50984
1.02113
-1.11053
-2.91559
-4.43024
-5.68845
-6.71845
-7.54694
-8.19758
-8.69186
-9.05304
-9.3032
-9.45548
-9.52144
-9.51298
-9.43971
-9.3044
-9.10623
-8.84207
-8.5089
-8.10856
-7.64374
-7.12322
-6.56295
-5.97687
-5.37594
-4.76139
15843.7
17235.2
17027.3
15818.5
15798.7
16063
15933.9
15959.2
15970
16011.3
16146.6
16337.6
16661.7
17067.6
81364
113509
109757
104760
38899.7
4.37942
17.9036
22.2265
25.4393
27.1279
27.2827
25.9514
23.508
20.3962
16.9745
13.5074
10.1755
7.08786
4.30029
1.83225
-0.322749
-2.18053
-3.76177
-5.09568
-6.21001
-7.12431
-7.86158
-8.44012
-8.87699
-9.19244
-9.40554
-9.52667
-9.56479
-9.53079
-9.43324
-9.27615
-9.06052
-8.78272
-8.44006
-8.03276
-7.56102
-7.03071
-6.45128
-5.83301
-5.18541
-4.50587
15838.3
15817.3
15814.6
15822.1
15817.6
15843.1
15903.5
15938.2
15963.5
16005.3
16104
16257.8
16455
17025.6
119164
118524
114511
109336
3924.53
15.782
14.2027
17.5281
19.8198
21.1042
21.2361
20.2034
18.2797
15.792
13.0138
10.1545
7.37254
4.7689
2.39854
0.283441
-1.57545
-3.1868
-4.56525
-5.73383
-6.71455
-7.5217
-8.1731
-8.68368
-9.06631
-9.338
-9.51459
-9.60528
-9.61734
-9.55917
-9.43887
-9.26139
-9.02781
-8.73563
-8.38195
-7.96597
-7.48694
-6.94756
-6.35178
-5.70727
-5.0207
-4.28629
15877.2
15821.7
15832.4
15819.9
15824.7
15841.6
15879.5
15913.1
15941.4
15979.5
16053.9
16165.7
16295.6
16621.8
126785
123555
119313
115004
14.064
8.25869
11.3098
13.673
15.302
16.2396
16.2827
15.4224
13.877
11.8712
9.60242
7.23801
4.91313
2.71753
0.703768
-1.10633
-2.70591
-4.0998
-5.29883
-6.31989
-7.18012
-7.88998
-8.46352
-8.91181
-9.24512
-9.47617
-9.61866
-9.68114
-9.669
-9.58872
-9.44813
-9.25243
-9.00215
-8.69586
-8.33174
-7.90779
-7.4223
-6.87502
-6.2667
-5.60214
-4.88482
-4.10512
15877.8
15823.9
15829.4
15818.5
15824.3
15837.2
15862.7
15890
15915.3
15945.3
15997.5
16068.5
16196.2
96407
132102
128761
124228
54866.8
-6.42431
7.19203
8.88263
10.5114
11.6476
12.2901
12.2244
11.4765
10.2126
8.57779
6.71233
4.7488
2.80023
0.946641
-0.766433
-2.31639
-3.69291
-4.89818
-5.94084
-6.83266
-7.58707
-8.21139
-8.71588
-9.10951
-9.3989
-9.59402
-9.70654
-9.74418
-9.71023
-9.61081
-9.45281
-9.24114
-8.97648
-8.65874
-8.28595
-7.85546
-7.36561
-6.81337
-6.19769
-5.51946
-4.7794
-3.96432
15866.4
15851.3
15813.2
15815
15820
15830.3
15848.5
15870
15913.2
15909.6
15945.2
15991.4
15937.4
139910
137817
134141
129381
7993.01
11.2853
5.19541
6.77537
7.86053
8.66285
9.07266
8.91169
8.24625
7.19712
5.85033
4.30572
2.66658
1.02749
-0.5426
-2.00362
-3.33445
-4.52175
-5.56643
-6.47474
-7.25602
-7.92012
-8.47133
-8.91683
-9.26393
-9.51575
-9.68011
-9.76788
-9.78478
-9.7325
-9.61736
-9.44517
-9.22062
-8.94526
-8.6191
-8.24
-7.806
-7.31507
-6.76201
-6.14454
-5.45998
-4.70579
-3.86578
15827.3
15850.7
15810.4
15810.5
15813.7
15821.4
15836.8
15879.7
15877.5
15882.1
15901
15924
28649.6
146591
143709
139646
135932
6.07647
2.01383
3.58263
4.83822
5.62869
6.21329
6.4463
6.21878
5.62332
4.74155
3.62245
2.335
0.959829
-0.424169
-1.75972
-3.01077
-4.15721
-5.18557
-6.09587
-6.89147
-7.57984
-8.16874
-8.65917
-9.05628
-9.36518
-9.58624
-9.72602
-9.79447
-9.79494
-9.72885
-9.6017
-9.41898
-9.1855
-8.90319
-8.57189
-8.19045
-7.75668
-7.26856
-6.7199
-6.10662
-5.4229
-4.66442
-3.80955
15830.7
15827.9
15808.1
15805.9
15806.7
15813.3
15851.3
15848.1
15851.2
15859.8
15873.8
15943.8
131517
152858
149721
145241
67423.8
-11.1615
1.43081
2.19454
3.14832
3.75686
4.20017
4.30424
4.0401
3.51074
2.76559
1.82999
0.751348
-0.406515
-1.57971
-2.72093
-3.7973
-4.7892
-5.68497
-6.48377
-7.18614
-7.79837
-8.32619
-8.76811
-9.12728
-9.40639
-9.60372
-9.7253
-9.77984
-9.76872
-9.69312
-9.55819
-9.36906
-9.13076
-8.84527
-8.51281
-8.13334
-7.70458
-7.22358
-6.68481
-6.08222
-5.4074
-4.65365
-3.79493
15867.7
15817.3
15807
15801.8
15800.4
15829.1
15811.6
15833.9
15970.9
15828
15853.5
15635.9
162148
159407
155795
151089
9234.99
7.26575
-0.224442
0.967713
1.68946
2.20878
2.55162
2.56223
2.28662
1.82304
1.19377
0.409528
-0.497112
-1.47366
-2.47021
-3.44877
-4.37869
-5.24095
-6.02605
-6.73284
-7.3594
-7.91083
-8.39071
-8.79522
-9.12619
-9.38359
-9.56401
-9.67353
-9.71912
-9.70122
-9.62101
-9.48228
-9.29083
-9.05184
-8.76734
-8.43799
-8.0646
-7.64549
-7.17707
-6.65386
-6.06855
-5.4109
-4.67133
-3.81941
15872.7
15823.8
15806.9
15798.6
15795.3
15809.3
15799.5
16086
15818.9
15816.3
15828.7
103519
168786
165984
161870
158563
-0.79303
-1.70458
-1.1876
-0.135258
0.476938
0.946386
1.20406
1.15117
0.886745
0.488044
-0.0413669
-0.698671
-1.46027
-2.28316
-3.13085
-3.97082
-4.77622
-5.52919
-6.22113
-6.85129
-7.41693
-7.92097
-8.36408
-8.74116
-9.05264
-9.29544
-9.46542
-9.56838
-9.60975
-9.58937
-9.50866
-9.3704
-9.18071
-8.94491
-8.66553
-8.34365
-7.98031
-7.57513
-7.12471
-6.62295
-6.06191
-5.42988
-4.71353
-3.87984
17427
15823
15806.4
15796.1
15791.6
15866.5
15848.4
16087.6
15801.8
15814.5
15858.9
177614
175918
172542
167972
66796.4
-9.75445
-2.11204
-1.78399
-1.01514
-0.497926
-0.0744666
0.104267
0.0152908
-0.222327
-0.558411
-1.00066
-1.54954
-2.18664
-2.87969
-3.59934
-4.3188
-5.01645
-5.67503
-6.28736
-6.85325
-7.36967
-7.83706
-8.2529
-8.61052
-8.90911
-9.14335
-9.30842
-9.40933
-9.4505
-9.43138
-9.35349
-9.21971
-9.03571
-8.80686
-8.53656
-8.22616
-7.8768
-7.48953
-7.06179
-6.58708
-6.05707
-5.45881
-4.77551
-3.97131
16475.1
15797.9
15794.2
15792.3
15789
15849.7
15985.5
15846.4
15799
15817.3
63753
185707
182974
179063
174548
3692.74
3.91754
-3.27882
-2.35486
-1.75034
-1.27368
-0.903423
-0.79183
-0.893764
-1.09504
-1.37151
-1.73779
-2.19357
-2.7245
-3.30515
-3.91344
-4.52733
-5.12913
-5.70435
-6.24786
-6.75872
-7.23381
-7.6721
-8.06763
-8.41134
-8.7014
-8.93142
-9.09547
-9.19745
-9.24161
-9.22681
-9.15455
-9.02852
-8.85371
-8.63557
-8.37782
-8.08214
-7.75071
-7.3849
-6.98329
-6.54064
-6.04758
-5.49074
-4.85074
-4.08729
16602.6
15882.4
15776.8
15786.2
15789.9
15795.3
15845.4
15796.3
15801.2
15837.2
184916
193190
189890
185510
174603
-15.3966
-3.58822
-3.83767
-2.90664
-2.34738
-1.88583
-1.57583
-1.51801
-1.61336
-1.77497
-1.99847
-2.29874
-2.67523
-3.11506
-3.5986
-4.11039
-4.63073
-5.14616
-5.64672
-6.12891
-6.59109
-7.03026
-7.44404
-7.82277
-8.15528
-8.43856
-8.66595
-8.83069
-8.93545
-8.98443
-8.97629
-8.91206
-8.79646
-8.63383
-8.42985
-8.18765
-7.90936
-7.59886
-7.25736
-6.88437
-6.47714
-6.02593
-5.51704
-4.93039
-4.22012
16759.3
15745.7
15764.7
15779.2
15797.2
15790.6
15791.8
15813.2
15806.1
51154.3
203413
200567
196708
192063
43856.5
-1.98915
-5.54864
-4.24195
-3.37184
-2.81942
-2.37054
-2.12559
-2.10079
-2.17764
-2.30016
-2.47882
-2.72364
-3.03294
-3.39558
-3.79627
-4.22386
-4.66161
-5.1005
-5.53352
-5.96016
-6.37858
-6.78485
-7.17521
-7.53657
-7.85674
-8.13226
-8.35563
-8.52018
-8.62817
-8.68247
-8.68206
-8.62792
-8.52445
-8.37657
-8.18927
-7.96508
-7.70668
-7.41881
-7.10323
-6.76059
-6.39017
-5.98334
-5.52738
-5.00343
-4.36098
15789.8
15740.2
15758
15773
15783.7
15793.3
15943.7
15788.8
15819.9
201826
211045
207712
203443
199634
-5.35232
-6.29285
-5.86523
-4.51283
-3.72795
-3.17821
-2.76316
-2.57673
-2.56523
-2.61764
-2.70549
-2.84642
-3.0445
-3.29865
-3.59635
-3.92729
-4.28268
-4.6504
-5.02305
-5.39662
-5.77396
-6.15241
-6.5266
-6.89102
-7.23039
-7.53314
-7.7962
-8.01135
-8.17251
-8.2823
-8.34122
-8.34844
-8.3053
-8.21507
-8.08331
-7.91449
-7.71
-7.47356
-7.20926
-6.91988
-6.60805
-6.27375
-5.9108
-5.50982
-5.05582
-4.49886
15816.9
15790.7
15755.4
15767.5
15780.1
16020.9
15887.4
15791.4
80805.7
221369
218552
214722
210186
115022
-19.8757
-6.10495
-5.87591
-4.71415
-3.99383
-3.45306
-3.0855
-2.9461
-2.93336
-2.95987
-3.01978
-3.12821
-3.28744
-3.49587
-3.74032
-4.01411
-4.31033
-4.62015
-4.93808
-5.2629
-5.59947
-5.94253
-6.28458
-6.61782
-6.92661
-7.20385
-7.44686
-7.64699
-7.79952
-7.90694
-7.96827
-7.98189
-7.94915
-7.87253
-7.75736
-7.60764
-7.42392
-7.21037
-6.97001
-6.70641
-6.4242
-6.12323
-5.80039
-5.45099
-5.06829
-4.61754
15752.1
15752.9
15753.4
15762.7
15783.5
16114.6
15793.3
15767.7
231895
229148
225805
221649
217399
10313.5
0.0787455
-7.03402
-5.7491
-4.82238
-4.17844
-3.66367
-3.35441
-3.24653
-3.22281
-3.22554
-3.26208
-3.34415
-3.47203
-3.6428
-3.84439
-4.0727
-4.32045
-4.5838
-4.85935
-5.14747
-5.45222
-5.76359
-6.07074
-6.3661
-6.63708
-6.88268
-7.10013
-7.27917
-7.41692
-7.51626
-7.57579
-7.59298
-7.56824
-7.50414
-7.40501
-7.27372
-7.11068
-6.91961
-6.7027
-6.46381
-6.20849
-5.93664
-5.64691
-5.33844
-5.01474
-4.69339
15785.5
15748.4
15750.8
15756.8
16094.2
15778.4
15801.3
176480
239561
236717
232890
228537
201852
-23.5432
-7.22866
-7.12667
-5.75507
-4.91378
-4.29811
-3.82599
-3.5784
-3.48769
-3.44861
-3.43114
-3.44958
-3.50993
-3.61226
-3.7522
-3.91913
-4.11026
-4.31937
-4.5451
-4.78575
-5.0439
-5.31538
-5.58497
-5.85286
-6.1122
-6.35023
-6.56779
-6.76115
-6.91926
-7.04108
-7.12983
-7.184
-7.20081
-7.18008
-7.12488
-7.03853
-6.92282
-6.77811
-6.60692
-6.41149
-6.19523
-5.96306
-5.71545
-5.45079
-5.16789
-4.86863
-4.58763
15803.4
15745.7
15747.9
15797.6
15765.8
15756.4
42325.2
249951
247441
243981
239921
235712
30059.6
-2.29416
-8.9253
-7.01478
-5.75913
-4.96041
-4.36458
-3.95698
-3.76248
-3.67779
-3.62283
-3.59002
-3.59431
-3.63652
-3.71839
-3.83209
-3.97041
-4.13075
-4.3072
-4.49988
-4.70675
-4.92868
-5.16024
-5.39564
-5.63258
-5.86188
-6.07306
-6.26841
-6.44334
-6.58656
-6.69747
-6.7786
-6.82783
-6.84272
-6.82338
-6.77242
-6.69231
-6.58522
-6.45206
-6.29415
-6.11408
-5.91488
-5.69969
-5.4696
-5.22225
-4.9548
-4.66235
-4.33137
15744.5
15741.4
15754
15750.5
15767.4
15739.2
260312
258003
254898
251094
247009
240301
-20.0306
-8.41298
-8.3377
-6.70521
-5.64136
-4.9246
-4.38442
-4.05761
-3.90595
-3.82066
-3.75337
-3.711
-3.7038
-3.73275
-3.7971
-3.88821
-4.0019
-4.1357
-4.28468
-4.44419
-4.61596
-4.8057
-5.00671
-5.2135
-5.42296
-5.62505
-5.81247
-5.98772
-6.14486
-6.27359
-6.37441
-6.45053
-6.4982
-6.51415
-6.50004
-6.45738
-6.38715
-6.29131
-6.17062
-6.02568
-5.85904
-5.67397
-5.47283
-5.25699
-5.02474
-4.77479
-4.51044
-4.25326
15774
15738.8
15740.3
15746.5
15741.2
240308
268428
265625
262069
258279
254494
37878.5
-1.37007
-9.09319
-7.50277
-6.26125
-5.4248
-4.81256
-4.36718
-4.12646
-4.00664
-3.92012
-3.8467
-3.79991
-3.78523
-3.80393
-3.85321
-3.92514
-4.01775
-4.12825
-4.24906
-4.37571
-4.52081
-4.6841
-4.85876
-5.03933
-5.2233
-5.40101
-5.56757
-5.72466
-5.86437
-5.97892
-6.07002
-6.14089
-6.18666
-6.20312
-6.19326
-6.15774
-6.09687
-6.01231
-5.90421
-5.77427
-5.62468
-5.45823
-5.27776
-5.0845
-4.87868
-4.66169
-4.44098
-4.24172
15864.2
15735.1
15741.2
15735.4
223021
278782
276177
272854
269294
265666
248481
-18.6739
-7.73192
-8.0659
-6.72285
-5.79787
-5.15561
-4.65562
-4.32866
-4.16434
-4.06613
-3.98136
-3.90868
-3.86217
-3.84294
-3.85393
-3.89065
-3.94636
-4.02098
-4.10943
-4.19722
-4.30163
-4.42433
-4.56439
-4.7148
-4.87168
-5.03266
-5.1891
-5.33667
-5.47632
-5.5994
-5.70037
-5.78262
-5.84768
-5.89069
-5.90775
-5.90128
-5.87154
-5.81894
-5.74463
-5.64796
-5.53203
-5.39893
-5.25059
-5.0908
-4.9205
-4.74111
-4.55615
-4.37413
-4.21814
15755.3
15727.7
15731.3
245772
288975
286498
283424
280105
276790
273722
26996.1
-0.605797
-8.28133
-7.01395
-6.03432
-5.36629
-4.86827
-4.49314
-4.27915
-4.16768
-4.08426
-4.00636
-3.94133
-3.89939
-3.87938
-3.88523
-3.91174
-3.95456
-4.01484
-4.0725
-4.13828
-4.22327
-4.32645
-4.4456
-4.57409
-4.71031
-4.85042
-4.98762
-5.11799
-5.24057
-5.34814
-5.4367
-5.51072
-5.56985
-5.60916
-5.62649
-5.62267
-5.59766
-5.55221
-5.48688
-5.4012
-5.29854
-5.18083
-5.0498
-4.90981
-4.76176
-4.60717
-4.45061
-4.30049
-4.17585
73681.9
50678.6
300704
299198
296776
293921
290901
287857
284639
197430
-23.633
-6.67058
-7.38245
-6.2814
-5.5721
-5.07213
-4.67949
-4.4144
-4.27192
-4.18271
-4.10338
-4.02932
-3.97043
-3.93046
-3.9088
-3.90784
-3.92295
-3.95408
-3.99236
-4.02411
-4.0734
-4.14143
-4.22648
-4.32649
-4.43571
-4.55359
-4.67555
-4.79478
-4.90864
-5.01524
-5.10868
-5.18639
-5.25254
-5.30571
-5.34093
-5.35779
-5.35596
-5.33485
-5.29547
-5.23805
-5.16295
-5.07285
-4.96943
-4.85483
-4.73302
-4.60542
-4.47333
-4.34123
-4.21725
-4.11595
422067
422254
422222
422169
422091
421982
421836
421643
421389
421056
420617
420037
419270
418238
416780
414674
411611
407046
399678
386640
421689
421861
421826
421767
421680
421560
421400
421189
420913
420551
420076
419448
418617
417505
415948
413680
410308
405123
396680
382277
421337
421495
421457
421393
421300
421171
421001
420777
420486
420107
419611
418960
418102
416968
415419
413210
409981
405195
398035
387501
421015
421157
421117
421050
420952
420818
420641
420411
420112
419727
419227
418575
417726
416622
415163
413158
410329
406310
400658
392989
420722
420849
420808
420739
420638
420502
420323
420091
419792
419410
418919
418287
417475
416437
415107
413361
411001
407785
403471
397928
420460
420571
420530
420461
420360
420225
420047
419817
419525
419154
418682
418084
417326
416373
415183
413687
411759
409240
405980
401920
420228
420325
420284
420216
420118
419985
419811
419589
419308
418953
418508
417950
417254
416393
415338
414053
412471
410489
408002
404964
420025
420108
420070
420005
419910
419783
419616
419405
419138
418804
418389
417875
417241
416465
415526
414400
413058
411439
409470
407104
419849
419921
419886
419826
419737
419616
419460
419263
419015
418706
418323
417847
417259
416542
415676
414645
413438
412028
410367
408418
419693
419761
419734
419681
419597
419485
419341
419158
418924
418628
418257
417795
417227
416538
415714
414746
413627
412344
410872
409185
419540
419626
419617
419567
419483
419375
419238
419058
418823
418525
418154
417696
417142
416479
415698
414787
413741
412559
411222
409717
419300
419522
419554
419474
419370
419261
419129
418954
418721
418423
418052
417600
417059
416421
415683
414834
413815
412670
411419
410058
172764
419495
419527
419369
419232
419142
419038
418877
418643
418334
417744
415409
409768
398939
381010
353569
312576
248801
175765
103587
0.382687
6100.89
-0.0581527
-0.738553
55.7994
563.128
451.328
-1.94267
-2.63139
-3.30408
-3.99669
-4.75162
-5.41429
-5.98428
-6.0401
-1.04236
5.79251
5.02394
4.69256
4.21581
-0.600412
-0.261085
0.273076
0.327984
0.516312
0.526734
0.41639
0.175611
-0.0214809
-0.184156
-0.329619
-0.468331
-0.577155
-0.645144
-0.580384
-0.132012
-0.298717
-0.846646
-1.33245
-1.65703
-0.142377
-0.0918169
0.345979
0.509678
0.586112
0.614688
0.614124
0.555518
0.463789
0.362413
0.255655
0.143471
0.0294778
-0.0806219
-0.166224
-0.193699
-0.301262
-0.562765
-0.834086
-1.05082
-0.0543207
0.0374523
0.210872
0.334987
0.407414
0.439619
0.438954
0.404729
0.3448
0.269584
0.185238
0.0952158
0.00281726
-0.0879716
-0.171139
-0.247515
-0.35443
-0.511684
-0.689528
-0.859221
-0.0879515
0.0710857
0.158495
0.230977
0.279203
0.302042
0.301214
0.278171
0.236686
0.18165
0.116971
0.0452907
-0.0313091
-0.110652
-0.190962
-0.27437
-0.371607
-0.49017
-0.624035
-0.762717
-0.149854
0.0325325
0.100243
0.143051
0.16929
0.180282
0.176122
0.157311
0.125665
0.083591
0.0329377
-0.0250493
-0.0893199
-0.158613
-0.231973
-0.310359
-0.397608
-0.497132
-0.608186
-0.727081
-0.214248
-0.0352016
0.0250745
0.0518275
0.0622586
0.0636688
0.0558735
0.0387466
0.0129097
-0.0207381
-0.0617001
-0.109615
-0.164123
-0.224656
-0.290471
-0.361709
-0.43996
-0.527172
-0.624009
-0.729324
-0.269274
-0.108185
-0.063212
-0.0496075
-0.048774
-0.0531334
-0.0631174
-0.079017
-0.10088
-0.12879
-0.162924
-0.203454
-0.250463
-0.303732
-0.36275
-0.427343
-0.498178
-0.576564
-0.663554
-0.758894
-0.313227
-0.18812
-0.166078
-0.161391
-0.164207
-0.170756
-0.181158
-0.195732
-0.214776
-0.238757
-0.268105
-0.303322
-0.344802
-0.392452
-0.445965
-0.505178
-0.570365
-0.642464
-0.722359
-0.810023
-0.321867
-0.277752
-0.271012
-0.273963
-0.280011
-0.288097
-0.298791
-0.312614
-0.330044
-0.35162
-0.37787
-0.409485
-0.447027
-0.490484
-0.539672
-0.594707
-0.65579
-0.723241
-0.79767
-0.879208
-0.281659
-0.34798
-0.371473
-0.385097
-0.394935
-0.404538
-0.41558
-0.429029
-0.445669
-0.466113
-0.490873
-0.520587
-0.555752
-0.59645
-0.64272
-0.694844
-0.752985
-0.817083
-0.887283
-0.963467
337435
334721
334596
337484
343455
350968
358450
364647
368835
370803
370625
368398
363990
356549
342966
354900
339000
335103
336907
342171
349057
356049
361886
365847
367705
367503
365313
361048
354308
344519
372011
354747
345475
343494
346327
351615
357346
362178
365399
366795
366404
364304
360505
354946
347705
383423
372074
363265
358632
357852
359659
362532
365191
366931
367448
366658
364557
361152
356491
350794
391236
383589
376894
372159
369631
368883
369170
369681
369858
369363
368025
365764
362568
358513
353807
397063
391479
386251
381954
378834
376778
375462
374463
373411
372035
370158
367684
364587
360925
356844
401335
397067
392833
388982
385707
383030
380825
378894
377021
375016
372736
370089
367036
363576
359762
404281
400886
397355
393904
390692
387792
385182
382776
380452
378086
375564
372765
369629
366453
327613
406110
403308
400308
397247
394257
391413
388731
386173
383661
381080
378384
375876
317622
36803.2
-11.3374
407220
404842
402278
399608
396921
394270
391659
389046
386649
382862
264283
898.856
-7.46417
3.12462
-3.30735
407987
405907
403691
401306
398865
396632
393860
328316
115737
-52.935
4.07536
-0.730986
-4.27959
-4.56888
-4.19423
408571
406824
399917
358599
241712
68888.1
-45.642
-3.02929
4.40765
-2.95289
-3.93736
-4.1239
-4.03117
-3.81301
-3.74395
42185.6
-35.7578
-29.0587
-3.77441
5.96172
3.78417
-3.30731
-3.20211
-3.62969
-3.6085
-3.36097
-3.38731
-3.45865
-3.46734
-3.4689
3.35613
-0.695374
-3.00987
-1.82937
-3.30829
-2.84785
-3.07235
-2.95839
-2.91369
-2.98401
-3.03413
-3.0941
-3.15562
-3.20191
-3.23988
-1.60109
-1.53314
-1.92841
-1.92505
-2.12814
-2.27105
-2.43392
-2.54506
-2.62719
-2.71165
-2.78835
-2.86239
-2.93406
-2.99858
-3.05526
-1.17885
-1.30622
-1.52064
-1.67017
-1.8403
-1.99869
-2.14621
-2.27659
-2.38989
-2.49401
-2.58917
-2.67711
-2.75896
-2.83391
-2.9013
-1.00863
-1.15926
-1.32366
-1.47951
-1.63713
-1.79312
-1.94219
-2.08112
-2.20771
-2.32331
-2.42911
-2.52618
-2.61521
-2.6967
-2.77063
-0.902331
-1.05022
-1.20032
-1.35017
-1.50137
-1.65255
-1.79989
-1.93994
-2.07049
-2.19138
-2.30269
-2.40468
-2.49773
-2.58275
-2.65994
-0.853142
-0.991227
-1.13129
-1.27308
-1.417
-1.56186
-1.70456
-1.84178
-1.97172
-2.09355
-2.20631
-2.30926
-2.4029
-2.48823
-2.56543
-0.843831
-0.971936
-1.10313
-1.23692
-1.37333
-1.51115
-1.64763
-1.77986
-1.90591
-2.02456
-2.13437
-2.2342
-2.32466
-2.40702
-2.48146
-0.863952
-0.983254
-1.10646
-1.2327
-1.36163
-1.49176
-1.62062
-1.74551
-1.86433
-1.97583
-2.0787
-2.17238
-2.25762