/*--------------------------------*- C++ -*----------------------------------*\
| =========                 |                                                 |
| \\      /  F ield         | OpenFOAM: The Open Source CFD Toolbox           |
|  \\    /   O peration     | Version:  v1912                                 |
|   \\  /    A nd           | Website:  www.openfoam.com                      |
|    \\/     M anipulation  |                                                 |
\*---------------------------------------------------------------------------*/
FoamFile
{
    version     2.0;
    format      ascii;
    class       surfaceScalarField;
    location    "18";
    object      phi;
}
// * * * * * * * * * * * * * * * * * * * * * * * * * * * * * * * * * * * * * //

dimensions      [0 3 -1 0 0 0 0];
oriented        oriented;


internalField   nonuniform List<scalar> 
40282
(
0.00282517
0.00262891
1.9382
-1.94493
1.93934
0.00558444
-1.93043
1.91846
0.0119663
-1.90342
1.88549
0.0179306
-1.86485
1.84139
0.0234615
-1.81511
1.78627
0.0288411
-1.75489
1.72094
0.0339469
-1.68463
1.64604
0.0385916
-1.60517
1.56215
0.0430224
-1.51708
1.46996
0.0471241
-1.42088
1.37006
0.0508238
-1.31757
1.26351
0.054053
-1.2081
1.15159
0.0565148
-1.09401
1.03557
0.058439
-0.976958
0.918181
0.0587772
-0.85945
0.80131
0.0581401
-0.742676
0.680844
0.061832
-0.609305
0.522379
0.0869257
-0.416542
0.286202
0.13034
-0.147443
0.0389215
0.108522
-0.0041854
0.00555584
1.87265
-1.86824
1.86137
-0.0139807
0.020847
-1.8518
1.83949
-0.0253353
0.037649
-1.82445
1.80668
-0.0364423
0.0542032
-1.78623
1.76317
-0.0472374
0.0702985
-1.73754
1.70937
-0.0577008
0.0858745
-1.67873
1.64568
-0.0677662
0.100819
-1.61026
1.57255
-0.0773058
0.115012
-1.53259
1.49046
-0.0862492
0.128378
-1.44625
1.39996
-0.0945154
0.140802
-1.35174
1.30167
-0.102131
0.152201
-1.24973
1.19609
-0.108826
0.162459
-1.14086
1.08393
-0.114439
0.171365
-1.02565
0.966238
-0.118977
0.178386
-0.905599
0.844198
-0.121063
0.182464
-0.781938
0.716655
-0.122084
0.187367
-0.645946
0.569574
-0.133369
0.209741
-0.489568
0.408423
-0.169622
0.250767
-0.328535
0.252134
-0.214339
0.29074
-0.176138
0.0934369
-0.201465
0.284166
-0.00696284
0.00830343
1.80554
-1.80138
1.79461
-0.0279304
0.0347
-1.78521
1.77319
-0.0501632
0.0621773
-1.75858
1.74138
-0.072052
0.0892518
-1.72162
1.69932
-0.0934096
0.115709
-1.67452
1.64725
-0.114095
0.141361
-1.61755
1.58547
-0.133975
0.166056
-1.55105
1.51435
-0.152868
0.18957
-1.47544
1.43437
-0.170667
0.211732
-1.39121
1.34606
-0.187287
0.232435
-1.29899
1.25003
-0.202548
0.251501
-1.19933
1.14694
-0.216365
0.268755
-1.09292
1.03747
-0.22855
0.284002
-0.980693
0.922656
-0.238147
0.296185
-0.863395
0.802011
-0.244769
0.306153
-0.736798
0.667059
-0.257075
0.326814
-0.593657
0.518191
-0.288022
0.363488
-0.44233
0.367513
-0.330103
0.404921
-0.294664
0.223697
-0.365177
0.436144
-0.15295
0.0794592
-0.362512
0.436003
-0.0095861
0.0108621
1.74088
-1.73703
1.73063
-0.0413873
0.0477862
-1.72168
1.71018
-0.0741444
0.0856392
-1.69618
1.67967
-0.106423
0.122926
-1.66068
1.63924
-0.138005
0.15945
-1.61536
1.58907
-0.168664
0.194951
-1.56043
1.52945
-0.198193
0.22917
-1.49616
1.46064
-0.226386
0.261915
-1.42291
1.38303
-0.253003
0.292889
-1.34105
1.29705
-0.277883
0.321889
-1.25105
1.20318
-0.30086
0.348728
-1.15353
1.10214
-0.321652
0.373041
-1.04921
0.994884
-0.339926
0.394251
-0.939189
0.882124
-0.354757
0.411822
-0.822984
0.760464
-0.36923
0.431751
-0.6942
0.625071
-0.397871
0.466999
-0.554349
0.483162
-0.438191
0.509378
-0.412397
0.342661
-0.478317
0.548054
-0.274184
0.206681
-0.506539
0.574043
-0.139302
0.0708039
-0.508007
0.576506
-0.0120827
0.0132915
1.67853
-1.67488
1.66878
-0.054151
0.0602475
-1.66026
1.64932
-0.0970684
0.108004
-1.63597
1.62022
-0.139363
0.155118
-1.60209
1.5816
-0.180819
0.201308
-1.55876
1.5336
-0.221162
0.246319
-1.50615
1.47641
-0.260104
0.289843
-1.44444
1.41028
-0.297418
0.331575
-1.37395
1.3355
-0.332803
0.371257
-1.29497
1.2524
-0.365996
0.408567
-1.20787
1.16146
-0.396752
0.443164
-1.11319
1.06321
-0.424709
0.474688
-1.01167
0.958593
-0.449007
0.502085
-0.904046
0.847624
-0.4696
0.526021
-0.788267
0.725568
-0.495667
0.558366
-0.660265
0.593455
-0.536289
0.603099
-0.526051
0.458707
-0.579786
0.64713
-0.391865
0.325768
-0.617024
0.68312
-0.260437
0.195642
-0.641237
0.706032
-0.130925
0.0657346
-0.644335
0.709526
-0.0144428
0.0155772
1.61853
-1.61491
1.60916
-0.0662855
0.0720307
-1.60113
1.5908
-0.118838
0.129164
-1.57819
1.5633
-0.170736
0.185621
-1.54616
1.52674
-0.221644
0.241062
-1.50507
1.48117
-0.271317
0.295216
-1.45505
1.42672
-0.319433
0.347754
-1.39624
1.36359
-0.365616
0.398267
-1.3288
1.29194
-0.409633
0.446495
-1.25301
1.21207
-0.451116
0.49206
-1.16918
1.12437
-0.489634
0.534448
-1.07772
1.02937
-0.524788
0.573131
-0.979376
0.927784
-0.555426
0.607018
-0.874473
0.818622
-0.583186
0.639036
-0.759615
0.697916
-0.621802
0.683501
-0.634517
0.570277
-0.669797
0.734037
-0.505787
0.441429
-0.71406
0.778417
-0.377441
0.313925
-0.748939
0.812456
-0.250851
0.188058
-0.770744
0.833537
-0.125284
0.0623284
-0.774436
0.837392
-0.0166504
0.0176988
1.56035
-1.5573
1.55196
-0.0776842
0.0830316
-1.54446
1.53483
-0.139345
0.148981
-1.52306
1.50916
-0.200294
0.214198
-1.4931
1.47489
-0.260243
0.27845
-1.45455
1.43208
-0.318853
0.341327
-1.40747
1.38075
-0.375808
0.402532
-1.3519
1.32094
-0.430691
0.461653
-1.28791
1.25282
-0.483162
0.518252
-1.21567
1.17653
-0.53286
0.572001
-1.13542
1.09237
-0.579218
0.622272
-1.0475
1.00089
-0.621513
0.668123
-0.952554
0.902537
-0.658776
0.708793
-0.850355
0.795217
-0.695575
0.750713
-0.737171
0.677043
-0.745561
0.805689
-0.615699
0.553753
-0.798227
0.860172
-0.491596
0.429476
-0.842698
0.904818
-0.367537
0.305835
-0.876029
0.937731
-0.244342
0.182948
-0.896404
0.957799
-0.121496
0.0599992
-0.900245
0.961742
-0.0186813
0.0196311
1.50463
-1.50184
1.49693
-0.088259
0.0931652
-1.49006
1.48122
-0.158401
0.167239
-1.47041
1.45759
-0.227818
0.240635
-1.44277
1.42595
-0.296305
0.313121
-1.40713
1.38626
-0.363417
0.384283
-1.36336
1.33842
-0.428863
0.453803
-1.31142
1.28238
-0.492234
0.521273
-1.25131
1.21819
-0.553009
0.586132
-1.18303
1.14587
-0.61087
0.64803
-1.10671
1.06561
-0.665146
0.706245
-1.02267
0.977891
-0.71468
0.759458
-0.931332
0.882862
-0.758933
0.807403
-0.831765
0.777611
-0.806379
0.860534
-0.720891
0.662451
-0.866038
0.924478
-0.602971
0.542894
-0.922222
0.982299
-0.482502
0.421979
-0.967137
1.02766
-0.361437
0.300924
-0.99974
1.06025
-0.240428
0.179877
-1.01938
1.07994
-0.119176
0.0585213
-1.02321
1.08386
-0.0205111
0.0213513
1.45079
-1.44811
1.44371
-0.0979132
0.102315
-1.43754
1.4296
-0.175796
0.183741
-1.41984
1.40827
-0.253077
0.264653
-1.39487
1.37962
-0.329466
0.34471
-1.36249
1.34344
-0.404637
0.423687
-1.32247
1.29955
-0.478206
0.501126
-1.27465
1.24779
-0.549773
0.576641
-1.21891
1.18799
-0.618774
0.649691
-1.15506
1.1201
-0.684779
0.719735
-1.08311
1.04417
-0.74703
0.785972
-1.0033
0.960502
-0.804084
0.846886
-0.915813
0.868864
-0.855991
0.90294
-0.818953
0.76604
-0.915066
0.967979
-0.710791
0.653941
-0.983147
1.04
-0.596019
0.537365
-1.04268
1.10133
-0.478211
0.418715
-1.08865
1.14815
-0.358987
0.299088
-1.12134
1.18123
-0.239034
0.178786
-1.14083
1.20108
-0.118296
0.0580087
-1.14465
1.20494
-0.0221181
0.0228369
1.39902
-1.39667
1.39284
-0.106515
0.110347
-1.38746
1.3805
-0.191342
0.198299
-1.37194
1.36178
-0.275747
0.285914
-1.34997
1.33647
-0.359369
0.37287
-1.32123
1.30423
-0.442077
0.459078
-1.28544
1.26479
-0.523344
0.543986
-1.24227
1.21782
-0.602806
0.627251
-1.1914
1.16297
-0.679952
0.708384
-1.13252
1.10003
-0.754119
0.786614
-1.06547
1.0289
-0.824458
0.861034
-0.990276
0.949621
-0.889417
0.930072
-0.906881
0.861504
-0.949968
0.995346
-0.812953
0.761449
-1.02116
1.07266
-0.707656
0.652182
-1.09715
1.15263
-0.595449
0.537746
-1.16051
1.21821
-0.479284
0.420225
-1.2084
1.26746
-0.360693
0.300781
-1.24202
1.30193
-0.240543
0.179985
-1.26195
1.32251
-0.119125
0.0588614
-1.26595
1.32621
-0.023478
0.0240623
1.34895
-1.34697
1.34377
-0.113937
0.117142
-1.33925
1.3334
-0.204838
0.210693
-1.32618
1.31758
-0.295489
0.30409
-1.30753
1.29597
-0.38566
0.397221
-1.28286
1.26817
-0.475249
0.48994
-1.25183
1.23375
-0.563741
0.581819
-1.21389
1.19217
-0.6508
0.672514
-1.16853
1.14293
-0.735947
0.76155
-1.11532
1.08561
-0.818334
0.848037
-1.05381
1.01989
-0.896977
0.930899
-0.98379
0.945528
-0.970302
1.00856
-0.904908
0.861311
-1.04069
1.08429
-0.81438
0.76444
-1.12433
1.17427
-0.712072
0.657767
-1.2085
1.2628
-0.601881
0.54468
-1.27666
1.33386
-0.486376
0.427148
-1.32759
1.38682
-0.367155
0.306533
-1.36312
1.42374
-0.24539
0.183796
-1.38414
1.44574
-0.121891
0.0614187
-1.3887
1.44917
-0.0245652
0.0250035
1.30076
-1.299
1.29648
-0.120066
0.122591
-1.2929
1.28826
-0.216053
0.220696
-1.28252
1.27562
-0.311998
0.318895
-1.2675
1.25809
-0.407927
0.417335
-1.24736
1.23523
-0.503629
0.515756
-1.2216
1.20639
-0.598813
0.614025
-1.18952
1.1709
-0.693106
0.711729
-1.15043
1.12806
-0.786038
0.808414
-1.10367
1.07717
-0.876715
0.903213
-1.04852
1.01765
-0.963957
0.99483
-0.984469
0.948947
-1.0462
1.08172
-0.910766
0.869316
-1.12766
1.16911
-0.824356
0.776184
-1.22427
1.27244
-0.725258
0.671971
-1.31758
1.37086
-0.616634
0.559504
-1.39203
1.44916
-0.500807
0.440754
-1.44747
1.50753
-0.379547
0.317386
-1.48613
1.54829
-0.254457
0.190929
-1.50907
1.5726
-0.127147
0.0662794
-1.51482
1.57569
-0.0253589
0.0256434
1.25446
-1.25313
1.25133
-0.1248
0.126603
-1.24877
1.24542
-0.224773
0.228117
-1.24125
1.23618
-0.325006
0.330079
-1.23013
1.22308
-0.425744
0.432801
-1.21494
1.20561
-0.526712
0.536042
-1.19497
1.18294
-0.627942
0.639975
-1.16941
1.15427
-0.728978
0.74412
-1.1374
1.1187
-0.829397
0.848102
-1.09801
1.07522
-0.928388
0.95118
-1.05023
1.02293
-1.02454
1.05184
-0.993196
0.960914
-1.11633
1.14861
-0.925686
0.886939
-1.21004
1.24879
-0.844447
0.798385
-1.32048
1.36655
-0.749058
0.696761
-1.42464
1.47694
-0.641764
0.584318
-1.50747
1.56492
-0.524664
0.46305
-1.56942
1.63103
-0.399736
0.335003
-1.61286
1.67759
-0.269153
0.202502
-1.63887
1.70552
-0.135705
0.074372
-1.64682
1.70815
-0.0258456
0.025973
1.20947
-1.20878
1.20773
-0.128059
0.129108
-1.20622
1.20424
-0.230838
0.232827
-1.2017
1.19855
-0.334279
0.337431
-1.19473
1.19018
-0.438728
0.443277
-1.18481
1.17849
-0.544038
0.550359
-1.1711
1.16256
-0.650493
0.659036
-1.15273
1.14149
-0.757613
0.768863
-1.12867
1.11414
-0.865097
0.879628
-1.09771
1.07924
-0.972284
0.99076
-1.05857
1.03554
-1.07757
1.1006
-1.00997
0.981665
-1.17958
1.20789
-0.950187
0.914987
-1.28658
1.32178
-0.875755
0.832456
-1.41217
1.45547
-0.785199
0.73416
-1.52963
1.58067
-0.679545
0.621578
-1.6237
1.68167
-0.560505
0.4966
-1.69493
1.75883
-0.430182
0.361639
-1.74555
1.81409
-0.291434
0.220113
-1.77634
1.84766
-0.1488
0.0868851
-1.78808
1.84999
-0.0260213
0.0259936
1.16635
-1.16611
1.16583
-0.129788
0.130073
-1.1654
1.16478
-0.234154
0.234772
-1.16391
1.16274
-0.339637
0.340812
-1.16121
1.15926
-0.446594
0.448544
-1.15677
1.15362
-0.555201
0.558354
-1.1497
1.14491
-0.665854
0.670641
-1.13911
1.13213
-0.77819
0.785167
-1.12382
1.11398
-0.892102
0.901935
-1.10243
1.08896
-1.00712
1.02059
-1.07339
1.05548
-1.12157
1.13948
-1.035
1.01167
-1.23433
1.25767
-0.985043
0.954588
-1.35539
1.38585
-0.919815
0.880395
-1.49777
1.53719
-0.836174
0.787144
-1.63177
1.6808
-0.733392
0.675065
-1.74097
1.79929
-0.612357
0.545531
-1.82544
1.89227
-0.474941
0.401085
-1.88687
1.96073
-0.324644
0.246492
-1.92522
2.00337
-0.16834
0.105822
-1.94288
2.00539
-0.0258922
0.0257163
1.12472
-1.12475
1.12521
-0.12998
0.129518
-1.12583
1.12655
-0.23471
0.233984
-1.12733
1.12813
-0.341001
0.340206
-1.12889
1.12955
-0.449198
0.44854
-1.12999
1.13008
-0.559915
0.559818
-1.12976
1.1289
-0.673529
0.674382
-1.12737
1.12497
-0.789972
0.792365
-1.12155
1.11691
-0.909365
0.914005
-1.11084
1.1031
-1.03148
1.03921
-1.09348
1.08168
-1.15473
1.16653
-1.06741
1.05031
-1.27844
1.29553
-1.03
1.00592
-1.41386
1.43794
-0.977377
0.943651
-1.57473
1.60846
-0.904227
0.858805
-1.72918
1.7746
-0.807249
0.749515
-1.85862
1.91636
-0.685638
0.615749
-1.96208
2.03197
-0.540135
0.459344
-2.04007
2.12086
-0.374294
0.286343
-2.09079
2.17874
-0.198011
0.1349
-2.1186
2.18171
-0.0254746
0.0251623
1.08458
-1.08522
1.08639
-0.128682
0.127516
-1.08799
1.08999
-0.232584
0.230585
-1.09234
1.09503
-0.338419
0.335733
-1.09801
1.10119
-0.446566
0.443379
-1.10449
1.10781
-0.558067
0.554746
-1.11109
1.11422
-0.673219
0.670087
-1.11705
1.11942
-0.79239
0.79002
-1.12117
1.12211
-0.91593
0.914994
-1.12202
1.12067
-1.04391
1.04526
-1.11781
1.11315
-1.17504
1.17971
-1.1063
1.0969
-1.30922
1.31862
-1.08461
1.06894
-1.45846
1.47412
-1.049
1.02364
-1.63896
1.66432
-0.991845
0.952895
-1.81805
1.857
-0.90627
0.85156
-1.97411
2.02882
-0.788425
0.716613
-2.10463
2.17644
-0.636065
0.547104
-2.20843
2.2974
-0.450708
0.348775
-2.28037
2.3823
-0.244963
0.180027
-2.32628
2.39122
-0.0247943
0.0243619
1.04574
-1.04676
1.04856
-0.125995
0.124194
-1.05106
1.05422
-0.227941
0.224783
-1.05801
1.06244
-0.332089
0.327665
-1.06746
1.073
-0.438905
0.433362
-1.07899
1.08538
-0.549774
0.543385
-1.09212
1.09912
-0.664901
0.657898
-1.10626
1.11338
-0.785168
0.778041
-1.12037
1.12706
-0.911115
0.904421
-1.13327
1.13878
-1.04318
1.03768
-1.14334
1.14667
-1.18048
1.17715
-1.1484
1.14814
-1.32371
1.32397
-1.14567
1.14068
-1.48493
1.48992
-1.13222
1.11875
-1.6846
1.69807
-1.09873
1.07085
-1.89175
1.91963
-1.03408
0.987427
-2.08134
2.12799
-0.929903
0.860464
-2.24949
2.31893
-0.778127
0.68225
-2.3937
2.48957
-0.573019
0.452224
-2.50394
2.62473
-0.324974
0.253172
-2.58511
2.65691
-0.0238852
0.0233523
1.00837
-1.00992
1.01227
-0.122068
0.119719
-1.01554
1.0197
-0.221033
0.216868
-1.02476
1.03071
-0.322353
0.316404
-1.03753
1.04516
-0.426612
0.418973
-1.05358
1.06275
-0.535418
0.526247
-1.07266
1.08325
-0.648894
0.638307
-1.09441
1.10606
-0.768436
0.756788
-1.11811
1.13045
-0.894693
0.882351
-1.14295
1.15543
-1.02851
1.01603
-1.16768
1.17952
-1.16946
1.15763
-1.19061
1.2006
-1.31912
1.30913
-1.20942
1.21709
-1.48876
1.48109
-1.22292
1.22523
-1.70423
1.70192
-1.22202
1.21146
-1.94008
1.95064
-1.19195
1.16191
-2.16842
2.19845
-1.11958
1.06283
-2.38531
2.44206
-0.989103
0.895552
-2.59029
2.68384
-0.779428
0.639447
-2.77137
2.91135
-0.480558
0.38809
-2.93038
3.02285
-0.0227872
0.022175
0.972484
-0.974117
0.976912
-0.117087
0.114292
-0.980813
0.985806
-0.212181
0.207188
-0.9919
0.999112
-0.309668
0.302456
-1.00743
1.01683
-0.410253
0.400853
-1.0273
1.03885
-0.515639
0.504086
-1.0515
1.06521
-0.625868
0.612157
-1.07993
1.09562
-0.742793
0.727103
-1.11225
1.12979
-0.867059
0.84952
-1.14817
1.16728
-0.999874
0.980766
-1.18699
1.20722
-1.14125
1.12102
-1.22779
1.24843
-1.29353
1.27289
-1.26917
1.29051
-1.46635
1.44501
-1.31239
1.3335
-1.69026
1.66915
-1.35176
1.36509
-1.94999
1.93666
-1.37165
1.36972
-2.21629
2.21822
-1.35733
1.33197
-2.48699
2.51235
-1.29012
1.22694
-2.77115
2.83433
-1.13546
1.0067
-3.07352
3.20228
-0.83602
0.737945
-3.41797
3.51605
0.0661486
-0.0399349
-0.0262137
0.0124181
-0.0912642
0.0788462
0.155903
-0.195008
0.0391046
0.179798
-0.146777
-0.0330207
0.141153
-0.15743
0.0162769
0.174774
-0.18513
0.0103555
0.208326
-0.248035
0.0397086
0.301553
-0.36957
0.0680175
0.455362
-0.564653
0.109291
0.704389
-0.880793
0.176404
1.09736
-1.35518
0.257821
1.65312
-1.9846
0.331479
2.33984
-2.7135
0.373654
3.08212
-3.39731
0.315191
3.68124
-3.91164
0.230398
4.11592
-4.31928
0.203364
4.53739
-4.78429
0.246907
4.94675
-4.68076
-0.26599
3.52403
-1.65241
-1.87161
0.0373302
1.23518
-1.27251
-2.23777
3.04872
-0.810949
-3.71967
4.28286
-0.563184
-4.75686
5.15291
-0.396046
-5.47914
5.74311
-0.263972
-5.95245
6.11502
-0.162566
-6.23842
6.32971
-0.0912868
-6.39516
6.4401
-0.04494
-6.46908
6.48574
-0.0166624
-6.49325
6.49419
-0.000940587
-6.48918
6.48045
0.0087312
-6.46921
6.4562
0.0130058
-6.44198
6.42694
0.0150392
-6.4114
6.3956
0.0157983
-6.37975
6.364
0.0157491
-6.34847
6.3332
0.0152651
-6.31825
6.30362
0.0146277
-6.28932
6.27533
0.0139892
-6.26162
6.24816
0.0134582
-6.23494
6.22194
0.0129979
-6.20916
6.19659
0.0125729
-6.18421
6.17202
0.0121926
-6.16002
6.1482
0.0118205
-6.13657
6.12514
0.0114374
-6.11388
6.10278
0.0111041
-6.09181
6.08096
0.0108578
-6.0702
6.05953
0.0106728
-6.04896
6.03849
0.0104695
-6.02814
6.01789
0.0102505
-6.00772
5.99754
0.0101783
-5.98733
5.97704
0.0102989
-5.9667
5.95633
0.0103677
-5.94606
5.93591
0.0101519
-5.92593
5.91599
0.00994673
-5.90595
5.89567
0.0102821
-5.88507
5.87434
0.0107295
-5.86348
5.8529
0.0105723
-5.84226
5.83208
0.0101806
-5.82141
5.8113
0.0101139
-5.8004
5.79062
0.00978336
-5.78001
5.77096
0.00905377
-0.00995193
0.0668587
-0.0569067
0.0710889
-0.101685
-0.124837
0.155434
0.137578
-0.169297
-0.0718122
0.103531
0.189055
-0.189974
0.0449202
-0.0440017
0.17465
-0.160385
-0.0127587
-0.00150621
0.157096
-0.161624
-0.0195052
0.0240328
0.169518
-0.183612
-0.0639653
0.0780593
0.20665
-0.240944
-0.118589
0.152884
0.2889
-0.353458
-0.196044
0.260603
0.438275
-0.548976
-0.319361
0.430062
0.691884
-0.873013
-0.479878
0.661007
1.09678
-1.36505
-0.639046
0.907309
1.68232
-2.06589
-0.764783
1.14836
2.52013
-2.97248
-0.680179
1.13253
3.37624
-3.69916
-0.48282
0.805738
3.92462
-4.03418
-0.307016
0.416573
4.00045
-3.78375
-0.211203
-0.005491
3.41194
-3.06727
0.511562
-0.85623
2.46798
-1.42042
3.21459
-4.26215
0.208593
0.909358
2.46933
-3.58728
-1.88477
2.7212
1.64172
-2.47815
-3.43787
4.0512
1.15473
-1.76806
-4.57453
5.01721
0.817751
-1.26043
-5.38615
5.68802
0.549899
-0.851771
-5.93025
6.12058
0.342302
-0.532628
-6.26699
6.37723
0.19486
-0.305106
-6.45825
6.5161
0.0984371
-0.156284
-6.55591
6.58186
0.0395694
-0.0655219
-6.59725
6.60517
0.00524475
-0.0131631
-6.60751
6.60551
-0.0131294
0.0151339
-6.60066
6.5938
-0.0224425
0.0293008
-6.58562
6.5766
-0.0267225
0.0357431
-6.56709
6.55732
-0.0283088
0.0380807
-6.54746
6.53766
-0.0282949
0.0381002
-6.52798
6.5185
-0.027419
0.0369061
-6.50924
6.5002
-0.0262399
0.035282
-6.49136
6.48273
-0.0250693
0.0336975
-6.47427
6.46596
-0.0240719
0.0323828
-6.45779
6.44973
-0.023244
0.031305
-6.44177
6.4339
-0.0225021
0.030368
-6.4261
6.41839
-0.0218351
0.029553
-6.41073
6.40313
-0.0212095
0.0288165
-6.39557
6.38807
-0.0206005
0.0281053
-6.38059
6.37316
-0.0200617
0.0274964
-6.36572
6.35826
-0.0197036
0.0271635
-6.35076
6.3432
-0.0194848
0.0270477
-6.33558
6.32793
-0.019243
0.0268961
-6.32024
6.31253
-0.0189525
0.0266554
-6.30479
6.29696
-0.0189124
0.0267447
-6.28897
6.2808
-0.019285
0.0274637
-6.27237
6.26375
-0.0196272
0.0282427
-6.25502
6.2463
-0.0193689
0.0280901
-6.23765
6.22905
-0.0190272
0.0276243
-6.22033
6.2113
-0.0197725
0.0287979
-6.20188
6.1921
-0.0208602
0.0306424
-6.18217
6.17223
-0.0207729
0.0307046
-6.16256
6.15296
-0.0201228
0.0297186
-6.14353
6.1338
-0.0201846
0.0299105
-6.12421
6.11431
-0.0198777
0.0297783
-6.10505
6.09588
-0.0183563
0.0275249
-0.126268
0.185317
-0.0590496
0.0896849
-0.112485
-0.179524
0.202324
0.139212
-0.165869
-0.133266
0.159923
0.188179
-0.198778
0.0367616
-0.0261624
0.191268
-0.170629
0.020955
-0.0415947
0.14997
-0.140229
-0.0228036
0.0130623
0.136753
-0.135707
-0.0840075
0.0829621
0.136843
-0.141742
-0.171388
0.176287
0.152431
-0.170644
-0.300945
0.319158
0.197761
-0.235918
-0.503817
0.541973
0.289095
-0.361807
-0.789574
0.862286
0.458801
-0.584473
-1.11086
1.23653
0.740437
-0.928279
-1.46986
1.6577
1.32147
-2.24213
-1.6985
2.61917
2.88511
-3.26038
-1.21228
1.58756
3.91172
-4.67619
-0.589162
1.35364
5.25992
-5.32026
0.251351
-0.191012
4.43036
-2.26668
1.45166
-3.61534
1.2616
-0.513763
5.09191
-5.83975
-0.271074
1.10326
4.56821
-5.4004
-1.91644
2.67236
3.27886
-4.03478
-3.35515
3.96177
2.37919
-2.98582
-4.49168
4.9456
1.70863
-2.16256
-5.32538
5.63554
1.15802
-1.46817
-5.88251
6.07489
0.72483
-0.917211
-6.22183
6.33185
0.416016
-0.526035
-6.41271
6.47113
0.214812
-0.273235
-6.51234
6.54069
0.0927762
-0.121131
-6.55958
6.57155
0.0230063
-0.0349689
-6.57851
6.58198
-0.0145923
0.011125
-6.583
6.58236
-0.0332963
0.0339399
-6.58062
6.57817
-0.0416893
0.0441329
-6.57529
6.57213
-0.0446921
0.0478485
-6.56883
6.56547
-0.0448014
0.0481643
-6.56209
6.55872
-0.0433975
0.0467699
-6.55536
6.55199
-0.0415002
0.0448695
-6.54861
6.54521
-0.0397169
0.0431217
-6.54175
6.53824
-0.0382583
0.0417693
-6.53466
6.53099
-0.0371072
0.0407839
-6.52723
6.52338
-0.0361636
0.0400141
-6.51942
6.51538
-0.0353486
0.0393883
-6.51124
6.50698
-0.0346454
0.0389051
-6.50262
6.49815
-0.0340063
0.0384827
-6.49356
6.48887
-0.0334662
0.0381557
-6.48405
6.47908
-0.0332647
0.0382361
-6.47394
6.46859
-0.0333935
0.0387362
-6.46305
6.45732
-0.0334862
0.039215
-6.45144
6.44544
-0.0333873
0.0393848
-6.43934
6.43308
-0.0336856
0.0399453
-6.42658
6.41977
-0.0348601
0.041665
-6.41259
6.40503
-0.0362079
0.0437686
-6.3972
6.38927
-0.0362952
0.0442212
-6.38141
6.37365
-0.0357101
0.0434665
-6.36578
6.35756
-0.0373148
0.0455396
-6.34881
6.33954
-0.0400465
0.049313
-6.32996
6.32041
-0.0403158
0.0498637
-6.31115
6.30217
-0.0389013
0.0478814
-6.29332
6.2843
-0.0391784
0.0481963
-6.27514
6.2658
-0.0392878
0.0486227
-6.25693
6.2485
-0.0362504
0.0446845
-0.244723
0.303453
-0.0587296
0.0960418
-0.122104
-0.226242
0.252304
0.145154
-0.167344
-0.183532
0.205723
0.189664
-0.201902
0.0144981
-0.00225953
0.200453
-0.18603
0.0594015
-0.0738238
0.162638
-0.138861
0.00484778
-0.0286241
0.119895
-0.105131
-0.0752371
0.0604732
0.0907015
-0.0747435
-0.169668
0.15371
0.0572959
-0.0389055
-0.317325
0.298934
0.0190092
0.00332037
-0.547374
0.525044
-0.0290515
0.0588667
-0.879495
0.849679
-0.0942258
0.14018
-1.27251
1.22656
-0.218237
0.468536
-1.66816
1.41786
-0.665847
1.19353
-2.61797
2.09028
-0.219616
-1.36484
-2.87877
4.46323
2.55195
-3.32719
-2.15858
2.93381
3.70818
-3.68433
-0.0108996
-0.0129459
2.8727
-1.80132
5.23102
-6.30239
0.247954
0.50709
6.61679
-7.37183
-1.06132
1.63994
6.08349
-6.66211
-2.25272
2.87214
4.71721
-5.33663
-3.47013
4.029
3.56664
-4.12551
-4.53168
4.96835
2.60686
-3.04353
-5.3319
5.62522
1.76997
-2.0633
-5.8542
6.0292
1.10142
-1.27642
-6.16066
6.25912
0.630312
-0.728767
-6.33243
6.38722
0.329308
-0.384096
-6.42828
6.45943
0.150152
-0.181311
-6.48336
6.50207
0.0495643
-0.0682721
-6.51694
6.52901
-0.00396719
-0.00810651
-6.53902
6.54752
-0.0304629
0.021966
-6.55491
6.56139
-0.0424188
0.03594
-6.56716
6.57234
-0.0470165
0.0418383
-6.57701
6.58121
-0.0478355
0.0436319
-6.58501
6.58842
-0.0467899
0.0433786
-6.59145
6.5941
-0.0452099
0.042568
-6.59637
6.59826
-0.0438305
0.0419416
-6.59979
6.60094
-0.0428767
0.0417184
-6.60176
6.60221
-0.0423055
0.041847
-6.60235
6.60216
-0.0419411
0.0421316
-6.60168
6.6009
-0.0416988
0.0424782
-6.59985
6.59849
-0.0416064
0.0429593
-6.59686
6.59495
-0.0415728
0.0434852
-6.59279
6.59039
-0.0415982
0.0440025
-6.58775
6.58483
-0.0420751
0.044992
-6.58162
6.57807
-0.043083
0.0466366
-6.57418
6.56995
-0.0440895
0.04832
-6.56546
6.56077
-0.0446206
0.0493149
-6.55592
6.55088
-0.045496
0.0505383
-6.54557
6.53985
-0.0478309
0.0535476
-6.53363
6.52684
-0.0508421
0.0576383
-6.51957
6.51207
-0.0518274
0.059324
-6.50469
6.49756
-0.0508095
0.0579348
-6.49045
6.48291
-0.0533314
0.0608693
-6.47468
6.46568
-0.0583359
0.067332
-6.4562
6.44671
-0.0592561
0.0687491
-6.43769
6.42922
-0.0565106
0.0649835
-6.42098
6.41256
-0.0568432
0.0652642
-6.40379
6.39477
-0.057683
0.0666977
-6.38607
6.3782
-0.0527217
0.0605917
-0.362629
0.42143
-0.0588014
0.100287
-0.127894
-0.279342
0.306948
0.146574
-0.16923
-0.227766
0.250422
0.196124
-0.205693
-0.00881749
0.0183868
0.208251
-0.199764
0.0848857
-0.0933737
0.180938
-0.154366
0.0548825
-0.0814552
0.122921
-0.0928528
-0.0382657
0.00819707
0.0668551
-0.038378
-0.130807
0.10233
0.00423983
0.0364695
-0.267818
0.227108
-0.0851269
0.143981
-0.481758
0.422903
-0.21634
0.305397
-0.784721
0.695663
-0.414558
0.546123
-1.12762
0.996057
-0.705568
0.88
-1.17484
1.00041
-0.99936
1.42002
-1.65087
1.2302
-1.46285
0.42867
-5.78269
6.81687
0.687287
-1.3858
-3.6563
4.35481
1.47587
-0.972863
0.33732
-0.840324
0.135262
0.453874
6.9545
-7.54364
-0.87567
1.35715
8.0029
-8.48438
-1.78081
2.21038
7.15307
-7.58264
-2.67767
3.17456
5.88536
-6.38225
-3.68446
4.18069
4.64822
-5.14445
-4.63915
5.03626
3.45869
-3.85579
-5.36179
5.61511
2.33596
-2.58928
-5.80724
5.95093
1.43513
-1.57882
-6.05965
6.14495
0.818922
-0.904218
-6.21358
6.27041
0.437858
-0.494692
-6.31838
6.35977
0.215869
-0.257251
-6.3959
6.42782
0.092405
-0.124332
-6.45619
6.48154
0.0260987
-0.0514475
-6.50427
6.52476
-0.00784014
-0.0126464
-6.54355
6.5604
-0.0243977
0.00754676
-6.57578
6.58986
-0.0322297
0.018156
-6.60267
6.61433
-0.0356268
0.0239637
-6.62493
6.63458
-0.0367338
0.0270864
-6.64333
6.65126
-0.0371551
0.0292335
-6.65837
6.66473
-0.0376799
0.0313177
-6.67037
6.67534
-0.0385179
0.0335473
-6.67967
6.68339
-0.0396213
0.0358953
-6.68654
6.68917
-0.0407841
0.0381597
-6.69129
6.69296
-0.0418958
0.0402299
-6.69418
6.69497
-0.0431185
0.0423246
-6.69532
6.69526
-0.0443542
0.0444224
-6.69481
6.69402
-0.0454827
0.0462788
-6.6929
6.69143
-0.0470725
0.0485442
-6.68958
6.68728
-0.0494531
0.051749
-6.68451
6.68128
-0.0519431
0.0551761
-6.67767
6.67377
-0.0534944
0.057389
-6.66971
6.66545
-0.0550748
0.059332
-6.66093
6.656
-0.0587739
0.0637126
-6.65047
6.6442
-0.0640781
0.0703468
-6.63722
6.62975
-0.0666872
0.0741502
-6.62239
6.61563
-0.0647686
0.0715339
-6.60909
6.60213
-0.0680262
0.074981
-6.5943
6.58548
-0.076151
0.0849707
-6.57588
6.56618
-0.0782274
0.0879323
-6.55713
6.54907
-0.0731561
0.0812225
-6.54141
6.53352
-0.0733179
0.0812032
-6.5251
6.51627
-0.0755295
0.0843609
-6.50753
6.49991
-0.0682258
0.0758379
-0.480451
0.537023
-0.0565727
0.10366
-0.135722
-0.335861
0.367923
0.157931
-0.181929
-0.272666
0.296665
0.200719
-0.212379
-0.0279857
0.0396452
0.217181
-0.213454
0.0994051
-0.103132
0.200107
-0.177461
0.106218
-0.128863
0.145925
-0.107034
0.027491
-0.0663825
0.0670137
-0.0293655
-0.0698297
0.0321816
-0.0124475
0.0628012
-0.180599
0.130245
-0.123874
0.197954
-0.354748
0.280668
-0.287852
0.39625
-0.593894
0.485495
-0.525201
0.673324
-0.851466
0.703343
-0.82648
0.93587
-0.878553
0.769163
-0.981731
1.05157
-0.956085
0.886248
-1.74497
1.44937
-7.53282
7.82842
-0.615912
-0.0419384
-5.02422
5.68207
0.174651
0.170283
1.28267
-1.62761
-1.07603
1.59982
8.02709
-8.55088
-1.8566
2.09958
8.82895
-9.07192
-2.3714
2.68413
7.9505
-8.26322
-3.04626
3.45211
6.82929
-7.23514
-3.88864
4.32679
5.60767
-6.04582
-4.73129
5.07236
4.22443
-4.56549
-5.33791
5.53279
2.81364
-3.00851
-5.6787
5.79362
1.70483
-1.81976
-5.89336
5.98574
0.987435
-1.07982
-6.0714
6.15028
0.558406
-0.63729
-6.22215
6.28687
0.308195
-0.372915
-6.34484
6.39649
0.165283
-0.216929
-6.44239
6.48315
0.0843763
-0.125142
-6.51936
6.55154
0.0392621
-0.0714423
-6.58017
6.60585
0.0140962
-0.0397804
-6.62893
6.64962
-0.000344445
-0.0203524
-6.66834
6.68518
-0.00940782
-0.00742664
-6.7001
6.71359
-0.0152252
0.00173229
-6.72596
6.73712
-0.0194702
0.00831256
-6.74715
6.75613
-0.0234437
0.0144618
-6.76416
6.77129
-0.0273209
0.0201914
-6.77759
6.78311
-0.0311153
0.0255921
-6.78791
6.79204
-0.0346461
0.0305208
-6.79555
6.79849
-0.0377919
0.0348455
-6.80092
6.80283
-0.0408619
0.038957
-6.80421
6.80509
-0.043904
0.0430294
-6.80548
6.80544
-0.0465771
0.046615
-6.80503
6.80427
-0.0495641
0.0503268
-6.80307
6.80138
-0.0536244
0.055309
-6.79917
6.79643
-0.0580723
0.0608176
-6.79318
6.78955
-0.0610479
0.0646847
-6.78568
6.78163
-0.0633587
0.067413
-6.77734
6.77274
-0.0683599
0.0729554
-6.76761
6.76176
-0.0763392
0.0821933
-6.75502
6.74743
-0.0816314
0.0892182
-6.73964
6.73271
-0.0782488
0.0851705
-6.72638
6.71963
-0.0817028
0.0884463
-6.71213
6.70357
-0.0936321
0.10219
-6.69405
6.68401
-0.097746
0.107786
-6.67463
6.6667
-0.0891157
0.0970382
-6.65945
6.65197
-0.0887855
0.0962598
-6.64398
6.63548
-0.0930463
0.101547
-6.62684
6.61918
-0.0833743
0.0910344
-0.58904
0.630475
-0.0414356
0.100332
-0.141221
-0.403827
0.444715
0.175323
-0.201839
-0.32186
0.348376
0.204544
-0.218158
-0.0528058
0.06642
0.226436
-0.227792
0.104411
-0.103055
0.220594
-0.203924
0.148557
-0.165227
0.177461
-0.141329
0.104476
-0.140608
0.0971199
-0.049906
0.0106417
-0.0578556
0.00285791
0.049405
-0.0788132
0.0265503
-0.111901
0.187303
-0.205334
0.129932
-0.277064
0.382247
-0.377715
0.272532
-0.503096
0.636952
-0.561272
0.427416
-0.774276
0.891898
-0.654473
0.536852
-0.983493
0.982942
-0.903864
0.904415
-1.82844
2.03844
-7.83719
7.62718
-1.35845
0.79308
-6.28131
6.84667
-0.753713
1.24042
2.01017
-2.49688
-1.90257
2.34775
9.06997
-9.51515
-2.50475
2.63343
9.24223
-9.37091
-2.80406
3.03061
8.5281
-8.75465
-3.31547
3.64984
7.6016
-7.93597
-4.02195
4.39653
6.45022
-6.82479
-4.72944
4.98692
4.86563
-5.12311
-5.16424
5.28527
3.16445
-3.28548
-5.41588
5.55639
1.93328
-2.0738
-5.7053
5.84892
1.19387
-1.3375
-5.97652
6.09247
0.735735
-0.851686
-6.1958
6.28658
0.451632
-0.542407
-6.36536
6.43354
0.277284
-0.345462
-6.49254
6.54382
0.171281
-0.222558
-6.5885
6.6274
0.106916
-0.145815
-6.66137
6.69131
0.0674742
-0.0974122
-6.71784
6.74148
0.0424232
-0.0660647
-6.76265
6.78155
0.0251131
-0.0440142
-6.79826
6.81308
0.0125784
-0.0273941
-6.82651
6.8388
0.00336244
-0.0156564
-6.8499
6.85992
-0.00506939
-0.00495085
-6.86896
6.87699
-0.0126649
0.00463216
-6.88414
6.89048
-0.0197153
0.0133803
-6.89606
6.90092
-0.0260703
0.021204
-6.90512
6.90868
-0.0316132
0.028047
-6.91167
6.9141
-0.0367842
0.0343453
-6.91602
6.91741
-0.0419082
0.040515
-6.91828
6.91863
-0.0464668
0.0461198
-6.9185
6.91795
-0.0509201
0.0514702
-6.91697
6.91554
-0.0568512
0.0582793
-6.9137
6.91144
-0.0633443
0.0656031
-6.9087
6.90536
-0.0681881
0.0715239
-6.90145
6.89714
-0.0714532
0.0757662
-6.89258
6.88779
-0.0774835
0.082275
-6.88274
6.87735
-0.0877823
0.0931793
-6.87146
6.8648
-0.0965558
0.103218
-6.85739
6.84976
-0.0922267
0.0998488
-6.84233
6.83497
-0.0953095
0.102671
-6.82752
6.81988
-0.110355
0.117995
-6.81172
6.80278
-0.117546
0.126484
-6.7935
6.78481
-0.105035
0.113729
-6.77715
6.76975
-0.103614
0.111021
-6.76256
6.75553
-0.109483
0.116515
-6.74861
6.74067
-0.0987715
0.106716
-0.655259
0.656037
-0.000777774
0.0741551
-0.123837
-0.489139
0.538821
0.16833
-0.201536
-0.379527
0.412734
0.208836
-0.222004
-0.0790126
0.0921809
0.233614
-0.240915
0.0989259