/*--------------------------------*- C++ -*----------------------------------*\
| =========                 |                                                 |
| \\      /  F ield         | OpenFOAM: The Open Source CFD Toolbox           |
|  \\    /   O peration     | Version:  v1912                                 |
|   \\  /    A nd           | Website:  www.openfoam.com                      |
|    \\/     M anipulation  |                                                 |
\*---------------------------------------------------------------------------*/
FoamFile
{
    version     2.0;
    format      ascii;
    class       volVectorField;
    location    "18";
    object      U;
}
// * * * * * * * * * * * * * * * * * * * * * * * * * * * * * * * * * * * * * //

dimensions      [0 1 -1 0 0 0 0];


internalField   nonuniform List<vector> 
20320
(
(1.87343 0.00622423 0)
(1.87199 -0.00497354 0)
(1.85661 0.00397388 0)
(1.82751 0.0121394 0)
(1.78737 0.0188618 0)
(1.73655 0.0256528 0)
(1.67603 0.0319655 0)
(1.60632 0.0372196 0)
(1.52758 0.0427887 0)
(1.44038 0.047826 0)
(1.34565 0.052106 0)
(1.24464 0.0562629 0)
(1.13742 0.0590978 0)
(1.02616 0.0612066 0)
(0.913067 0.0615351 0)
(0.799448 0.060419 0)
(0.687296 0.0678171 0)
(0.550304 0.104699 0)
(0.346649 0.190476 0)
(0.0744325 0.122931 0)
(1.87356 0.0112226 0)
(1.86494 0.0352611 0)
(1.84562 0.0658545 0)
(1.81573 0.0964932 0)
(1.77498 0.126359 0)
(1.72372 0.155334 0)
(1.66248 0.183231 0)
(1.59171 0.209788 0)
(1.51183 0.234818 0)
(1.42342 0.257997 0)
(1.32699 0.279327 0)
(1.22317 0.298458 0)
(1.11273 0.314856 0)
(0.996316 0.32799 0)
(0.875147 0.335424 0)
(0.749903 0.340319 0)
(0.608464 0.379762 0)
(0.449187 0.468404 0)
(0.289353 0.56238 0)
(0.134426 0.539416 0)
(1.87356 0.0169391 0)
(1.86494 0.0692025 0)
(1.8454 0.124146 0)
(1.81515 0.178374 0)
(1.77422 0.231427 0)
(1.72283 0.282894 0)
(1.66126 0.332465 0)
(1.58993 0.379638 0)
(1.50923 0.424088 0)
(1.41973 0.46562 0)
(1.32209 0.503813 0)
(1.21694 0.538426 0)
(1.10505 0.569081 0)
(0.987762 0.593348 0)
(0.864378 0.611038 0)
(0.728492 0.647467 0)
(0.576432 0.723987 0)
(0.419366 0.81743 0)
(0.267909 0.890695 0)
(0.120219 0.888187 0)
(1.87355 0.0227109 0)
(1.86517 0.0990663 0)
(1.8459 0.177583 0)
(1.81586 0.254916 0)
(1.77507 0.330612 0)
(1.72373 0.404138 0)
(1.66215 0.474969 0)
(1.59059 0.54268 0)
(1.50945 0.60665 0)
(1.41918 0.666473 0)
(1.32023 0.721787 0)
(1.21346 0.771831 0)
(1.09994 0.815634 0)
(0.980503 0.851452 0)
(0.852251 0.889083 0)
(0.709525 0.960749 0)
(0.557622 1.05329 0)
(0.405503 1.1409 0)
(0.257914 1.20087 0)
(0.112821 1.20555 0)
(1.87355 0.0281799 0)
(1.86527 0.127074 0)
(1.84624 0.22785 0)
(1.81655 0.327207 0)
(1.77615 0.424612 0)
(1.72522 0.519468 0)
(1.66402 0.611105 0)
(1.59274 0.698942 0)
(1.51169 0.782341 0)
(1.42129 0.860658 0)
(1.32196 0.933246 0)
(1.21438 0.999319 0)
(1.09993 1.05668 0)
(0.978042 1.10585 0)
(0.84468 1.17065 0)
(0.699058 1.26604 0)
(0.548882 1.36353 0)
(0.399795 1.44483 0)
(0.25381 1.49709 0)
(0.109764 1.50502 0)
(1.87356 0.033336 0)
(1.86545 0.153632 0)
(1.84683 0.275525 0)
(1.81772 0.395963 0)
(1.7781 0.514153 0)
(1.72799 0.629548 0)
(1.66757 0.741413 0)
(1.59707 0.848854 0)
(1.5166 0.951355 0)
(1.42654 1.04807 0)
(1.32733 1.13793 0)
(1.21958 1.21997 0)
(1.10449 1.2916 0)
(0.980365 1.35768 0)
(0.84322 1.45014 0)
(0.696695 1.5599 0)
(0.547623 1.65843 0)
(0.399565 1.73492 0)
(0.253423 1.78261 0)
(0.108804 1.7924 0)
(1.87356 0.0381416 0)
(1.86572 0.178503 0)
(1.84771 0.32033 0)
(1.81955 0.460555 0)
(1.78106 0.598603 0)
(1.73229 0.733627 0)
(1.67327 0.864947 0)
(1.60408 0.99164 0)
(1.52483 1.11284 0)
(1.43572 1.22778 0)
(1.33711 1.33514 0)
(1.22977 1.43305 0)
(1.11426 1.51955 0)
(0.987979 1.60674 0)
(0.848356 1.72354 0)
(0.701356 1.84268 0)
(0.552314 1.94165 0)
(0.403669 2.01518 0)
(0.25594 2.0603 0)
(0.109253 2.07184 0)
(1.87356 0.0425393 0)
(1.86611 0.2015 0)
(1.84895 0.361791 0)
(1.82212 0.52052 0)
(1.78528 0.677224 0)
(1.73844 0.830907 0)
(1.68149 0.980912 0)
(1.61433 1.12633 0)
(1.53703 1.26593 0)
(1.44955 1.399 0)
(1.35217 1.52399 0)
(1.24575 1.63813 0)
(1.13012 1.74043 0)
(1.00186 1.85199 0)
(0.860563 1.98942 0)
(0.71274 2.11606 0)
(0.562537 2.21628 0)
(0.411852 2.28865 0)
(0.26116 2.33268 0)
(0.110929 2.34636 0)
(1.87356 0.0464778 0)
(1.86661 0.222385 0)
(1.85064 0.399452 0)
(1.82554 0.575296 0)
(1.79099 0.749196 0)
(1.74677 0.920535 0)
(1.69267 1.08838 0)
(1.62844 1.25185 0)
(1.55391 1.4097 0)
(1.46893 1.56088 0)
(1.37357 1.70364 0)
(1.26859 1.83468 0)
(1.15318 1.95446 0)
(1.02333 2.09223 0)
(0.880684 2.24788 0)
(0.731344 2.38207 0)
(0.578715 2.48503 0)
(0.424508 2.55805 0)
(0.269363 2.60224 0)
(0.113969 2.6187 0)
(1.87356 0.0499087 0)
(1.86727 0.24086 0)
(1.85281 0.432905 0)
(1.82996 0.624132 0)
(1.7984 0.813743 0)
(1.75761 1.00151 0)
(1.70733 1.18622 0)
(1.64705 1.36707 0)
(1.57632 1.54297 0)
(1.49486 1.71232 0)
(1.40251 1.87316 0)
(1.29968 2.02201 0)
(1.18498 2.16162 0)
(1.05411 2.3265 0)
(0.910139 2.49968 0)
(0.758423 2.64276 0)
(0.60198 2.75052 0)
(0.442582 2.82609 0)
(0.281214 2.87173 0)
(0.118754 2.89164 0)
(1.87356 0.0527767 0)
(1.86809 0.256649 0)
(1.85549 0.461682 0)
(1.83552 0.666286 0)
(1.80765 0.870052 0)
(1.77127 1.07272 0)
(1.7259 1.27321 0)
(1.67078 1.47077 0)
(1.60514 1.66436 0)
(1.52851 1.85201 0)
(1.44038 2.03146 0)
(1.34073 2.19919 0)
(1.22751 2.36134 0)
(1.0964 2.55412 0)
(0.951062 2.74579 0)
(0.796035 2.90022 0)
(0.634204 3.01543 0)
(0.467596 3.09581 0)
(0.297728 3.14432 0)
(0.125652 3.16827 0)
(1.87356 0.0550267 0)
(1.86908 0.269509 0)
(1.85872 0.485271 0)
(1.84224 0.701101 0)
(1.81887 0.917189 0)
(1.78798 1.13299 0)
(1.74874 1.34803 0)
(1.70018 1.56144 0)
(1.64123 1.77218 0)
(1.57103 1.97829 0)
(1.48872 2.17702 0)
(1.39373 2.3649 0)
(1.28326 2.55235 0)
(1.15301 2.77431 0)
(1.00642 2.98705 0)
(0.847173 3.15643 0)
(0.678173 3.28259 0)
(0.50186 3.37065 0)
(0.320526 3.42388 0)
(0.1353 3.45231 0)
(1.87357 0.0566165 0)
(1.87023 0.279227 0)
(1.86251 0.503216 0)
(1.8501 0.728005 0)
(1.83209 0.954213 0)
(1.80779 1.18124 0)
(1.77604 1.40931 0)
(1.73565 1.63738 0)
(1.68527 1.86456 0)
(1.62351 2.08911 0)
(1.5491 2.30779 0)
(1.46084 2.51729 0)
(1.35511 2.7326 0)
(1.22745 2.98593 0)
(1.08019 3.22392 0)
(0.916048 3.41327 0)
(0.737932 3.55514 0)
(0.548797 3.65485 0)
(0.352049 3.71541 0)
(0.148752 3.74877 0)
(1.87357 0.0575218 0)
(1.87153 0.285632 0)
(1.8668 0.515195 0)
(1.859 0.746498 0)
(1.84719 0.980316 0)
(1.83057 1.21645 0)
(1.80771 1.45562 0)
(1.77729 1.69679 0)
(1.73759 1.93937 0)
(1.68672 2.182 0)
(1.62292 2.42105 0)
(1.54425 2.65359 0)
(1.44625 2.89897 0)
(1.32394 3.18682 0)
(1.17758 3.45595 0)
(1.00851 3.67213 0)
(0.819371 3.83643 0)
(0.61359 3.9536 0)
(0.396103 4.02552 0)
(0.167497 4.06438 0)
(1.87358 0.0577396 0)
(1.87293 0.288628 0)
(1.87148 0.521046 0)
(1.86875 0.756227 0)
(1.86388 0.994933 0)
(1.8559 1.23777 0)
(1.84333 1.48565 0)
(1.82471 1.73785 0)
(1.798 1.99428 0)
(1.76088 2.25399 0)
(1.71105 2.51329 0)
(1.64579 2.76992 0)
(1.55984 3.04692 0)
(1.44727 3.37308 0)
(1.30516 3.68097 0)
(1.13256 3.93323 0)
(0.931137 4.1296 0)
(0.704302 4.27316 0)
(0.458727 4.3631 0)
(0.194308 4.40764 0)
(1.87358 0.0572893 0)
(1.87442 0.288228 0)
(1.87641 0.520794 0)
(1.87908 0.757077 0)
(1.88168 0.997836 0)
(1.88314 1.24467 0)
(1.88209 1.49838 0)
(1.87699 1.75902 0)
(1.8656 2.02698 0)
(1.84535 2.3019 0)
(1.81344 2.58038 0)
(1.76641 2.86122 0)
(1.69844 3.17012 0)
(1.60232 3.53828 0)
(1.47078 3.89394 0)
(1.29899 4.19438 0)
(1.0861 4.43669 0)
(0.834004 4.62091 0)
(0.550552 4.74076 0)
(0.233685 4.79368 0)
(1.87359 0.0562126 0)
(1.87592 0.284566 0)
(1.88141 0.514655 0)
(1.88962 0.749238 0)
(1.89996 0.989175 0)
(1.91138 1.23699 0)
(1.92275 1.49329 0)
(1.93258 1.75915 0)
(1.93864 2.03547 0)
(1.93836 2.32258 0)
(1.92864 2.61778 0)
(1.90552 2.92134 0)
(1.86299 3.26032 0)
(1.79295 3.67242 0)
(1.68275 4.08509 0)
(1.52155 4.44845 0)
(1.30324 4.75608 0)
(1.02459 5.00392 0)
(0.691285 5.17614 0)
(0.294806 5.24718 0)
(1.87359 0.0545715 0)
(1.87738 0.277894 0)
(1.88629 0.503048 0)
(1.89998 0.73323 0)
(1.91804 0.969517 0)
(1.93956 1.21514 0)
(1.96378 1.4705 0)
(1.9894 1.73784 0)
(2.01451 2.01843 0)
(2.03683 2.31345 0)
(2.05332 2.62118 0)
(2.06005 2.94368 0)
(2.05145 3.30774 0)
(2.01992 3.76152 0)
(1.94758 4.23785 0)
(1.81553 4.67929 0)
(1.60903 5.07676 0)
(1.31318 5.42392 0)
(0.920765 5.69247 0)
(0.401607 5.81382 0)
(1.87359 0.0524449 0)
(1.87876 0.268565 0)
(1.89088 0.486574 0)
(1.90976 0.709882 0)
(1.93518 0.939844 0)
(1.96651 1.18011 0)
(2.00343 1.43091 0)
(2.04501 1.69561 0)
(2.08988 1.97567 0)
(2.13644 2.27317 0)
(2.1822 2.58739 0)
(2.22392 2.92236 0)
(2.25733 3.3026 0)
(2.27789 3.78856 0)
(2.26523 4.32771 0)
(2.19236 4.85681 0)
(2.03462 5.36765 0)
(1.75939 5.86133 0)
(1.32478 6.30853 0)
(0.630337 6.58039 0)
(1.8736 0.0499228 0)
(1.87999 0.257008 0)
(1.895 0.465978 0)
(1.9186 0.680268 0)
(1.95076 0.901496 0)
(1.99119 1.13346 0)
(2.04004 1.37621 0)
(2.0969 1.63408 0)
(2.16115 1.90844 0)
(2.23215 2.20216 0)
(2.30838 2.51542 0)
(2.38813 2.85382 0)
(2.46911 3.23787 0)
(2.55271 3.73735 0)
(2.62233 4.32492 0)
(2.64739 4.93514 0)
(2.59961 5.56416 0)
(2.43813 6.23834 0)
(2.08068 6.97803 0)
(1.29817 7.66418 0)
(-0.0694478 -0.120893 0)
(-0.298468 0.120183 0)
(-0.743888 0.0524015 0)
(-0.595113 -0.0588449 2.59539e-21)
(-0.577178 0.0350663 0)
(-0.69685 0.0129471 0)
(-0.890007 0.0610776 0)
(-1.31731 0.0952262 0)
(-1.99722 0.148819 0)
(-3.1035 0.237615 4.13476e-21)
(-4.82472 0.33831 0)
(-7.14818 0.425971 0)
(-9.93268 0.456382 -1.75348e-20)
(-12.6619 0.356262 -1.56992e-20)
(-14.7868 0.333532 0)
(-16.3605 0.365934 4.21208e-21)
(-18.3531 0.366973 2.01033e-20)
(-18.9299 -0.609165 -4.72412e-19)
(-8.69509 -3.19269 0)
(3.17917 -1.90688 6.07723e-20)
(10.6143 -1.18323 -1.3681e-19)
(15.7265 -0.815553 -2.80575e-19)
(19.3128 -0.576273 1.22219e-19)
(21.7818 -0.390112 -9.53649e-20)
(23.3663 -0.24816 0)
(24.2929 -0.148399 -4.3897e-20)
(24.7754 -0.0825476 0)
(24.9819 -0.0405666 1.61467e-20)
(25.0272 -0.0129655 1.88043e-20)
(24.9842 -0.00181683 0)
(24.8938 0.0027292 2.81383e-21)
(24.7817 0.00553032 -1.4497e-21)
(24.6605 0.00733217 3.39967e-22)
(24.5377 0.00827158 -1.20242e-22)
(24.4177 0.00862456 0)
(24.3024 0.00875266 0)
(24.1922 0.00881632 9.75405e-23)
(24.0865 0.0088942 0)
(23.9848 0.00901411 -1.24049e-22)
(23.8864 0.00912297 0)
(23.7911 0.00918221 0)
(23.6988 0.0092124 -1.25793e-22)
(23.6094 0.00918455 0)
(23.5228 0.00914108 0)
(23.4385 0.00920486 1.20886e-22)
(23.356 0.00928035 1.21593e-22)
(23.2748 0.00930071 0)
(23.1954 0.00929469 -6.44172e-23)
(23.1175 0.0094341 6.59257e-23)
(23.0393 0.00974151 -6.62665e-23)
(22.9603 0.0099018 0)
(22.882 0.00968816 7.48345e-23)
(22.8063 0.00962313 0)
(22.7304 0.0101868 -3.57315e-23)
(22.6508 0.010688 0)
(22.5698 0.0104875 0)
(22.4912 0.0101332 1.03327e-25)
(22.4131 0.0101619 -5.70559e-26)
(22.3341 0.00979053 0)
(22.2582 0.00911455 0)
(-0.226612 0.0754135 0)
(-0.457946 0.280785 0)
(-0.673921 0.175146 -2.84208e-21)
(-0.69162 -0.0906694 0)
(-0.63315 0.0145854 0)
(-0.620863 0.0469676 1.20725e-21)
(-0.725759 0.145327 -1.02334e-21)
(-0.957221 0.277578 0)
(-1.39854 0.465229 1.10466e-23)
(-2.16109 0.761421 8.74067e-22)
(-3.40063 1.15661 2.85515e-23)
(-5.25866 1.56316 4.82976e-21)
(-7.75092 1.94759 -4.47536e-21)
(-11.2018 1.84387 0)
(-13.8866 1.08123 0)
(-15.3806 0.592099 -1.91256e-20)
(-15.031 0.333575 0)
(-11.9708 -1.30342 0)
(-4.83537 -7.52578 8.27461e-22)
(3.49569 -6.08535 0)
(10.1734 -4.11293 0)
(15.1857 -2.90746 0)
(18.8608 -2.06374 9.95653e-20)
(21.4329 -1.39125 -8.01556e-20)
(23.1014 -0.868014 5.76038e-20)
(24.0956 -0.495829 3.79963e-20)
(24.6358 -0.252462 0)
(24.8938 -0.104239 0)
(24.9872 -0.0199836 7.96326e-21)
(24.991 0.028243 -2.27362e-25)
(24.9482 0.0524951 0)
(24.8839 0.0634656 -2.05659e-24)
(24.8113 0.0674912 -4.81342e-22)
(24.7372 0.0675382 0)
(24.665 0.065441 0)
(24.596 0.0625791 2.05992e-22)
(24.5303 0.0597694 0)
(24.4672 0.0573895 0)
(24.4062 0.055414 0)
(24.3467 0.0536813 1.48972e-22)
(24.2884 0.0521341 1.45535e-22)
(24.2312 0.0507165 -2.83522e-22)
(24.1746 0.0493398 1.37478e-22)
(24.1187 0.0481381 0)
(24.063 0.0473949 -1.31815e-22)
(24.0066 0.0470052 0)
(23.9495 0.0465551 1.32105e-22)
(23.8918 0.0459744 -6.83544e-23)
(23.8336 0.0459975 -7.00262e-23)
(23.7736 0.0470527 7.04532e-23)
(23.7102 0.0481085 -7.17273e-23)
(23.6447 0.0476477 -7.55715e-23)
(23.5799 0.0468505 1.5813e-22)
(23.5143 0.0487612 0)
(23.4435 0.0516485 0)
(23.369 0.0516069 0)
(23.2965 0.0500285 0)
(23.2259 0.0503121 -3.72e-24)
(23.1546 0.0498387 -1.07188e-23)
(23.0874 0.0460088 0)
(-0.319669 0.308594 0)
(-0.557969 0.377938 -1.30139e-21)
(-0.707939 0.291464 0)
(-0.704177 -0.0631298 -1.19051e-21)
(-0.648701 -0.0633026 -6.73736e-22)
(-0.549374 0.0392452 -3.02186e-21)
(-0.579714 0.168586 0)
(-0.667291 0.3501 -1.95154e-21)
(-0.861871 0.62408 0)
(-1.23855 1.05204 0)
(-1.87668 1.6626 0)
(-2.88364 2.36772 0)
(-4.19778 3.18231 0)
(-7.88807 2.62195 0)
(-12.4385 2.48702 0)
(-16.7766 1.94757 0)
(-19.5977 -1.2191 0)
(-7.14257 -3.47849 2.71478e-18)
(0.789015 -10.7931 0)
(5.92605 -9.93528 0)
(10.9818 -7.27238 0)
(15.377 -5.32097 0)
(18.8086 -3.83493 0)
(21.2259 -2.60235 0)
(22.7529 -1.62853 0)
(23.6313 -0.935126 0)
(24.0985 -0.484493 0)
(24.326 -0.211786 0)
(24.423 -0.056354 7.32968e-21)
(24.4527 0.0270234 0)
(24.4501 0.0683428 -2.26406e-21)
(24.4332 0.0868137 0)
(24.4108 0.0934274 0)
(24.387 0.0937342 0)
(24.3632 0.0908314 0)
(24.3398 0.0869338 0)
(24.3161 0.0832854 8.18619e-23)
(24.2917 0.0803705 0)
(24.2661 0.0781449 0)
(24.2391 0.0763373 0)
(24.2107 0.0748194 -1.1385e-22)
(24.1807 0.0735678 1.12856e-22)
(24.149 0.0724316 -1.11826e-22)
(24.1156 0.0715061 0)
(24.0805 0.0713331 -1.1082e-22)
(24.0427 0.0718869 0)
(24.0021 0.0723871 0)
(23.959 0.0724163 0)
(23.9141 0.0732328 0)
(23.8662 0.0760616 6.35834e-23)
(23.8132 0.0794154 0)
(23.7556 0.0798795 1.38882e-22)
(23.698 0.0785765 0)
(23.64 0.0822264 0)
(23.5753 0.0885867 3.19873e-23)
(23.5049 0.0893649 -2.8796e-23)
(23.4371 0.0860786 4.82788e-23)
(23.3722 0.0866756 -4.3494e-24)
(23.3054 0.0871631 0)
(23.2425 0.0802967 6.30513e-24)
(-0.420245 0.539373 0)
(-0.631623 0.471233 0)
(-0.755966 0.383727 0)
(-0.717749 -0.0159768 0)
(-0.654292 -0.132719 2.48666e-22)
(-0.534061 -0.0311286 0)
(-0.469967 0.137439 0)
(-0.445605 0.322521 4.31869e-24)
(-0.441387 0.614301 0)
(-0.482895 1.06845 6.79809e-24)
(-0.5561 1.72366 -1.13891e-20)
(-0.590776 2.49377 0)
(-0.493796 3.07077 0)
(1.67469 5.14264 -3.67911e-21)
(-5.62792 7.31583 -1.52624e-22)
(-13.065 5.02991 -4.10436e-22)
(-12.761 0.134155 -2.73775e-19)
(-2.32662 -11.7991 0)
(5.98087 -13.8167 -1.96949e-19)
(9.17943 -12.6112 0)
(12.6469 -9.94756 -2.96135e-22)
(16.1792 -7.60079 2.32267e-22)
(19.1548 -5.57972 -1.83873e-22)
(21.2227 -3.78749 6.63041e-20)
(22.4392 -2.35163 -4.7553e-20)
(23.0896 -1.34407 0)
(23.434 -0.704199 0)
(23.6245 -0.325436 -3.59273e-23)
(23.7402 -0.113703 2.21879e-23)
(23.8189 -0.00125549 0)
(23.878 0.0544522 1.95896e-21)
(23.9262 0.079775 0)
(23.9666 0.0898805 0)
(24.0009 0.09217 0)
(24.0297 0.0905999 -3.56834e-23)
(24.0531 0.088021 0)
(24.0708 0.085839 0)
(24.0829 0.0845037 8.32539e-23)
(24.0896 0.0839188 -1.86702e-22)
(24.0913 0.0837146 9.8885e-23)
(24.0885 0.0837139 2.02818e-22)
(24.0814 0.0840069 0)
(24.0701 0.0844083 2.03091e-22)
(24.0549 0.0848756 0)
(24.0362 0.0862676 1.02257e-22)
(24.0131 0.088824 -1.01937e-22)
(23.9851 0.091406 0)
(23.9529 0.0928611 -5.78517e-23)
(23.9181 0.0949185 0)
(23.8796 0.100169 6.00172e-23)
(23.8344 0.107098 5.98022e-23)
(23.782 0.109625 -6.75123e-23)
(23.7292 0.107331 7.98331e-23)
(23.6777 0.112744 7.11468e-23)
(23.618 0.123952 0)
(23.5497 0.126194 -3.05959e-23)
(23.4852 0.119906 -2.92776e-23)
(23.426 0.120529 5.71214e-24)
(23.3634 0.122702 0)
(23.3028 0.111823 0)
(-0.525147 0.767657 -2.38821e-21)
(-0.697673 0.575073 1.83923e-21)
(-0.790546 0.468964 0)
(-0.749745 0.0269061 -1.19425e-24)
(-0.65951 -0.176253 3.57647e-22)
(-0.545591 -0.134432 0)
(-0.405864 0.0485723 0)
(-0.293256 0.230881 6.44998e-24)
(-0.159349 0.489034 -2.31339e-24)
(0.0231507 0.893107 7.07807e-21)
(0.315119 1.4604 1.32589e-20)
(0.862914 2.09215 2.8566e-23)
(1.84755 2.11716 -5.21094e-20)
(2.53942 2.69397 0)
(-1.04692 12.485 7.79211e-22)
(-7.20099 7.86561 -2.61769e-19)
(-3.25034 -1.11056 0)
(8.02599 -14.1822 2.61577e-18)
(9.89106 -16.2698 1.39268e-19)
(12.0511 -14.4976 0)
(14.4667 -12.0692 2.9507e-20)
(17.2308 -9.62952 -2.31513e-22)
(19.6695 -7.19335 0)
(21.2288 -4.84796 0)
(22.0071 -2.9645 4.40006e-20)
(22.3961 -1.69176 1.15955e-22)
(22.6556 -0.912855 0)
(22.8689 -0.46142 0)
(23.0576 -0.210103 3.26164e-23)
(23.2242 -0.073896 0)
(23.3689 -0.00257637 -2.90345e-21)
(23.4942 0.0331839 -8.04825e-24)
(23.6008 0.0505526 3.52145e-22)
(23.6912 0.0593537 -2.09614e-22)
(23.7668 0.0633677 -3.61957e-23)
(23.8297 0.0656577 -1.68238e-22)
(23.8808 0.068107 0)
(23.9213 0.0710619 -3.31927e-25)
(23.9523 0.0744248 0)
(23.975 0.0777774 -9.66497e-23)
(23.9904 0.0809053 -9.93531e-23)
(23.9994 0.0841572 -9.8698e-23)
(24.0021 0.0874199 -9.9065e-23)
(23.9992 0.0903421 1.01635e-22)
(23.9914 0.0941322 -1.00361e-22)
(23.9782 0.0996226 -9.70013e-23)
(23.9585 0.105425 2.03437e-22)
(23.9331 0.109082 -1.70755e-25)
(23.9045 0.112521 -6.28778e-23)
(23.8722 0.120478 5.74745e-23)
(23.8326 0.132225 -5.43658e-23)
(23.783 0.138425 0)
(23.732 0.13389 -9.2379e-23)
(23.6857 0.140549 6.84339e-23)
(23.6299 0.158347 0)
(23.5623 0.163158 -3.42814e-23)
(23.4993 0.151567 -3.9143e-23)
(23.4456 0.151798 -1.52107e-25)
(23.3867 0.157018 0)
(23.327 0.141387 -1.26622e-23)
(-0.621719 0.991898 -2.20016e-21)
(-0.766905 0.685779 0)
(-0.862198 0.557002 -1.26855e-23)
(-0.771509 0.06523 0)
(-0.673992 -0.199005 0)
(-0.567702 -0.230992 -5.86969e-22)
(-0.408773 -0.0917209 0)
(-0.21488 0.102324 4.03987e-21)
(-0.00764955 0.304513 -4.62335e-21)
(0.291822 0.621894 1.51561e-20)
(0.751267 1.05496 -1.31622e-20)
(1.48195 1.51746 -2.41013e-20)
(2.48014 1.60854 1.12614e-19)
(2.68822 1.77134 7.41246e-20)
(0.862717 15.1177 0)
(-3.2701 10.4833 2.27353e-19)
(1.49838 -2.86722 0)
(12.5708 -16.1748 0)
(13.0194 -17.5284 -1.79035e-19)
(14.2563 -15.8707 0)
(15.9725 -13.762 0)
(18.1651 -11.4035 -6.08771e-20)
(20.0372 -8.60572 -1.49166e-19)
(20.9476 -5.70079 0)
(21.2668 -3.47138 -4.04292e-20)
(21.5322 -2.05156 0)
(21.8756 -1.19054 8.07076e-21)
(22.2304 -0.674984 0)
(22.5533 -0.374937 2.21312e-21)
(22.8293 -0.202363 0)
(23.0584 -0.104485 -5.30574e-24)
(23.2462 -0.0490642 -8.26549e-23)
(23.4007 -0.016271 0)
(23.5279 0.00355533 -4.95367e-24)
(23.6307 0.0170004 -5.11722e-23)
(23.7152 0.0287724 -4.43277e-23)
(23.7842 0.0387699 4.91219e-24)
(23.8393 0.0479578 7.28465e-23)
(23.8825 0.056641 -8.11557e-23)
(23.9154 0.0645982 -1.21309e-24)
(23.9396 0.0716373 0)
(23.9562 0.0784389 -8.75654e-23)
(23.9656 0.0851875 -8.73162e-23)
(23.9683 0.0911628 0)
(23.9653 0.0976357 -5.85976e-26)
(23.9566 0.106366 -8.10202e-23)
(23.9408 0.115969 6.34493e-23)
(23.9182 0.122681 1.17359e-23)
(23.8914 0.127825 2.02625e-23)
(23.8614 0.138252 -4.84587e-25)
(23.825 0.154995 1.48549e-23)
(23.7779 0.166877 -1.97972e-23)
(23.7255 0.160363 1.10469e-22)
(23.6811 0.16714 0)
(23.6283 0.192141 -4.99209e-24)
(23.5624 0.201653 0)
(23.499 0.183277 -6.29011e-23)
(23.4491 0.182133 0)
(23.3944 0.191494 0)
(23.3365 0.171783 0)
(-0.661655 1.18643 1.47215e-21)
(-0.830082 0.823089 0)
(-0.969846 0.652031 0)
(-0.783989 0.116068 2.97354e-21)
(-0.69841 -0.203041 0)
(-0.603031 -0.306973 0)
(-0.45221 -0.239538 0)
(-0.226111 -0.0661309 0)
(0.0296358 0.1023 0)
(0.368883 0.324757 0)
(0.86694 0.629473 0)
(1.57506 0.955574 -1.91888e-20)
(2.43017 1.15762 0)
(2.80912 1.84748 0)
(2.02824 15.173 3.8556e-19)
(-1.4073 12.7986 0)
(4.80285 -4.28417 7.85332e-22)
(15.1858 -18.2961 0)
(15.1085 -18.1254 -1.13302e-22)
(15.7668 -16.8235 0)
(17.0224 -15.1287 0)
(18.7579 -12.9296 -5.98948e-20)
(19.94 -9.73698 -8.13605e-20)
(20.0585 -6.42632 5.91381e-20)
(20.135 -3.87099 -2.3863e-20)
(20.683 -2.29548 0)
(21.288 -1.37867 -3.64178e-22)
(21.8414 -0.832186 -4.39617e-22)
(22.2936 -0.50572 0)
(22.6482 -0.310052 3.53687e-20)
(22.9256 -0.191915 0)
(23.1419 -0.119391 2.66837e-20)
(23.3141 -0.0735454 -1.86498e-22)
(23.4531 -0.042193 2.09875e-20)
(23.5635 -0.0200332 0)
(23.6534 -0.00416377 -1.80912e-20)
(23.7269 0.0121683 1.67035e-20)
(23.7863 0.0287128 1.51424e-20)
(23.8336 0.0423933 6.97867e-21)
(23.8705 0.0542357 6.47101e-21)
(23.8984 0.0642902 0)
(23.9181 0.0735015 -5.62093e-21)
(23.9306 0.0825077 -5.21878e-21)
(23.9362 0.0904244 -2.27435e-24)
(23.9351 0.0982127 0)
(23.9278 0.10864 -4.1392e-21)
(23.9146 0.120258 3.76929e-21)
(23.8957 0.128759 -3.43535e-21)
(23.8692 0.134476 0)
(23.8378 0.145713 -1.31172e-21)
(23.8023 0.164885 0)
(23.7616 0.18144 0)
(23.7127 0.174906 0)
(23.6619 0.181313 0)
(23.6105 0.210426 0)
(23.5552 0.225333 0)
(23.4941 0.203244 0)
(23.4415 0.20113 3.3371e-23)
(23.3936 0.212475 2.31648e-25)
(23.3481 0.19259 -2.58967e-23)
(-0.574552 1.26603 0)
(-0.828801 0.991884 -6.86792e-24)
(-1.00347 0.764205 -7.23955e-21)
(-0.802748 0.165542 2.61904e-21)
(-0.72537 -0.186029 0)
(-0.652233 -0.355166 0)
(-0.523743 -0.366158 0)
(-0.310795 -0.251561 3.25753e-21)
(-0.0377935 -0.0988608 0)
(0.299604 0.0419377 0)
(0.768242 0.243208 0)
(1.36614 0.482795 -1.57365e-20)
(1.99966 0.743352 0)
(2.20764 1.52333 0)
(0.784748 13.4133 1.27734e-19)
(-1.66122 14.9172 0)
(9.53397 -7.94856 0)
(16.389 -18.5483 0)
(16.2962 -18.4042 2.23805e-20)
(16.6715 -17.5027 -1.0522e-21)
(17.6478 -16.2337 0)
(18.917 -14.1531 -6.53922e-20)
(19.1404 -10.6594 -1.02931e-19)
(18.7872 -6.62262 -2.59844e-19)
(19.925 -4.65189 -4.82979e-20)
(20.521 -3.11717 0)
(21.1247 -2.01691 0)
(21.5765 -1.31356 0)
(21.9124 -0.858237 0)
(22.1606 -0.565659 0)
(22.3394 -0.377865 0)
(22.4655 -0.256253 1.48145e-20)
(22.5526 -0.176377 0)
(22.6116 -0.120565 0)
(22.6514 -0.0776763 -7.17311e-21)
(22.6764 -0.0472564 -5.68796e-21)
(22.691 -0.0204316 -7.32335e-24)
(22.6977 0.00236416 0)
(22.6998 0.0198925 0)
(22.6989 0.0357371 0)
(22.6941 0.0507574 0)
(22.6859 0.0649986 0)
(22.6751 0.0789732 0)
(22.6622 0.0920442 0)
(22.647 0.104379 0)
(22.6314 0.118238 0)
(22.6213 0.12976 0)
(22.6283 0.121909 0)
(22.67 0.103024 0)
(22.7279 0.12796 -8.18383e-22)
(22.7849 0.163955 0)
(22.8396 0.188183 0)
(22.8724 0.2109 0)
(22.8575 0.239926 0)
(22.8285 0.27155 -9.33637e-23)
(22.8039 0.29022 0)
(22.7716 0.272944 0)
(22.7245 0.262909 0)
(22.6897 0.265933 0)
(22.6734 0.246138 1.88732e-23)
(-0.00770964 1.129 2.33218e-21)
(-0.712583 1.20889 0)
(-0.989957 0.880976 -1.19903e-20)
(-0.788627 0.223002 0)
(-0.738341 -0.142727 0)
(-0.707524 -0.366036 0)
(-0.621724 -0.457427 -3.64743e-22)
(-0.445699 -0.418404 0)
(-0.188477 -0.296497 9.43063e-21)
(0.126 -0.206635 0)
(0.529321 -0.0817068 -9.18897e-21)
(0.989859 0.115453 1.3553e-20)
(1.38766 0.439002 0)
(1.43383 1.21535 0)
(0.0454253 7.4357 3.94277e-19)
(-4.34561 16.982 3.71671e-19)
(13.0141 -13.1493 -5.052e-20)
(16.9579 -18.6269 2.30503e-20)
(16.8957 -18.5365 9.01557e-21)
(17.1763 -18.0075 0)
(17.9464 -17.098 2.75902e-20)
(18.5487 -15.1127 -6.70584e-20)
(18.61 -11.8971 0)
(19.4795 -7.4618 3.88381e-20)
(19.5006 -5.16468 0)
(19.8076 -3.56246 -4.53366e-20)
(20.1772 -2.39496 3.74664e-20)
(20.566 -1.59554 0)
(20.8923 -1.06244 0)
(21.1428 -0.709594 0)
(21.3232 -0.476483 1.58405e-20)
(21.4462 -0.32176 1.25297e-20)
(21.5244 -0.218178 -1.97599e-20)
(21.5693 -0.146382 0)
(21.5916 -0.093487 6.15001e-21)
(21.5977 -0.0553941 -9.65694e-21)
(21.5917 -0.0250765 -3.75015e-21)
(21.579 0.000689215 5.94315e-21)
(21.562 0.0229948 -2.31459e-21)
(21.5424 0.0425455 -1.79032e-21)
(21.521 0.0596052 6.90368e-22)
(21.4981 0.0749853 6.51965e-25)
(21.4745 0.0893241 -3.88858e-22)
(21.4507 0.102497 -2.9042e-22)
(21.4269 0.114639 -2.1546e-22)
(21.405 0.12607 1.68771e-22)
(21.3895 0.131888 0)
(21.3822 0.117451 3.05829e-22)
(21.3719 0.0933766 2.69873e-24)
(21.3697 0.103271 0)
(21.3919 0.129061 0)
(21.4218 0.153835 0)
(21.4392 0.185342 0)
(21.4387 0.221128 3.51689e-22)
(21.4311 0.252317 0)
(21.4243 0.267792 0)
(21.4098 0.260682 1.70375e-24)
(21.3827 0.254591 2.84227e-24)
(21.3647 0.250177 -9.45399e-24)
(21.3629 0.220018 -2.55821e-23)
(0.388606 0.240514 0)
(-0.386894 1.50251 0)
(-0.925626 0.987336 0)
(-0.715957 0.304254 0)
(-0.717262 -0.063334 0)
(-0.752935 -0.326847 0)
(-0.734561 -0.49848 0)
(-0.615849 -0.546458 0)
(-0.400729 -0.48088 0)
(-0.121341 -0.408784 0)
(0.201546 -0.339415 0)
(0.522524 -0.1553 0)
(0.746906 0.21693 0)
(0.723721 1.01269 0)
(-5.7793 13.0306 0)
(-9.33723 14.8473 0)
(17.061 -18.069 0)
(17.1295 -18.5872 0)
(17.1577 -18.6338 0)
(17.4185 -18.3866 0)
(17.9843 -17.7324 0)
(18.1622 -16.1519 0)
(18.7526 -11.737 0)
(17.8734 -8.06137 0)
(17.9847 -5.62215 0)
(18.2947 -3.97764 0)
(18.6772 -2.78497 3.22971e-20)
(19.0832 -1.92372 0)
(19.4513 -1.31679 0)
(19.7535 -0.896351 0)
(19.9849 -0.60777 0)
(20.1526 -0.410154 0)
(20.2674 -0.274462 0)
(20.3405 -0.179729 0)
(20.383 -0.111308 0)
(20.4032 -0.061479 0)
(20.4068 -0.0234765 0)
(20.3994 0.00707081 0)
(20.3848 0.032197 0)
(20.3654 0.0535453 0)
(20.343 0.0719684 0)
(20.3184 0.088281 0)
(20.2927 0.10308 0)
(20.2667 0.11643 0)
(20.241 0.12824 0)
(20.2173 0.137812 0)
(20.1979 0.140728 0)
(20.181 0.128087 0)
(20.1558 0.107541 -2.85412e-24)
(20.1317 0.106044 2.48908e-22)
(20.1247 0.121052 0)
(20.1269 0.145939 0)
(20.1287 0.182411 0)
(20.1289 0.222186 0)
(20.1293 0.254394 1.52772e-22)
(20.1305 0.271451 -5.60868e-23)
(20.1261 0.271347 2.46837e-23)
(20.1146 0.265864 0)
(20.1092 0.254174 -2.5807e-24)
(20.1137 0.219591 0)
(-0.651584 -0.164392 -1.73537e-22)
(-0.335463 1.60425 0)
(-0.625154 1.14768 2.91981e-20)
(-0.556862 0.417201 -1.4501e-21)
(-0.642518 0.0620483 0)
(-0.766014 -0.224108 0)
(-0.842682 -0.469548 0)
(-0.809953 -0.616408 1.27618e-22)
(-0.665343 -0.628173 1.93366e-21)
(-0.433519 -0.585667 0)
(-0.179239 -0.53336 -7.11486e-21)
(0.0190673 -0.338561 0)
(0.0871678 0.0351242 0)
(0.0206471 1.01979 -1.00071e-20)
(-8.14885 18.5337 5.16949e-19)
(-6.2555 7.43095 1.59123e-18)
(16.9231 -18.1814 4.81514e-23)
(17.1325 -18.5719 0)
(17.2395 -18.7214 -2.81419e-21)
(17.4834 -18.6628 1.85366e-20)
(17.7707 -18.2009 1.09288e-22)
(18.0261 -16.9489 -8.2923e-19)
(16.5581 -12.0946 6.61088e-22)
(15.9461 -8.51456 3.75516e-20)
(16.1201 -6.13149 0)
(16.5012 -4.4465 1.11693e-22)
(16.9436 -3.20761 2.71368e-20)
(17.3927 -2.28794 0)
(17.8086 -1.61365 1.97341e-20)
(18.1666 -1.12694 1.6355e-20)
(18.4577 -0.779886 -1.346e-20)
(18.6839 -0.534111 1.09608e-20)
(18.8525 -0.36039 0)
(18.9732 -0.236826 0)
(19.0561 -0.14745 0)
(19.1099 -0.0819794 0)
(19.1414 -0.0328488 3.63606e-21)
(19.1566 0.00531357 -2.87958e-21)
(19.1601 0.0357892 5.48643e-25)
(19.1551 0.0607935 -1.76843e-21)
(19.144 0.081781 -1.36935e-21)
(19.1286 0.0998388 0)
(19.1102 0.115686 3.90182e-22)
(19.09 0.129551 0)
(19.0691 0.141261 0)
(19.0487 0.149774 0)
(19.0302 0.151687 0)
(19.0109 0.142074 0)
(18.9841 0.125873 0)
(18.9542 0.119208 -1.55356e-22)
(18.9317 0.12671 0)
(18.9163 0.14827 -1.25755e-22)
(18.9064 0.182769 -1.43178e-22)
(18.9029 0.220884 1.53612e-22)
(18.9047 0.252064 1.49354e-22)
(18.9089 0.270043 0)
(18.9107 0.273835 4.26563e-23)
(18.9097 0.268501 2.96783e-23)
(18.9129 0.252294 0)
(18.9207 0.21669 -1.86053e-24)
(-0.712427 0.579263 7.57752e-21)
(-1.39287 1.82357 0)
(-0.291617 1.16927 0)
(-0.328866 0.601791 -3.57359e-21)
(-0.515413 0.244187 0)
(-0.729212 -0.0507122 -2.02505e-21)
(-0.947882 -0.353728 -1.4947e-21)
(-1.00735 -0.610619 0)
(-0.945576 -0.721253 2.68386e-21)
(-0.781018 -0.72157 -3.90728e-21)
(-0.586507 -0.678081 1.23886e-20)
(-0.464121 -0.459603 0)
(-0.494237 -0.050496 0)
(-0.853207 0.839373 0)
(-19.1762 24.5581 2.55861e-18)
(7.82155 -4.02965 -3.29005e-21)
(16.9788 -18.2933 0)
(17.0876 -18.5772 0)
(17.2257 -18.7993 7.47401e-21)
(17.425 -18.8455 0)
(17.5405 -18.5459 -5.46527e-20)
(17.287 -15.9851 0)
(14.868 -12.1279 4.99168e-21)
(14.3364 -8.96446 2.28342e-20)
(14.4452 -6.66014 2.50918e-20)
(14.8024 -4.9512 2.45569e-20)
(15.2442 -3.66378 0)
(15.7019 -2.68684 0)
(16.138 -1.94993 -1.7046e-20)
(16.5293 -1.40041 0)
(16.8638 -0.995265 1.20617e-20)
(17.139 -0.699063 9.968e-21)
(17.3582 -0.483521 0)
(17.528 -0.326533 6.64422e-21)
(17.6563 -0.211317 5.38724e-21)
(17.7509 -0.125969 -4.96789e-24)
(17.8187 -0.0618122 3.4854e-21)
(17.8654 -0.0125368 2.78473e-21)
(17.896 0.0261537 0)
(17.9141 0.0572241 1.73765e-21)
(17.9228 0.0827234 -1.35329e-21)
(17.9243 0.104101 1.03391e-21)
(17.9202 0.122311 -3.87969e-22)
(17.9123 0.137772 2.86527e-22)
(17.9017 0.150362 -2.0454e-22)
(17.8897 0.15911 -1.40083e-22)
(17.8769 0.161646 0)
(17.8615 0.155373 -6.22094e-23)
(17.8391 0.143494 -8.37641e-24)
(17.8115 0.136053 -1.06846e-22)
(17.7848 0.139722 0)
(17.7624 0.157249 0)
(17.7469 0.186977 0)
(17.7405 0.220663 0)
(17.7417 0.249148 0)
(17.7473 0.266788 6.65451e-23)
(17.7533 0.27204 5.47014e-23)
(17.7593 0.266254 0)
(17.768 0.247547 -1.43652e-25)
(17.7783 0.212512 1.62892e-24)
(-0.439388 0.755739 0)
(-0.619179 1.39516 0)
(-0.172423 1.3159 1.7859e-20)
(-0.168779 0.824225 0)
(-0.380168 0.473179 0)
(-0.658053 0.198465 3.0436e-21)
(-1.03904 -0.144042 1.39621e-21)
(-1.16795 -0.520717 0)
(-1.21782 -0.738421 0)
(-1.16141 -0.813178 -3.85365e-23)
(-1.03549 -0.798519 0)
(-0.938178 -0.573091 0)
(-0.952172 -0.120733 3.90225e-21)
(-3.83099 4.63779 -2.67856e-20)
(-22.1548 20.4231 2.29408e-18)
(16.6955 -17.4231 -1.71021e-19)
(16.8902 -18.2564 -1.06005e-20)
(17.0067 -18.596 5.45428e-23)
(17.1526 -18.8577 -1.01232e-20)
(17.274 -18.957 0)
(17.3241 -18.7219 0)
(15.338 -15.5885 4.60808e-20)
(13.7356 -12.1029 -1.09109e-20)
(13.1285 -9.31711 2.77916e-20)
(13.095 -7.13328 1.79673e-20)
(13.3425 -5.43567 0)
(13.714 -4.118 -1.80845e-20)
(14.1301 -3.09533 1.65092e-20)
(14.5475 -2.30561 -1.45484e-20)
(14.9397 -1.70108 0)
(15.2913 -1.24279 1.06613e-20)
(15.5952 -0.898245 -8.91022e-21)
(15.8505 -0.640665 0)
(16.0598 -0.448441 6.10058e-21)
(16.2284 -0.304608 -4.99429e-21)
(16.362 -0.196349 -4.05445e-21)
(16.4664 -0.114093 6.55938e-21)
(16.5468 -0.0507122 0)
(16.6078 -0.00107393 2.10902e-21)
(16.6533 0.0384936 0)
(16.6862 0.0706126 -1.30346e-21)
(16.709 0.0971349 -6.20353e-25)
(16.7239 0.119298 -3.74746e-22)
(16.7325 0.137746 2.75726e-22)
(16.7364 0.152523 0)
(16.7367 0.16293 1.28498e-22)
(16.7339 0.16744 7.81554e-23)
(16.7268 0.164796 4.32883e-25)
(16.7128 0.157281 1.84552e-23)
(16.6924 0.151592 0)
(16.6694 0.154078 0)
(16.6481 0.168207 0)