/*--------------------------------*- C++ -*----------------------------------*\
| =========                 |                                                 |
| \\      /  F ield         | OpenFOAM: The Open Source CFD Toolbox           |
|  \\    /   O peration     | Version:  v1912                                 |
|   \\  /    A nd           | Website:  www.openfoam.com                      |
|    \\/     M anipulation  |                                                 |
\*---------------------------------------------------------------------------*/
FoamFile
{
    version     2.0;
    format      ascii;
    class       volScalarField;
    location    "28";
    object      alpha.water;
}
// * * * * * * * * * * * * * * * * * * * * * * * * * * * * * * * * * * * * * //

dimensions      [0 0 0 0 0 0 0];


internalField   nonuniform List<scalar> 
20320
(
1
1
1
1
1
1
1
1
1
1
1
1
1
1
1
1
1
1
1
1
1
1
1
1
1
1
1
1
1
1
1
1
1
1
1
1
1
1
1
1
1
1
1
1
1
1
1
1
1
1
1
1
1
1
1
1
1
1
1
1
1
1
1
1
1
1
1
1
1
1
1
1
1
1
1
1
1
1
1
1
1
1
1
1
1
1
1
1
1
1
1
1
1
1
1
1
1
1
1
1
1
1
1
1
1
1
1
1
1
1
1
1
1
1
1
1
1
1
1
1
1
1
1
1
1
1
1
1
1
1
1
1
1
1
1
1
1
1
1
1
1
1
1
1
1
1
1
1
1
1
1
1
1
1
1
1
1
1
1
1
1
1
1
1
1
1
1
1
1
1
1
1
1
1
1
1
1
1
1
1
1
1
1
1
1
1
1
1
1
1
1
1
1
1
1
1
1
1
1
1
1
1
1
1
1
1
1
1
1
1
1
1
1
1
1
1
1
1
1
1
1
1
1
1
1
1
1
1
1
1
1
1
1
1
1
1
1
1
1
1
1
1
1
1
1
1
1
1
1
1
1
1
1
1
1
1
1
1
1
1
1
1
1
1
1
1
1
1
1
1
1
1
1
1
1
1
1
1
1
1
1
1
1
1
1
1
1
1
1
1
1
1
1
1
1
1
1
1
1
1
1
1
1
1
1
1
1
1
1
1
1
1
1
1
1
1
1
1
1
1
1
1
1
1
1
1
1
1
1
1
1
1
1
1
1
1
1
1
1
1
1
1
1
1
1
1
1
1
1
1
1
1
1
1
1
1
1
1
1
1
1
1
1
1
1
1
1
1
1
1
1
1
1
1
1
1
1
1
1
1
1
1
1
1
1
1
1
1
1
1
1
1
1
1
1
1
1
1
1
1
0.995229
0.999956
0.9993
0.999555
0.99977
0.999981
0.999981
0.999107
0.994828
0.865715
0.82411
0.91593
0.934411
0.934708
0.910766
0.617083
0.595012
0.72466
0.72466
0.199562
0.515012
0.632011
0.644272
0.863235
1
1
1
1
1
1
1
1
1
1
1
1
1
1
1
1
1
1
1
1
1
1
1
1
1
1
1
1
1
1
1
1
1
1
1
1
0.999998
0.979823
0.985904
0.996921
0.985798
0.976024
0.963977
1
0.976484
0.144576
2.11324e-20
5.71223e-21
2.87027e-22
-8.83799e-23
-2.45011e-33
-1.36824e-21
1.45527e-20
-7.66398e-21
-1.29269e-21
1.34379e-22
3.56677e-13
2.65635e-27
-3.36334e-21
0.471322
1
1
1
1
1
1
1
1
1
1
1
1
1
1
1
1
1
1
1
1
1
1
1
1
1
1
1
1
1
1
1
1
1
1
1
1
0.999997
0.999998
0.919356
0.884175
0.895472
0.988126
0.999974
1
0.9992
0.862059
0.33665
3.73606e-05
1.82075e-09
7.38326e-10
6.2741e-14
2.54664e-06
2.70646e-06
8.05858e-20
4.82232e-14
2.82435e-14
3.09109e-15
1.61952e-06
-2.65941e-20
0.90638
1
1
1
1
1
1
1
1
1
1
1
1
1
1
1
1
1
1
1
1
1
1
1
1
1
1
1
1
1
1
1
1
1
1
1
1
0.999979
0.995485
0.95404
0.992522
0.993547
0.999928
1
1
1
0.999886
1
0.56165
4.60442e-10
4.03566e-09
1.64655e-08
6.30915e-07
3.09632e-39
0.151695
0.100617
0.0026155
1.17561e-05
-8.64229e-26
0.0632909
1
1
1
1
1
1
1
1
1
1
1
1
1
1
1
1
1
1
1
1
1
1
1
1
1
1
1
1
1
1
1
1
1
1
1
1
1
0.999968
0.860563
0.85035
0.986266
1
1
0.994394
0.952851
0.952851
1
0.97174
0.998663
0.233294
1.14267e-19
1.2497e-08
3.84051e-10
1.08594e-30
0.997006
1
0.0934424
1.28388e-07
4.48641e-19
0.879085
1
1
1
1
1
1
1
1
1
1
1
1
1
1
1
1
1
1
1
1
1
1
1
1
1
1
1
1
1
1
1
1
1
1
1
1
1
0.869358
0.865462
1
1
0.998667
0.998605
1
1
1
1
0.985647
0.998821
0.96683
0.153429
-6.50712e-28
2.50844e-11
0.181262
1
0.968355
0.287869
6.87447e-11
0.358105
1
1
1
1
1
1
1
1
1
1
1
1
1
1
0.99984
0.998741
0.996796
0.995566
0.994923
0.995005
0.995683
0.998736
1
1
0.999922
0.993401
0.981346
0.966044
0.954088
0.953308
0.955234
0.964435
0.980863
0.999275
1
1
1
1
1
1
0.974637
0.951162
0.999991
1
1
1
0.999994
1
0.992341
0.91208
0.977136
0.980229
0.23713
0.233384
1
0.999602
0.900194
-1.04303e-20
7.63662e-19
1
1
1
1
1
1
1
0.879073
0.531185
0.217103
0.0478136
1.82331e-21
-1.47334e-20
-2.13392e-20
-2.99802e-20
-3.6879e-20
-4.0347e-20
-4.06714e-20
-3.82402e-20
-3.23069e-20
-2.07944e-20
-5.61053e-21
8.05596e-22
-3.19149e-21
1.01978e-22
-1.08447e-21
-6.01186e-22
1.38683e-21
-1.79205e-21
-1.56672e-21
1.89669e-21
4.64149e-22
-3.15416e-21
-2.89823e-21
-2.15637e-21
-2.33209e-21
2.8387e-21
-3.54544e-21
1.62957e-21
1
0.973447
0.821338
0.996055
0.957962
0.879827
0.900812
0.992162
1
0.914014
0.914014
0.993575
0.999709
0.997961
1
1
0.999735
0.9854
0.773216
-2.89376e-20
0.828257
1
1
1
1
1
0.849784
6.87645e-05
-5.62098e-20
-4.84977e-20
-4.1029e-20
-2.86525e-20
-2.21052e-20
-2.04187e-20
-2.07716e-20
-2.13528e-20
-2.18063e-20
-2.21966e-20
-2.2195e-20
-2.14248e-20
-1.99676e-20
-1.83002e-20
-1.69328e-20
-1.61606e-20
-1.60201e-20
-1.63668e-20
-1.70826e-20
-1.80375e-20
-1.90697e-20
-2.00033e-20
-2.06889e-20
-2.10356e-20
-2.09977e-20
-2.0585e-20
-1.98677e-20
-1.89629e-20
-1.80131e-20
-1.7163e-20
-1.6535e-20
-1.62106e-20
1
0.814707
0.998494
0.944041
0.838907
0.931053
0.944177
0.852458
0.9116
1
1
0.986569
0.990209
0.999956
0.998187
0.99866
0.999999
0.990974
0.111226
0.21114
1
1
1
1
1
0.637548
1.1153e-19
-2.01354e-20
-2.27692e-20
-1.91088e-20
-1.75262e-20
-1.72036e-20
-1.64126e-20
-1.48593e-20
-1.33411e-20
-1.23631e-20
-1.18771e-20
-1.16162e-20
-1.13508e-20
-1.09755e-20
-1.04962e-20
-9.97847e-21
-9.50262e-21
-9.13393e-21
-8.90729e-21
-8.81612e-21
-8.84926e-21
-8.99328e-21
-9.22592e-21
-9.51714e-21
-9.8384e-21
-1.01692e-20
-1.04852e-20
-1.07659e-20
-1.10037e-20
-1.12035e-20
-1.13721e-20
-1.15113e-20
-1.16192e-20
-1.16916e-20
0.999992
0.816843
0.998505
0.994534
0.973241
0.942184
0.95862
0.999943
1
1
0.976465
0.985857
0.999902
0.997122
0.999409
0.998198
0.936669
0.790103
1.13721e-18
0.984929
1
1
1
1
0.777007
1.19387e-18
-2.33431e-20
-1.50699e-20
-1.32247e-20
-1.12624e-20
-1.0259e-20
-9.73028e-21
-9.42867e-21
-9.17949e-21
-8.86754e-21
-8.46042e-21
-7.98668e-21
-7.49992e-21
-7.05025e-21
-6.67101e-21
-6.37778e-21
-6.17402e-21
-6.05829e-21
-6.02732e-21
-6.07489e-21
-6.18949e-21
-6.36068e-21
-6.57564e-21
-6.81751e-21
-7.06769e-21
-7.3094e-21
-7.5292e-21
-7.71523e-21
-7.85762e-21
-7.94991e-21
-7.98974e-21
-7.97837e-21
-7.92077e-21
-7.82682e-21
-7.71037e-21
0.842735
0.998432
0.998688
0.77127
0.98896
0.984844
0.969093
0.884204
0.927452
1
1
0.987382
0.965676
0.999194
0.995111
0.888839
0.952887
0.1215
0.559114
1
1
1
1
0.992606
1.12282e-18
-2.21652e-20
-1.65777e-20
-1.2073e-20
-9.31181e-21
-7.88557e-21
-7.07958e-21
-6.58879e-21
-6.25626e-21
-5.96688e-21
-5.65625e-21
-5.31723e-21
-4.98069e-21
-4.68536e-21
-4.45684e-21
-4.30222e-21
-4.21376e-21
-4.17606e-21
-4.17346e-21
-4.19487e-21
-4.23485e-21
-4.29168e-21
-4.36334e-21
-4.44689e-21
-4.53762e-21
-4.62832e-21
-4.71073e-21
-4.7768e-21
-4.82091e-21
-4.84142e-21
-4.8379e-21
-4.81203e-21
-4.76892e-21
-4.71594e-21
-4.66095e-21
-4.6113e-21
0.860769
0.999211
0.65614
0.999976
1
1
0.999723
0.999567
0.933699
0.819145
0.999795
0.984232
0.999578
1
0.873328
0.926884
0.654226
1.87758e-17
1
1
1
1
1
0.0841375
-3.05503e-20
-1.21237e-20
-9.73957e-21
-7.75479e-21
-6.31673e-21
-5.36911e-21
-4.71614e-21
-4.26489e-21
-3.93899e-21
-3.66722e-21
-3.41411e-21
-3.18249e-21
-2.99057e-21
-2.85023e-21
-2.7592e-21
-2.70471e-21
-2.67133e-21
-2.64729e-21
-2.62727e-21
-2.61121e-21
-2.60122e-21
-2.59881e-21
-2.60354e-21
-2.61293e-21
-2.62347e-21
-2.63193e-21
-2.63621e-21
-2.63551e-21
-2.62992e-21
-2.6203e-21
-2.6082e-21
-2.59575e-21
-2.58551e-21
-2.58021e-21
-2.58252e-21
-2.59472e-21
0.999816
0.999795
0.65614
1
1
0.999964
1
0.999342
0.999902
0.999454
1
1
0.874362
0.953412
0.993829
0.784908
0.0865989
0.725285
1
1
1
1
0.441544
-8.5091e-20
-1.83222e-20
-1.12445e-20
-7.08898e-21
-5.13032e-21
-4.07803e-21
-3.40019e-21
-2.91913e-21
-2.57134e-21
-2.307e-21
-2.09076e-21
-1.90992e-21
-1.76495e-21
-1.65592e-21
-1.57729e-21
-1.51984e-21
-1.47496e-21
-1.4373e-21
-1.40507e-21
-1.37858e-21
-1.35842e-21
-1.34424e-21
-1.33461e-21
-1.32757e-21
-1.32132e-21
-1.31477e-21
-1.30761e-21
-1.30019e-21
-1.29323e-21
-1.28757e-21
-1.28405e-21
-1.28356e-21
-1.28699e-21
-1.29515e-21
-1.30863e-21
-1.32769e-21
-1.35213e-21
0.999813
0.999749
0.72764
1
0.999969
0.999987
0.998236
0.999626
1
0.999989
0.999998
0.863825
0.835298
1
0.700512
0.915323
7.88019e-18
1
1
1
1
1
-4.22418e-21
-1.93747e-20
-1.1786e-20
-7.3662e-21
-4.81585e-21
-3.43204e-21
-2.6231e-21
-2.08829e-21
-1.71552e-21
-1.44683e-21
-1.24385e-21
-1.08594e-21
-9.63842e-22
-8.71332e-22
-8.01634e-22
-7.48033e-22
-7.05402e-22
-6.70801e-22
-6.42914e-22
-6.21089e-22
-6.0455e-22
-5.92148e-22
-5.82507e-22
-5.74362e-22
-5.66854e-22
-5.59627e-22
-5.52775e-22
-5.46675e-22
-5.41822e-22
-5.387e-22
-5.37712e-22
-5.39164e-22
-5.43263e-22
-5.50115e-22
-5.59699e-22
-5.71863e-22
-5.86312e-22
-6.02668e-22
0.999817
0.843693
0.967834
0.729829
0.979179
0.747833
0.907476
1
0.83265
0.740159
0.827304
1
1
0.999429
0.907543
0.026866
0.697999
1
1
1
1
0.13601
-1.28431e-20
-1.53388e-20
-8.36463e-21
-5.00646e-21
-3.28558e-21
-2.26686e-21
-1.62674e-21
-1.21086e-21
-9.32106e-22
-7.37668e-22
-5.97469e-22
-4.95035e-22
-4.20055e-22
-3.64762e-22
-3.23227e-22
-2.91396e-22
-2.66758e-22
-2.4776e-22
-2.33248e-22
-2.22177e-22
-2.13575e-22
-2.06603e-22
-2.0065e-22
-1.95353e-22
-1.90588e-22
-1.86398e-22
-1.82923e-22
-1.80332e-22
-1.78779e-22
-1.78375e-22
-1.79189e-22
-1.81243e-22
-1.84534e-22
-1.89037e-22
-1.94728e-22
-2.01592e-22
-2.09646e-22
-2.18956e-22
0.999817
0.982469
0.999658
0.387964
1
0.099992
0.938913
0.899521
0.254525
0.267854
0.82838
1
0.916214
0.997266
0.990766
-2.87232e-19
1
1
1
1
0.821937
1.38086e-19
-8.31891e-21
-8.78662e-21
-5.45086e-21
-3.38117e-21
-2.16789e-21
-1.40876e-21
-9.35471e-22
-6.40135e-22
-4.51824e-22
-3.28203e-22
-2.45337e-22
-1.89039e-22
-1.50227e-22
-1.22924e-22
-1.03313e-22
-8.90132e-23
-7.84848e-23
-7.0658e-23
-6.47433e-23
-6.01536e-23
-5.64753e-23
-5.34376e-23
-5.08844e-23
-4.87391e-23
-4.69777e-23
-4.56049e-23
-4.46367e-23
-4.40909e-23
-4.39829e-23
-4.43255e-23
-4.51318e-23
-4.64203e-23
-4.82203e-23
-5.05772e-23
-5.35579e-23
-5.72547e-23
-6.17859e-23
-6.72933e-23
0.988944
0.702041
0.36665
0.896713
1
0.0557493
0.970256
0.0465072
0.838271
1
1
1
0.94598
1
0.385312
0.510693
1
1
1
1
0.0521746
-7.4287e-21
-7.82385e-21
-5.84315e-21
-3.67495e-21
-2.23766e-21
-1.34674e-21
-8.06085e-22
-4.8649e-22
-2.99355e-22
-1.88891e-22
-1.22752e-22
-8.25662e-23
-5.77125e-23
-4.19663e-23
-3.17181e-23
-2.48724e-23
-2.01852e-23
-1.68944e-23
-1.45184e-23
-1.27521e-23
-1.1403e-23
-1.03519e-23
-9.52568e-24
-8.8797e-24
-8.38734e-24
-8.03276e-24
-7.80746e-24
-7.70805e-24
-7.73536e-24
-7.89453e-24
-8.19525e-24
-8.65286e-24
-9.28896e-24
-1.01328e-23
-1.12219e-23
-1.26037e-23
-1.43347e-23
-1.64812e-23
-1.91139e-23
3.05185e-05
0.14993
0.536082
0.92517
0.143761
0.224792
0.145739
0.0741107
0.211251
0.280379
0.587824
0.325253
1
0.989843
-3.87585e-19
0.981058
1
1
1
0.707607
-4.8095e-20
-7.81554e-21
-5.9541e-21
-3.96119e-21
-2.40856e-21
-1.39078e-21
-7.71058e-22
-4.16271e-22
-2.22786e-22
-1.19883e-22
-6.56452e-23
-3.70283e-23
-2.17504e-23
-1.34012e-23
-8.68753e-24
-5.92512e-24
-4.24216e-24
-3.1752e-24
-2.4719e-24
-1.99149e-24
-1.65355e-24
-1.41107e-24
-1.23572e-24
-1.10999e-24
-1.02301e-24
-9.68034e-25
-9.41308e-25
-9.41219e-25
-9.67957e-25
-1.02332e-24
-1.11068e-24
-1.23506e-24
-1.40319e-24
-1.62387e-24
-1.90814e-24
-2.26957e-24
-2.72468e-24
-3.29297e-24
-3.99667e-24
-4.85829e-24
2.92109e-05
0.125455
0.0650817
1.32924e-22
0.00526425
0.173709
5.90824e-09
-5.49441e-21
4.64026e-14
3.88516e-10
3.83959e-22
-2.66672e-21
0.0168882
0.000123173
0.145582
1
1
1
1
0.044699
-1.07295e-20
-7.00099e-21
-4.51072e-21
-2.68108e-21
-1.51264e-21
-8.03732e-22
-4.00038e-22
-1.89371e-22
-8.7046e-23
-3.95734e-23
-1.81496e-23
-8.57385e-24
-4.24664e-24
-2.231e-24
-1.24994e-24
-7.47292e-25
-4.75376e-25
-3.20229e-25
-2.27367e-25
-1.69556e-25
-1.32544e-25
-1.08563e-25
-9.32275e-26
-8.40191e-26
-7.95225e-26
-7.90081e-26
-8.22114e-26
-8.92158e-26
-1.00389e-25
-1.16362e-25
-1.38026e-25
-1.66556e-25
-2.03451e-25
-2.50588e-25
-3.10291e-25
-3.8541e-25
-4.79423e-25
-5.9644e-25
-7.41105e-25
-9.17738e-25
-3.62989e-20
0.000205523
-1.1055e-21
0.00308333
0.00646558
8.05933e-05
0.000139254
1.69332e-07
1.12284e-07
-2.37377e-23
8.2516e-05
1.67466e-09
1.444e-09
2.41622e-28
0.863812
1
1
1
0.801811
-6.3064e-20
-6.06089e-21
-5.43142e-21
-3.30948e-21
-1.79367e-21
-9.07835e-22
-4.26053e-22
-1.83626e-22
-7.3519e-23
-2.78932e-23
-1.02694e-23
-3.77759e-24
-1.43115e-24
-5.72942e-25
-2.46527e-25
-1.14984e-25
-5.82427e-26
-3.19827e-26
-1.89923e-26
-1.21856e-26
-8.45864e-27
-6.37303e-27
-5.2304e-27
-4.6814e-27
-4.55295e-27
-4.76659e-27
-5.29921e-27
-6.16427e-27
-7.40161e-27
-9.0742e-27
-1.12662e-26
-1.40852e-26
-1.76642e-26
-2.21683e-26
-2.77998e-26
-3.481e-26
-4.35061e-26
-5.42647e-26
-6.75288e-26
-8.37857e-26
-1.03386e-25
0.157262
0.166938
0.264691
0.00719036
2.81454e-05
3.93508e-05
7.98575e-13
6.64536e-08
2.73595e-21
0.0030544
1.64642e-07
1.43878e-11
3.47961e-26
-2.86814e-19
1
1
1
1
0.0980468
-2.16357e-21
-5.46876e-21
-3.85599e-21
-2.27338e-21
-1.1332e-21
-5.0362e-22
-2.01696e-22
-7.23072e-23
-2.33964e-23
-6.97061e-24
-1.97121e-24
-5.50526e-25
-1.58355e-25
-4.85958e-26
-1.63008e-26
-6.05783e-27
-2.50984e-27
-1.16406e-27
-6.08164e-28
-3.61728e-28
-2.47999e-28
-1.97263e-28
-1.8051e-28
-1.85446e-28
-2.07226e-28
-2.4462e-28
-2.98388e-28
-3.70507e-28
-4.63821e-28
-5.81893e-28
-7.28984e-28
-9.10167e-28
-1.13143e-27
-1.40014e-27
-1.72537e-27
-2.11856e-27
-2.59407e-27
-3.16973e-27
-3.86673e-27
-4.70644e-27
-5.69633e-27
0.142765
0.18681
-5.76285e-25
2.52517e-05
1.85074e-06
1.17802e-26
8.20317e-24
0.00221794
0.00583216
2.06522e-08
4.41049e-08
3.65633e-07
5.41584e-26
0.59957
1
1
1
0.995355
-9.41638e-20
-1.13862e-20
-5.03019e-21
-2.87859e-21
-1.49573e-21
-6.57889e-22
-2.50405e-22
-8.25577e-23
-2.34599e-23
-5.79418e-24
-1.27126e-24
-2.57526e-25
-5.07945e-26
-1.03189e-26
-2.26667e-27
-5.58132e-28
-1.57774e-28
-5.21834e-29
-2.06859e-29
-1.01572e-29
-6.35896e-30
-5.04487e-30
-4.82342e-30
-5.20725e-30
-6.02726e-30
-7.23818e-30
-8.84667e-30
-1.08823e-29
-1.33866e-29
-1.6404e-29
-1.99821e-29
-2.41735e-29
-2.90396e-29
-3.466e-29
-4.11446e-29
-4.86467e-29
-5.73819e-29
-6.76452e-29
-7.98282e-29
-9.44068e-29
-1.11845e-28
-1.32144e-28
0.145092
4.95063e-26
2.70419e-06
5.49507e-06
0.000155333
0.00773578
0.00773578
0.00195854
2.85212e-08
1.5074e-06
2.22296e-06
1.46999e-08
-3.94975e-28
0.991796
1
1
1
0.228497
-8.61791e-21
-5.82671e-21
-3.69062e-21
-2.0159e-21
-9.16794e-22
-3.46015e-22
-1.0866e-22
-2.80689e-23
-5.93956e-24
-1.03735e-24
-1.53412e-25
-2.01797e-26
-2.53434e-27
-3.28359e-28
-4.71572e-29
-7.95179e-30
-1.65795e-30
-4.55826e-31
-1.79917e-31
-1.05984e-31
-8.59478e-32
-8.41865e-32
-9.07772e-32
-1.02623e-31
-1.18687e-31
-1.38603e-31
-1.62194e-31
-1.89314e-31
-2.19764e-31
-2.53324e-31
-2.89785e-31
-3.29061e-31
-3.71274e-31
-4.16901e-31
-4.669e-31
-5.22885e-31
-5.8728e-31
-6.63548e-31
-7.56381e-31
-8.71739e-31
-1.01577e-30
-1.18972e-30
0.143086
5.61008e-25
8.29058e-07
2.10453e-07
0.00512292
0.000745188
2.60239e-08
2.6599e-08
3.24793e-06
1.4099e-06
1.68722e-07
2.78155e-08
0.278913
1
1
1
1
-8.35363e-19
-6.75635e-21
-4.68867e-21
-2.77551e-21
-1.33415e-21
-5.18957e-22
-1.62014e-22
-3.97628e-23
-7.51859e-24
-1.08604e-24
-1.20144e-25
-1.04695e-26
-7.6609e-28
-5.19495e-29
-3.67036e-30
-3.04566e-31
-3.34927e-32
-5.77055e-33
-1.88953e-33
-1.11416e-33
-9.05046e-34
-8.46493e-34
-8.45805e-34
-8.75154e-34
-9.23392e-34
-9.84487e-34
-1.0541e-33
-1.12867e-33
-1.20528e-33
-1.28161e-33
-1.35608e-33
-1.42839e-33
-1.49972e-33
-1.57269e-33
-1.65193e-33
-1.74393e-33
-1.85785e-33
-2.00598e-33
-2.20498e-33
-2.47741e-33
-2.85303e-33
-3.36512e-33
-4.02783e-33
0.0392845
0.0135572
-5.44625e-24
8.87937e-05
5.85908e-13
2.54687e-08
2.60239e-08
1.23103e-06
6.30188e-06
7.33442e-08
2.75987e-07
-3.52274e-20
0.930678
1
1
1
0.521653
7.98467e-21
-6.67631e-21
-3.7739e-21
-1.95041e-21
-8.16999e-22
-2.6614e-22
-6.54477e-23
-1.16848e-23
-1.46808e-24
-1.26693e-25
-7.39319e-27
-2.9777e-28
-8.98811e-30
-2.3798e-31
-6.93612e-33
-3.02838e-34
-3.29161e-35
-1.12109e-35
-6.78015e-36
-5.00264e-36
-4.0425e-36
-3.45213e-36
-3.06227e-36
-2.79125e-36
-2.59373e-36
-2.44318e-36
-2.32225e-36
-2.22029e-36
-2.13096e-36
-2.05121e-36
-1.9804e-36
-1.9198e-36
-1.87249e-36
-1.84256e-36
-1.83557e-36
-1.85875e-36
-1.92185e-36
-2.03849e-36
-2.22838e-36
-2.52006e-36
-2.95339e-36
-3.57431e-36
-4.40005e-36
3.73034e-05
0.0137945
-1.76366e-16
2.38809e-05
1.53968e-05
2.28305e-08
2.515e-06
8.8324e-06
1.40787e-10
2.27592e-07
1.05094e-10
0.125179
1
1
1
1
0.046033
-6.49889e-21
-5.88669e-21
-2.83184e-21
-1.29655e-21
-4.61308e-22
-1.20673e-22
-2.18343e-23
-2.56471e-24
-1.83744e-25
-7.41843e-27
-1.53338e-28
-1.48535e-30
-6.66067e-33
-2.44509e-35
-4.20236e-37
-8.68755e-38
-3.62588e-38
-1.85251e-38
-1.06364e-38
-6.67234e-39
-4.48592e-39
-3.1925e-39
-2.38135e-39
-1.84713e-39
-1.47934e-39
-1.21705e-39
-1.02352e-39
-8.76986e-40
-7.63663e-40
-6.74517e-40
-6.03922e-40
-5.48179e-40
-5.04978e-40
-4.7301e-40
-4.51796e-40
-4.41564e-40
-4.43501e-40
-4.59964e-40
-4.94928e-40
-5.54753e-40
-6.48517e-40
-7.86099e-40
-9.67484e-40
0.0172859
1.22574e-09
5.95882e-07
1.40708e-05
5.85908e-13
5.85908e-13
5.71382e-06
3.2145e-06
2.3162e-10
1.27127e-10
5.06349e-37
0.906783
1
1
1
0.936236
3.72515e-20
-6.63543e-21
-3.83984e-21
-1.99276e-21
-8.07474e-22
-2.36448e-22
-4.67873e-23
-5.65104e-24
-3.71331e-25
-1.11801e-26
-1.07404e-28
-1.73034e-31
-1.83552e-35
-2.69904e-38
-1.14883e-39
-2.21118e-40
-5.55453e-41
-1.65263e-41
-5.74415e-42
-2.32135e-42
-1.0668e-42
-5.47656e-43
-3.23605e-43
-2.05566e-43
-1.3863e-43
-9.8236e-44
-7.25368e-44
-5.53455e-44
-4.33449e-44
-3.46742e-44
-2.82198e-44
-2.33134e-44
-1.9544e-44
-1.66392e-44
-1.44199e-44
-1.2769e-44
-1.16072e-44
-1.0892e-44
-1.06187e-44
-1.08231e-44
-1.15932e-44
-1.30699e-44
-1.5383e-44
-1.83782e-44
0.0176873
1.22574e-09
1.01024e-06
5.85908e-13
5.85908e-13
0.000323837
2.08324e-05
2.11803e-24
3.73119e-07
7.75042e-40
0.105154
1
1
1
1
0.163201
4.18757e-38
-4.45674e-21
-2.86125e-21
-1.34083e-21
-4.62084e-22
-1.0672e-22
-1.47244e-23
-1.0177e-24
-2.67231e-26
-1.235e-28
-4.9734e-32
-1.16469e-36
-1.36071e-40
-5.5387e-42
-5.22514e-43
-5.35506e-44
-5.99862e-45
-7.93447e-46
-1.32586e-46
-2.91586e-47
-8.63088e-48
-3.2254e-48
-1.43262e-48
-7.3167e-49
-3.9724e-49
-2.43704e-49
-1.57134e-49
-1.04452e-49
-7.11028e-50
-4.93168e-50
-3.47667e-50
-2.48939e-50
-1.81062e-50
-1.34186e-50
-1.01703e-50
-7.91941e-51
-6.37626e-51
-5.34406e-51
-4.69529e-51
-4.35662e-51
-4.29218e-51
-4.49058e-51
-4.92844e-51
-5.45995e-51
5.06377e-21
5.13288e-07
2.36594e-09
2.73114e-10
5.85908e-13
0.000323837
0.000138361
8.96788e-05
1.93942e-09
8.2571e-20
0.908656
1
1
1
1
1.13779e-19
-4.68728e-21
-3.45697e-21
-2.00198e-21
-8.41339e-22
-2.38065e-22
-4.06723e-23
-3.44707e-24
-1.00533e-25
-3.75897e-28
-1.21589e-31
-1.45673e-37
-2.49417e-42
-7.91302e-44
-2.48645e-45
-6.41656e-47
-1.38375e-48
-2.87998e-50
-7.38618e-52
-2.98171e-53
-2.08398e-54
-2.38466e-55
-3.99553e-56
-8.89801e-57
-2.47191e-57
-8.66906e-58
-3.59491e-58
-1.66113e-58
-8.1637e-59
-4.27738e-59
-2.41031e-59
-1.3864e-59
-8.13174e-60
-4.86672e-60
-2.98749e-60
-1.90168e-60
-1.29029e-60
-1.00847e-60
-1.07659e-60
-1.82211e-60
-4.45292e-60
-1.2996e-59
-4.03636e-59
-1.24933e-58
-3.69476e-58
1.31161e-09
3.17263e-07
6.35422e-09
6.87502e-10
2.62738e-05
8.36893e-05
0.00102596
8.95423e-10
8.28194e-10
0.167049
1
1
1
1
0.341808
-3.47357e-20
-4.11497e-21
-2.65733e-21
-1.37314e-21
-4.88886e-22
-1.07272e-22
-1.22956e-23
-5.07523e-25
-2.52443e-27
-1.23819e-30
-1.43205e-37
-3.86354e-43
-4.41675e-45
-4.10175e-47
-2.07665e-49
-2.57896e-52
-2.07764e-56
-1.05965e-59
-2.26022e-62
-3.40042e-64
-4.69104e-66
-7.02369e-68
-4.45632e-68
-1.49834e-67
-4.80178e-67
-1.44976e-66
-4.14327e-66
-1.12573e-65
-2.92353e-65
-7.29401e-65
-1.75859e-64
-4.1251e-64
-9.70307e-64
-2.2594e-63
-5.35941e-63
-1.30834e-62
-3.30405e-62
-8.89117e-62
-2.54546e-61
-7.89154e-61
-2.65164e-60
-9.58788e-60
-3.64746e-59
-1.39975e-58
-5.13103e-58
2.78531e-08
1.11008e-09
2.37887e-09
1.63075e-10
5.68586e-06
0.00293787
0.000369015
3.69984e-10
1.36987e-18
0.94365
1
1
1
1
-2.3155e-19
-5.41908e-21
-3.82521e-21
-2.09582e-21
-9.03176e-22
-2.56244e-22
-4.03429e-23
-2.63571e-24
-2.81404e-26
-2.27263e-29
-7.26236e-34
-3.45408e-43
-1.49981e-45
-4.38602e-48
-3.77493e-51
-1.13901e-55
-2.54567e-57
-5.48539e-59
-1.05756e-60
-1.82944e-62
-2.84325e-64
-3.96941e-66
-5.17722e-68
-8.72782e-69
-3.08151e-68
-1.08325e-67
-3.55074e-67
-1.08862e-66
-3.13933e-66
-8.57199e-66
-2.23263e-65
-5.58935e-65
-1.35679e-64
-3.22626e-64
-7.60653e-64
-1.80284e-63
-4.42923e-63
-1.14068e-62
-3.1754e-62
-9.49808e-62
-3.17382e-61
-1.17352e-60
-4.82935e-60
-2.16177e-59
-1.00499e-58
-4.4926e-58
6.75707e-09
3.46605e-08
1.50941e-09
1.61994e-05
6.85448e-08
0.0034627
-1.64657e-21
6.16659e-11
0.344709
1
1
1
1
0.579075
-5.92097e-21
-4.95207e-21
-3.22872e-21
-1.50403e-21
-5.40342e-22
-1.16068e-22
-1.17459e-23
-3.09554e-25
-4.92677e-28
-8.53618e-32
-1.45129e-42
-2.91034e-45
-3.44561e-48
-1.02018e-51
-3.09221e-54
-8.30554e-56
-1.99767e-57
-4.30709e-59
-8.33275e-61
-1.44932e-62
-2.2689e-64
-3.19882e-66
-4.08505e-68
-1.37819e-69
-3.78686e-69
-1.47257e-68
-5.34865e-68
-1.80273e-67
-5.6438e-67
-1.65045e-66
-4.55031e-66
-1.19546e-65
-3.03318e-65
-7.53638e-65
-1.86439e-64
-4.6742e-64
-1.20814e-63
-3.27013e-63
-9.38112e-63
-2.88765e-62
-9.91996e-62
-3.76127e-61
-1.63014e-60
-7.92216e-60
-4.17634e-59
-2.18431e-58
1.65833e-05
1.13633e-07
3.08655e-28
2.43862e-07
0.00183699
0.000499399
1.52511e-10
6.16659e-11
1
1
1
1
1
0.037094
-5.52001e-21
-4.71978e-21
-2.42073e-21
-9.96104e-22
-2.86468e-22
-4.30432e-23
-2.29989e-24
-1.02243e-26
-5.3851e-30
-1.33478e-38
-2.34982e-44
-1.53498e-47
-4.68343e-51
-7.9041e-53
-2.34781e-54
-6.26952e-56
-1.50298e-57
-3.23761e-59
-6.27406e-61
-1.09647e-62
-1.7294e-64
-2.46266e-66
-3.16658e-68
-4.31081e-70
-2.92903e-70
-1.21875e-69
-4.82944e-69
-1.79399e-68
-6.21181e-68
-1.99641e-67
-5.97002e-67
-1.67922e-66
-4.51777e-66
-1.18787e-65
-3.12603e-65
-8.44284e-65
-2.39206e-64
-7.22307e-64
-2.34125e-63
-8.1291e-63
-2.99902e-62
-1.1661e-61
-4.77549e-61
-2.07841e-60
-1.02209e-59
-5.67863e-59
1.85066e-05
8.91328e-07
9.02221e-07
7.56957e-09
7.01457e-05
8.82736e-11
8.82745e-11
0.698833
1
1
1
1
0.775093
-2.71681e-21
-4.97321e-21
-3.6202e-21
-1.68882e-21
-6.02939e-22
-1.29695e-22
-1.20016e-23
-2.06502e-25
-2.10197e-28
-1.01886e-32
-2.02611e-39
-4.08185e-46
-7.86227e-50
-1.782e-51
-5.80227e-53
-1.70819e-54
-4.53157e-56
-1.08253e-57
-2.32842e-59
-4.51736e-61
-7.92234e-63
-1.25655e-64
-1.80182e-66
-2.33553e-68
-2.76494e-70
-1.71918e-71
-6.48644e-71
-2.77313e-70
-1.11269e-69
-4.17825e-69
-1.47079e-68
-4.85072e-68
-1.4991e-67
-4.38382e-67
-1.2428e-66
-3.53388e-66
-1.04537e-65
-3.31472e-65
-1.14283e-64
-4.27244e-64
-1.7045e-63
-7.10423e-63
-3.0308e-62
-1.30594e-61
-5.68246e-61
-2.5253e-60
-1.07169e-59
6.81698e-07
5.60882e-06
5.37648e-08
2.32617e-05
8.69134e-07
3.60947e-10
0.0839011
1
1
1
1
1
0.0699271
-7.42353e-21
-4.65886e-21
-2.60288e-21
-1.11531e-21
-3.23694e-22
-4.74775e-23
-2.11355e-24
-5.37911e-27
-2.13365e-30
-7.28468e-37
-4.37094e-40
-3.02115e-47
-3.60643e-50
-1.27314e-51
-4.09068e-53
-1.19068e-54
-3.13234e-56
-7.44038e-58
-1.59587e-59
-3.09384e-61
-5.43356e-63
-8.6501e-65
-1.24815e-66
-1.63255e-68
-1.93345e-70
-2.56564e-72
-2.41287e-72
-1.08174e-71
-4.6146e-71
-1.85641e-70
-7.01949e-70
-2.49222e-69
-8.36924e-69
-2.68651e-68
-8.36941e-68
-2.60886e-67
-8.52108e-67
-3.03199e-66
-1.18664e-65
-5.01744e-65
-2.22375e-64
-1.00173e-63
-4.46393e-63
-1.9136e-62
-7.56984e-62
-2.53666e-61
-6.06398e-61
0.000799627
1.27213e-05
0.000138652
4.51796e-11
1.88557e-09
6.26187e-10
0.98401
1
1
1
1
0.810754
-5.26538e-20
-6.88939e-21
-3.34498e-21
-1.79031e-21
-6.75369e-22
-1.48751e-22
-1.28797e-23
-1.39701e-25
-1.23696e-28
-1.36927e-33
-1.64293e-37
-8.44696e-41
-4.73834e-48
-2.53972e-50
-8.80445e-52
-2.78013e-53
-7.97279e-55
-2.07329e-56
-4.88191e-58
-1.04112e-59
-2.01293e-61
-3.53467e-63
-5.64186e-65
-8.18065e-67
-1.07673e-68
-1.28435e-70
-1.39891e-72
-8.17812e-74
-3.21112e-73
-1.42879e-72
-6.00588e-72
-2.37819e-71
-8.89832e-71
-3.15725e-70
-1.07052e-69
-3.54019e-69
-1.18338e-68
-4.1553e-68
-1.58895e-67
-6.65438e-67
-2.95949e-66
-1.33455e-65
-5.84389e-65
-2.38276e-64
-8.64068e-64
-2.62886e-63
-6.23295e-63
-1.05553e-62
0.000239575
0.000670819
1.49722e-11
7.33064e-09
1.43145e-09
0.860972
1
1
1
1
1
0.0602635
-1.0286e-20
-4.0135e-21
-2.521e-21
-1.18709e-21
-3.65863e-22
-5.62529e-23
-2.17365e-24
-4.89946e-27
-7.49574e-30
-1.42933e-33
-8.94302e-38
-1.45363e-41
-1.02813e-48
-1.7472e-50
-5.92472e-52
-1.83187e-53
-5.15528e-55
-1.31943e-56
-3.06852e-58
-6.48391e-60
-1.24618e-61
-2.18143e-63
-3.47942e-65
-5.05267e-67
-6.67551e-69
-8.01334e-71
-8.72291e-73
-1.01614e-74
-7.78134e-75
-3.55021e-74
-1.5424e-73
-6.31708e-73
-2.43762e-72
-8.87492e-72
-3.07157e-71
-1.02652e-70
-3.39114e-70
-1.15689e-69
-4.27786e-69
-1.73221e-68
-7.43268e-68
-3.19559e-67
-1.30145e-66
-4.77577e-66
-1.50316e-65
-3.84429e-65
-7.52039e-65
-1.06378e-64
1.49722e-11
1.49722e-11
1.44785e-07
9.57315e-09
0.780237
1
1
1
1
1
0.675098
-3.50308e-20
-4.48613e-21
-3.27282e-21
-1.83869e-21
-7.1919e-22
-1.73412e-22
-1.68701e-23
-1.81069e-25
-1.28707e-27
-4.91499e-30
-1.88956e-33
-1.3562e-37
-3.04712e-42
-4.77496e-49
-1.1677e-50
-3.87886e-52
-1.17293e-53
-3.22967e-55
-8.1018e-57
-1.85228e-58
-3.86086e-60
-7.34243e-62
-1.27596e-63
-2.02658e-65
-2.93971e-67
-3.89002e-69
-4.68693e-71
-5.12729e-73
-5.10825e-75
-1.88096e-76
-6.84114e-76
-3.09038e-75
-1.31327e-74
-5.23176e-74
-1.95347e-73
-6.86007e-73
-2.27622e-72
-7.22905e-72
-2.25417e-71
-7.13702e-71
-2.39958e-70
-8.71843e-70
-3.28939e-69
-1.20869e-68
-4.05082e-68
-1.16543e-67
-2.71565e-67
-4.84012e-67
-6.32206e-67
7.32003e-07
1.95719e-06
1.7447e-17
0.845665
1
1
1
1
1
1
-2.77639e-19
-5.9926e-21
-4.64137e-21
-2.66159e-21
-1.22942e-21
-3.91458e-22
-7.27388e-23
-4.17569e-24
-6.71131e-26
-7.93532e-28
-3.24058e-30
-1.85611e-33
-1.60521e-37
-1.65262e-42
-3.39507e-49
-7.47141e-51
-2.44585e-52
-7.2591e-54
-1.95775e-55
-4.8097e-57
-1.07769e-58
-2.20666e-60
-4.13403e-62
-7.10034e-64
-1.1182e-65
-1.61281e-67
-2.12833e-69
-2.56332e-71
-2.81001e-73
-2.79602e-75
-2.69689e-77
-9.16244e-78
-4.26469e-77
-1.90491e-76
-7.96166e-76
-3.10571e-75
-1.129e-74
-3.82145e-74
-1.21024e-73
-3.61088e-73
-1.02797e-72
-2.85762e-72
-7.93641e-72
-2.25333e-71
-6.47143e-71
-1.78685e-70
-4.44914e-70
-9.35817e-70
-1.5701e-69
-2.06105e-69
0.212398
0.121588
1
1
1
1
1
1
1
0.285023
-4.10137e-39
-5.78489e-21
-4.13025e-21
-1.97951e-21
-7.47362e-22
-1.9778e-22
-2.99136e-23
-1.53123e-24
-4.36107e-26
-3.64099e-28
-1.3815e-30
-9.38127e-34
-8.93042e-38
-8.49581e-43
-1.97546e-49
-4.49249e-51
-1.46081e-52
-4.28675e-54
-1.13851e-55
-2.74667e-57
-6.03933e-59
-1.21296e-60
-2.23234e-62
-3.77273e-64
-5.86186e-66
-8.36424e-68
-1.09506e-69
-1.31238e-71
-1.43528e-73
-1.42837e-75
-1.2909e-77
-1.61878e-79
-2.92819e-79
-1.41922e-78
-6.44827e-78
-2.72656e-77
-1.06694e-76
-3.85268e-76
-1.28052e-75
-3.91766e-75
-1.10748e-74
-2.91249e-74
-7.19879e-74
-1.69694e-73
-3.84181e-73
-8.39322e-73
-1.74773e-72
-3.33657e-72
-5.55988e-72
-7.62643e-72
1
1
1
1
1
1
1
1
1
1
1
1
1
1
1
1
1
1
1
1
1
1
1
1
1
1
1
1
1
1
1
1
1
1
1
1
1
1
1
1
1
1
1
1
1
1
1
1
1
1
1
1
1
1
1
1
1
1
1
1
1
1
1
1
1
1
1
1
1
1
1
1
1
1
1
1
1
1
1
1
1
1
1
1
1
1
1
1
1
1
1
1
1
1
1
1
1
1
1
1
1
1
1
1
1
1
1
1
1
1
1
1
1
1
1
1
1
1
1
1
1
1
1
1
1
1
1
1
1
1
1
1
1
1
1
1
1
1
1
1
1
1
1
1
1
1
1
1
1
1
1
1
1
1
1
1
1
1
1
1
1
1
1
1
1
1
1
1
1
1
1
1
1
1
1
1
1
1
1
1
1
1
1
1
1
1
1
1
1
1
1
1
1
1
1
1
1
1
1
1
1
1
1
1
1
1
1
1
1
1
1
1
1
1
1
1
1
1
1
1
1
1
1
1
1
1
1
1
1
1
1
1
1
1
1
1
1
1
1
1
1
1
1
1
1
1
1
1
1
1
1
1
1
1
0.999971
0.992803
0.965115
0.906664
0.808806
0.638484
-4.92623e-31
0.302211
0.300569
0.285134
0.266018
0.242989
0.216701
0.187287
0.154753
0.11969
0.0832649
0.046962
0.00773525
-5.83742e-23
-2.25698e-22
-2.97385e-22
-2.96025e-22
-2.78694e-22
-2.69078e-22
-2.09915e-24
-9.40249e-32
-4.05095e-31
-1.35578e-30
-4.82981e-30
-1.26812e-29
-2.77143e-29
-5.37643e-29
-9.47318e-29
-1.52004e-28
-2.21627e-28
-2.95377e-28
-3.72896e-28
-4.84782e-28
-6.12115e-28
-6.91309e-28
-7.16572e-28
-6.79537e-28
-5.93087e-28
-5.07049e-28
-4.31479e-28
-1.7108e-32
-2.64907e-32
-8.27132e-32
-4.51806e-31
-1.37489e-30
-2.97839e-30
-5.3344e-30
-8.34786e-30
-1.17767e-29
-1.53865e-29
-1.92613e-29
-2.43586e-29
-3.26607e-29
-4.16042e-29
-4.43923e-29
-3.89214e-29
-2.83717e-29
-1.77842e-29
-1.02093e-29
-5.67017e-30
-4.50698e-33
-9.30367e-34
-2.54318e-33
-7.89359e-33
-2.83941e-32
-6.91137e-32
-1.34521e-31
-2.25966e-31
-3.3964e-31
-4.69183e-31
-6.09971e-31
-7.60669e-31
-9.02067e-31
-9.50225e-31
-8.37256e-31
-6.12565e-31
-3.79304e-31
-2.05905e-31
-1.03081e-31
-4.99498e-32
-9.43345e-34
-3.0412e-35
-7.24786e-35
-2.40573e-34
-7.17955e-34
-2.02777e-33
-4.26799e-33
-7.50657e-33
-1.14947e-32
-1.57134e-32
-1.94996e-32
-2.21186e-32
-2.27102e-32
-2.05408e-32
-1.60341e-32
-1.08067e-32
-6.3834e-33
-3.3856e-33
-1.66144e-33
-7.74032e-34
-1.66703e-34
-8.57543e-37
-2.13478e-36
-8.13545e-36
-2.57458e-35
-6.76398e-35
-1.49933e-34
-2.61887e-34
-3.88231e-34
-5.03123e-34
-5.79931e-34
-5.98978e-34
-5.53205e-34
-4.53203e-34
-3.27534e-34
-2.0925e-34
-1.19159e-34
-6.12332e-35
-2.87899e-35
-1.25166e-35
-2.70874e-35
-1.94623e-38
-5.49913e-38
-2.49076e-37
-8.60705e-37
-2.27653e-36
-4.81294e-36
-8.11075e-36
-1.13095e-35
-1.36774e-35
-1.46395e-35
-1.39815e-35
-1.19216e-35
-9.04866e-36
-6.09807e-36
-3.64898e-36
-1.94471e-36
-9.28671e-37
-4.00745e-37
-1.57726e-37
-2.67538e-36
-2.17332e-39
-1.08148e-39
-6.0114e-39
-2.23686e-38
-5.99581e-38
-1.21608e-37
-1.93015e-37
-2.52603e-37
-2.87854e-37
-2.91033e-37
-2.61453e-37
-2.07788e-37
-1.45498e-37
-8.96586e-38
-4.87469e-38
-2.35393e-38
-1.01997e-38
-4.01549e-39
-1.45415e-39
-2.60466e-38
-1.49162e-39
-1.99411e-41
-1.04281e-40
-3.94458e-40
-1.03745e-39
-2.015e-39
-3.00023e-39
-3.73149e-39
-4.09969e-39
-3.99871e-39
-3.41133e-39
-2.51589e-39
-1.60134e-39
-8.85836e-40
-4.31409e-40
-1.87935e-40
-7.44376e-41
-2.71914e-41
-9.26118e-42
-7.12798e-42
-1.20586e-41
-2.67231e-43
-1.06548e-42
-3.71864e-42
-9.3029e-42
-1.71544e-41
-2.41786e-41
-2.90562e-41
-3.13525e-41
-2.97325e-41
-2.39489e-41
-1.61617e-41
-9.21707e-42
-4.54603e-42
-1.9942e-42
-7.96704e-43
-2.93998e-43
-1.00845e-43
-3.23009e-44
-2.07365e-46
-1.82877e-45
-8.39185e-46
-3.68517e-45
-1.12187e-44
-2.63159e-44
-4.62753e-44
-6.26185e-44
-7.40781e-44
-7.94746e-44
-7.3089e-44
-5.48281e-44
-3.33022e-44
-1.68632e-44
-7.46247e-45
-3.00257e-45
-1.1153e-45
-3.82009e-46
-1.20748e-46
-3.55776e-47
1
1