/*--------------------------------*- C++ -*----------------------------------*\
| =========                 |                                                 |
| \\      /  F ield         | OpenFOAM: The Open Source CFD Toolbox           |
|  \\    /   O peration     | Version:  v1912                                 |
|   \\  /    A nd           | Website:  www.openfoam.com                      |
|    \\/     M anipulation  |                                                 |
\*---------------------------------------------------------------------------*/
FoamFile
{
    version     2.0;
    format      ascii;
    class       surfaceScalarField;
    location    "28";
    object      alphaPhi0.water;
}
// * * * * * * * * * * * * * * * * * * * * * * * * * * * * * * * * * * * * * //

dimensions      [0 3 -1 0 0 0 0];
oriented        oriented;


internalField   nonuniform List<scalar> 
40282
(
0.00278159
0.00264283
1.91922
-1.92582
1.92024
0.00558001
-1.9112
1.89906
0.0121376
-1.88389
1.86579
0.018101
-1.84476
1.82093
0.0238322
-1.7943
1.76494
0.0293548
-1.73292
1.69831
0.0346166
-1.66118
1.62152
0.0396617
-1.57948
1.535
0.044473
-1.48834
1.43936
0.048973
-1.38833
1.33513
0.053203
-1.28003
1.22291
0.0571268
-1.16404
1.10328
0.0607592
-1.041
0.977046
0.0639528
-0.911635
0.8449
0.0667345
-0.776622
0.707433
0.0691893
-0.636372
0.564803
0.0715692
-0.490919
0.416389
0.0745304
-0.338579
0.259109
0.0794696
-0.176449
0.0787325
0.0977165
-0.00422538
0.00559846
1.85432
-1.84983
1.8429
-0.0140881
0.0210244
-1.83325
1.82083
-0.0256066
0.0380262
-1.80563
1.78767
-0.036888
0.054847
-1.76699
1.74361
-0.0479299
0.071306
-1.71759
1.68897
-0.0587261
0.0873467
-1.65779
1.62408
-0.0691894
0.102898
-1.58789
1.54927
-0.0792611
0.117879
-1.50827
1.46496
-0.0888929
0.132207
-1.41937
1.3716
-0.098037
0.145814
-1.32167
1.26966
-0.106654
0.15866
-1.21561
1.15959
-0.114691
0.170706
-1.10164
1.04185
-0.12211
0.181899
-0.980253
0.916929
-0.128834
0.192158
-0.851956
0.785401
-0.134826
0.201381
-0.717403
0.648025
-0.140107
0.209486
-0.577471
0.505787
-0.144795
0.216479
-0.433295
0.360043
-0.149254
0.222506
-0.286829
0.213363
-0.154023
0.22749
-0.139909
0.0690571
-0.170015
0.240867
-0.00700567
0.00835476
1.78786
-1.78368
1.77688
-0.0281562
0.0349642
-1.76741
1.75531
-0.0506375
0.0627382
-1.74059
1.72326
-0.0728695
0.090202
-1.70333
1.68082
-0.0946901
0.117199
-1.65575
1.62816
-0.115971
0.143563
-1.59808
1.56554
-0.136612
0.169148
-1.5306
1.49329
-0.156506
0.193815
-1.45367
1.4118
-0.175527
0.217398
-1.36774
1.32156
-0.19358
0.23976
-1.27333
1.22312
-0.210614
0.260819
-1.17101
1.11708
-0.226612
0.28055
-1.06137
1.00396
-0.241538
0.298947
-0.944903
0.884246
-0.255316
0.315973
-0.822038
0.758322
-0.267807
0.331524
-0.693153
0.626581
-0.278769
0.345341
-0.558686
0.489548
-0.287853
0.356991
-0.419292
0.348141
-0.294647
0.365798
-0.276329
0.203927
-0.298966
0.371368
-0.131641
0.0614696
-0.31105
0.381221
-0.00963863
0.0109143
1.72384
-1.71998
1.71357
-0.0416741
0.0480909
-1.70459
1.69307
-0.0747574
0.0862765
-1.67902
1.66245
-0.107477
0.124047
-1.64338
1.62183
-0.13966
0.161212
-1.59782
1.57137
-0.17111
0.19756
-1.54251
1.51127
-0.201658
0.232896
-1.47769
1.4418
-0.231132
0.267021
-1.40364
1.36328
-0.259324
0.299692
-1.32075
1.27612
-0.286048
0.330677
-1.22946
1.18084
-0.311174
0.359795
-1.13034
1.07805
-0.334643
0.38693
-1.02407
0.968477
-0.356439
0.412028
-0.911376
0.852848
-0.376567
0.435095
-0.79297
0.731801
-0.394985
0.456154
-0.669391
0.605774
-0.411434
0.475051
-0.540979
0.475025
-0.425237
0.491191
-0.407939
0.33975
-0.435084
0.503274
-0.270419
0.199994
-0.440527
0.510952
-0.129038
0.059344
-0.450124
0.519818
-0.0121339
0.01334
1.6621
-1.65845
1.65237
-0.0544589
0.0605419
-1.64386
1.63294
-0.0977117
0.108636
-1.61961
1.60387
-0.140505
0.156238
-1.58575
1.56526
-0.182633
0.203125
-1.54241
1.51723
-0.223864
0.249048
-1.48973
1.45994
-0.263983
0.293774
-1.42789
1.3936
-0.302768
0.337055
-1.35711
1.31847
-0.339938
0.378581
-1.27771
1.23489
-0.375223
0.418044
-1.19006
1.14328
-0.408395
0.455175
-1.09462
1.04415
-0.43928
0.48975
-0.991958
0.938137
-0.467759
0.521579
-0.882789
0.826021
-0.493797
0.550566
-0.767938
0.708641
-0.517447
0.576744
-0.648217
0.586737
-0.538626
0.600106
-0.524257
0.460808
-0.556702
0.620151
-0.396395
0.330949
-0.569997
0.635442
-0.264295
0.196337
-0.577941
0.645899
-0.127272
0.0588249
-0.587014
0.655462
-0.0144865
0.0156137
1.60269
-1.59909
1.59338
-0.0665547
0.0722698
-1.58538
1.57511
-0.119438
0.129709
-1.56257
1.54775
-0.171804
0.186617
-1.53068
1.51135
-0.223418
0.242748
-1.48977
1.46596
-0.274012
0.29782
-1.43994
1.4117
-0.323336
0.351569
-1.38129
1.3487
-0.37112
0.403701
-1.31399
1.27716
-0.417022
0.453845
-1.23827
1.19735
-0.460699
0.501623
-1.15444
1.10959
-0.501841
0.546689
-1.06286
1.01431
-0.540178
0.588727
-0.964011
0.912043
-0.575454
0.627423
-0.858495
0.803469
-0.607495
0.662521
-0.747075
0.68943
-0.636281
0.693927
-0.630649
0.570841
-0.661827
0.721635
-0.510102
0.448509
-0.683667
0.74526
-0.386097
0.322806
-0.700256
0.763547
-0.258448
0.192824
-0.711204
0.776828
-0.125714
0.0590788
-0.720972
0.787608
-0.0166784
0.0177172
1.54509
-1.54206
1.53676
-0.0778881
0.0831941
-1.52933
1.51979
-0.139811
0.149358
-1.50811
1.49432
-0.201199
0.214996
-1.4784
1.46034
-0.261801
0.279851
-1.44017
1.41787
-0.321321
0.343623
-1.39344
1.3669
-0.379481
0.406022
-1.33825
1.3075
-0.435969
0.466716
-1.27467
1.23978
-0.490384
0.525278
-1.20285
1.1639
-0.542311
0.581258
-1.12297
1.0801
-0.591366
0.634233
-1.03534
0.988731
-0.63719
0.6838
-0.940333
0.890214
-0.679409
0.729529
-0.83845
0.78513
-0.71769
0.77101
-0.730356
0.674245
-0.751849
0.807961
-0.616923
0.558519
-0.781827
0.840231
-0.499164
0.438973
-0.807255
0.867447
-0.378018
0.316292
-0.826938
0.888664
-0.25366
0.189901
-0.840885
0.904644
-0.124415
0.0601456
-0.852052
0.916322
-0.0186901
0.0196299
1.48991
-1.48715
1.4823
-0.0883709
0.0932194
-1.47551
1.46678
-0.15868
0.167418
-1.45608
1.44342
-0.228483
0.241146
-1.42878
1.41215
-0.297528
0.314157
-1.39352
1.37288
-0.365507
0.386144
-1.35023
1.32554
-0.432125
0.456807
-1.29883
1.27008
-0.497033
0.525785
-1.23929
1.20647
-0.559776
0.592597
-1.17162
1.13477
-0.619869
0.656723
-1.09592
1.05511
-0.67685
0.71766
-1.01237
0.967725
-0.730266
0.774909
-0.92123
0.872937
-0.779633
0.827925
-0.822911
0.771229
-0.824462
0.876145
-0.717981
0.663277
-0.864373
0.919077
-0.607244
0.550025
-0.899114
0.956334
-0.491771
0.432632
-0.928288
0.987427
-0.372725
0.312103
-0.951074
1.0117
-0.250709
0.188397
-0.967975
1.03029
-0.12396
0.0625525
-0.981005
1.04241
-0.0204996
0.0213284
1.4366
-1.43396
1.42962
-0.097903
0.102238
-1.42354
1.41571
-0.175869
0.183701
-1.40611
1.39471
-0.253414
0.264809
-1.38151
1.36647
-0.330305
0.345345
-1.34957
1.33079
-0.406241
0.42502
-1.31011
1.28749
-0.48092
0.503537
-1.26292
1.23637
-0.553972
0.580519
-1.20783
1.17728
-0.624892
0.655441
-1.14471
1.11012
-0.693126
0.727716
-1.07351
1.03489
-0.758129
0.796755
-0.99426
0.951655
-0.819347
0.861952
-0.907101
0.860639
-0.876176
0.922637
-0.81232
0.762207
-0.92797
0.978083
-0.71038
0.656939
-0.974134
1.02757
-0.602006
0.54573
-1.01415
1.07043
-0.488279
0.429833
-1.04747
1.10592
-0.370558
0.310579
-1.07359
1.13357
-0.249925
0.188575
-1.09345
1.1548
-0.124377
0.0655406
-1.10858
1.16742
-0.022083
0.0227882
1.38534
-1.38303
1.37927
-0.10637
0.110133
-1.37399
1.36716
-0.191177
0.197999
-1.35878
1.3488
-0.275712
0.285693
-1.33719
1.32392
-0.359784
0.373053
-1.30895
1.29224
-0.44312
0.459828
-1.27375
1.25344
-0.525432
0.545749
-1.23125
1.20715
-0.606343
0.63044
-1.18111
1.15307
-0.68531
0.713346
-1.12301
1.0909
-0.761713
0.79382
-1.05673
1.02046
-0.834919
0.871185
-0.982099
0.941643
-0.904269
0.944724
-0.899103
0.8545
-0.969018
1.01362
-0.807867
0.759253
-1.02835
1.07697
-0.708723
0.656365
-1.08144
1.1338
-0.602294
0.546659
-1.12745
1.18308
-0.489642
0.431452
-1.16556
1.22375
-0.372307
0.312426
-1.19547
1.25535
-0.251945
0.191069
-1.21857
1.27944
-0.126042
0.0696666
-1.23574
1.29212
-0.0234153
0.0239847
1.33576
-1.33383
1.3307
-0.113652
0.116784
-1.32629
1.32059
-0.204392
0.210098
-1.31355
1.30514
-0.295079
0.30349
-1.29531
1.28401
-0.385587
0.396882
-1.2712
1.2568
-0.475698
0.490091
-1.24077
1.22304
-0.565165
0.5829
-1.20353
1.18219
-0.653621
0.674961
-1.15895
1.13374
-0.740505
0.765711
-1.10651
1.0772
-0.825144
0.85446
-1.04575
1.01212
-0.906821
0.940451
-0.97627
0.938178
-0.984758
1.02285
-0.897824
0.855202
-1.05806
1.10068
-0.81032
0.763205
-1.12572
1.17284
-0.713902
0.662481
-1.18664
1.23806
-0.609046
0.553742
-1.23961
1.29492
-0.49676
0.43834
-1.28345
1.34187
-0.378768
0.318376
-1.3179
1.37829
-0.257453
0.196586
-1.34472
1.40558
-0.129592
0.0759972
-1.36438
1.41797
-0.0244729
0.0248959
1.28805
-1.28634
1.28389
-0.11963
0.122074
-1.28044
1.27596
-0.2153
0.219785
-1.2704
1.2637
-0.3112
0.317891
-1.25583
1.24671
-0.407303
0.416422
-1.23628
1.22446
-0.503474
0.515295
-1.21117
1.19632
-0.599534
0.61438
-1.17983
1.1616
-0.695161
0.713389
-1.14154
1.11955
-0.7898
0.811787
-1.09555
1.06943
-0.88275
0.908869
-1.04111
1.0105
-0.973221
1.00382
-0.977544
0.942157
-1.06032
1.09571
-0.904288
0.863893
-1.14301
1.1834
-0.820944
0.775431
-1.22003
1.26554
-0.727368
0.676798
-1.29
1.34057
-0.623803
0.568513
-1.35128
1.40657
-0.511124
0.451905
-1.40216
1.46138
-0.391216
0.329542
-1.44226
1.50393
-0.267388
0.205965
-1.4737
1.53512
-0.135675
0.0852225
-1.49651
1.54696
-0.0252362
0.0255051
1.2422
-1.24092
1.23921
-0.124196
0.125907
-1.23678
1.2336
-0.223699
0.22688
-1.22962
1.22478
-0.323779
0.328617
-1.21902
1.21227
-0.424529
0.431285
-1.20443
1.19543
-0.525931
0.534931
-1.18517
1.17353
-0.62791
0.639548
-1.16041
1.14568
-0.730226
0.744954
-1.12922
1.11091
-0.832374
0.850687
-1.09061
1.06819
-0.933662
0.95608
-1.04353
1.01648
-1.03326
1.06031
-0.986926
0.95475
-1.1302
1.16238
-0.91984
0.882097
-1.22327
1.26101
-0.841437
0.797797
-1.311
1.35464
-0.751138
0.701454
-1.39166
1.44134
-0.648785
0.593229
-1.46306
1.51862
-0.534967
0.474288
-1.52285
1.58353
-0.411625
0.347646
-1.57022
1.6342
-0.283147
0.220259
-1.60761
1.6705
-0.144852
0.0977776
-1.63459
1.68166
-0.0256915
0.0258022
1.19765
-1.19702
1.19607
-0.127264
0.128212
-1.19471
1.19289
-0.22943
0.231246
-1.19057
1.18769
-0.332561
0.335445
-1.18417
1.17993
-0.4369
0.441135
-1.17489
1.16894
-0.542571
0.548521
-1.16197
1.15386
-0.649646
0.657759
-1.14447
1.13366
-0.758013
0.768823
-1.12127
1.10716
-0.867272
0.881386
-1.09115
1.07306
-0.976798
0.994888
-1.05271
1.02993
-1.08579
1.10858
-1.00452
0.976306
-1.19325
1.22146
-0.945101
0.91073
-1.29786
1.33223
-0.873028
0.831848
-1.39795
1.43913
-0.787066
0.73859
-1.49141
1.53988
-0.686381
0.630468
-1.57546
1.63137
-0.570981
0.508202
-1.64683
1.70961
-0.442619
0.375111
-1.70394
1.77145
-0.306882
0.241348
-1.74944
1.81497
-0.158726
0.115692
-1.78239
1.82543
-0.0258333
0.0257871
1.15496
-1.15478
1.15461
-0.128785
0.128962
-1.15433
1.1539
-0.232388
0.232815
-1.15328
1.1524
-0.337365
0.338243
-1.15119
1.14958
-0.444123
0.445737
-1.14746
1.14473
-0.552957
0.555685
-1.14128
1.13696
-0.664121
0.668439
-1.13163
1.12514
-0.777683
0.784178
-1.1173
1.10793
-0.893414
0.902783
-1.09683
1.08378
-1.01084
1.02389
-1.06856
1.05092
-1.12928
1.14692
-1.03061
1.00737
-1.24781
1.27105
-0.98094
0.951032
-1.36513
1.39504
-0.917373
0.879692
-1.47946
1.51714
-0.837731
0.791258
-1.58838
1.63486
-0.740087
0.684105
-1.68848
1.74446
-0.623317
0.557918
-1.77531
1.84071
-0.48839
0.415802
-1.84595
1.91853
-0.341874
0.27167
-1.90289
1.97309
-0.178846
0.14057
-1.94507
1.98335
-0.0256666
0.0254699
1.11374
-1.11384
1.11441
-0.128755
0.128177
-1.11519
1.11613
-0.232547
0.231607
-1.11719
1.11831
-0.338115
0.336996
-1.11942
1.12045
-0.446033
0.445003
-1.12131
1.12189
-0.556782
0.556199
-1.12208
1.12175
-0.670825
0.671159
-1.12074
1.11889
-0.788463
0.790311
-1.11602
1.11192
-0.909705
0.913808
-1.10636
1.09911
-1.03433
1.04158
-1.08989
1.07841
-1.16189
1.17336
-1.06437
1.04742
-1.2917
1.30865
-1.02719
1.0033
-1.42267
1.44655
-0.975338
0.94286
-1.55314
1.58562
-0.905418
0.862564
-1.68063
1.72348
-0.813863
0.758937
-1.8012
1.85612
-0.697518
0.62955
-1.90911
1.97708
-0.555338
0.475996
-1.99929
2.07863
-0.393817
0.315591
-2.07313
2.15136
-0.209299
0.17514
-2.12994
2.1641
-0.0252068
0.0248714
1.074
-1.07471
1.076
-0.127219
0.12593
-1.07778
1.08002
-0.229975
0.227734
-1.08268
1.08572
-0.334866
0.33183
-1.08907
1.09268
-0.442627
0.439019
-1.09646
1.10033
-0.553922
0.550053
-1.10418
1.10789
-0.669438
0.665727
-1.11133
1.11433
-0.789741
0.786742
-1.11671
1.11828
-0.915141
0.913571
-1.11881
1.11804
-1.04575
1.04652
-1.11568
1.11143
-1.18151
1.18576
-1.10492
1.09575
-1.32215
1.33132
-1.08348
1.06762
-1.46708
1.48295
-1.0476
1.02282
-1.61516
1.63994
-0.99259
0.956165
-1.76432
1.80075
-0.912749
0.861521
-1.91069
1.96192
-0.801701
0.73267
-2.04752
2.11655
-0.654175
0.566963
-2.16701
2.25422
-0.473572
0.382235
-2.2674
2.35873
-0.259653
0.2276
-2.34875
2.3808
-0.0244796
0.0240217
1.03554
-1.03664
1.03857
-0.124278
0.122344
-1.04126
1.04469
-0.224832
0.221406
-1.04882
1.05363
-0.327814
0.32301
-1.05906
1.06508
-0.43409
0.428072
-1.07162
1.07862
-0.544489
0.537489
-1.086
1.09366
-0.659914
0.652258
-1.10148
1.10934
-0.7812
0.773343
-1.11707
1.12452
-0.90899
0.901547
-1.13146
1.13767
-1.04379
1.03759
-1.14287
1.14676
-1.18605
1.18216
-1.14897
1.14911
-1.3361
1.33597
-1.14668
1.14115
-1.49415
1.49968
-1.13185
1.11805
-1.66005
1.67385
-1.09886
1.07323
-1.83301
1.85864
-1.03995
0.997623
-2.01044
2.05277
-0.944682
0.879482
-2.18607
2.25127
-0.80051
0.707097
-2.35014
2.44355
-0.600534
0.489203
-2.49501
2.60634
-0.344562
0.306984
-2.62212
2.6597
-0.0235188
0.0229579
0.998543
-1.00017
1.00266
-0.120077
0.117584
-1.00614
1.0106
-0.217371
0.212912
-1.01602
1.02239
-0.317295
0.310933
-1.02967
1.03784
-0.420809
0.412637
-1.04687
1.05672
-0.528866
0.519018
-1.06733
1.07865
-0.642548
0.631226
-1.09061
1.1031
-0.762937
0.750444
-1.11602
1.12925
-0.890991
0.877765
-1.14262
1.15596
-1.02763
1.01429
-1.16904
1.18162
-1.17382
1.16123
-1.1934
1.20402
-1.33061
1.32
-1.21305
1.22
-1.49921
1.49226
-1.22424
1.22501
-1.68093
1.68016
-1.2214
1.21223
-1.87714
1.88631
-1.19603
1.17095
-2.08836
2.11344
-1.13467
1.08431
-2.3121
2.36246
-1.01644
0.927356
-2.54126
2.63034
-0.814117
0.679823
-2.76484
2.89913
-0.507565
0.441414
-2.98485
3.051
-0.0223642
0.0217214
0.963009
-0.964732
0.967684
-0.114799
0.111847
-0.971817
0.97713
-0.207913
0.2026
-0.983618
0.991279
-0.303759
0.296099
-1.00011
1.0101
-0.403343
0.393351
-1.02125
1.03354
-0.507688
0.495394
-1.04697
1.0615
-0.617995
0.603462
-1.07711
1.09377
-0.73553
0.718876
-1.11141
1.12997
-0.861501
0.842935
-1.14938
1.16953
-0.997171
0.977024
-1.19029
1.21151
-1.14397
1.12275
-1.23301
1.25456
-1.30361
1.28207
-1.27588
1.29664
-1.47825
1.45749
-1.31642
1.33467
-1.67074
1.65248
-1.35072
1.36366
-1.88502
1.87209
-1.37226
1.37488
-2.12621
2.1236
-1.3692
1.35203
-2.39958
2.41675
-1.31894
1.26372
-2.71024
2.76546
-1.17863
1.05022
-3.06614
3.19455
-0.879683
0.802291
-3.49651
3.5739
0.0305695
-0.140936
0.110109
-0.132554
0.222835
-0.0902821
-0.287867
0.333617
-0.0455095
-0.36742
0.391013
-0.0234347
-0.401675
0.399739
0.00200359
-0.380181
0.332146
0.0480339
-0.243074
0.0880771
0.154996
0.171803
-0.571863
0.400782
1.06701
-1.57404
0.503222
1.86841
-1.99318
0.17551
2.11507
-2.24616
0.0450218
2.35327
-2.41305
0.0197019
2.42476
-2.43472
0.00732812
2.43387
-2.42432
-0.00614129
2.4182
-2.26767
-0.00594865
1.92481
-1.73715
0.0270982
1.70872
-1.94676
0.0189004
2.13387
-2.15218
0.0264882
2.20809
-2.24559
0.0456779
1.21075
-0.77536
0.0158232
1.17078
-1.75712
-1.26067e-13
1.78193
-1.74118
7.40093e-22
1.64233
-1.47087
-0.0680604
1.20016
0.246972
-1.16647
-1.99551
3.20117
-1.20566
-4.00952
4.59515
-0.585627
-5.04343
5.39501
-0.351573
-5.67384
5.89563
-0.22179
-6.0711
6.20818
-0.137072
-6.31331
6.3919
-0.0785856
-6.44865
6.48769
-0.0390395
-6.51262
6.52636
-0.0137306
-6.53179
6.53095
0.000847565
-6.52467
6.51555
0.00911765
-6.50462
6.49279
0.0118264
-6.48076
6.46892
0.011839
-6.45752
6.44668
0.010844
-6.43635
6.42639
0.00995667
-6.41663
6.40686
0.00976531
-6.39694
6.38677
0.0101667
-6.37634
6.36568
0.010663
-6.35485
6.3439
0.0109421
-6.33287
6.32175
0.0111213
-6.31053
6.29927
0.0112577
-6.2881
6.27723
0.010875
-6.26681
6.257
0.00981415
-6.24782
6.23927
0.00854811
-6.23128
6.22379
0.0074958
-6.21672
6.21004
0.00667718
-6.20376
6.19787
0.00588821
-6.19236
6.18714
0.0052189
-6.1821
6.17713
0.00496122
-6.17217
6.1672
0.00497068
-6.16223
6.15735
0.00487606
-6.15259
6.14806
0.00453008
-6.1437
6.1396
0.00409236
-6.13565
6.13191
0.00374701
-6.12831
6.12481
0.00349754
-6.12147
6.11815
0.00331863
-6.11504
6.11194
0.00310692
0.259834
-0.368036
0.108202
-0.178389
0.228553
0.147839
-0.199068
-0.273669
0.315384
0.087408
-0.128959
-0.349382
0.375899
0.0488443
-0.0759298
-0.39019
0.398366
0.00224385
-0.0105464
-0.397305
0.37663
-0.0744175
0.0833608
-0.354285
0.315214
-0.240261
0.270628
-0.270894
0.198095
-0.603498
0.676297
-0.06829
-0.182408
-0.912971
1.13285
0.200556
-0.0226388
-0.0478408
0.198516
4.36423e-20
-6.33094e-20
0
1.26501e-20
2.57853e-20
9.78457e-22
0
3.02141e-21
3.01499e-21
-7.16325e-21
3.23331e-11
-3.23331e-11
1.3854e-21
1.12942e-23
5.42101e-19
-5.38117e-19
-6.26274e-33
1.85348e-22
2.92981e-15
-2.92981e-15
-1.62741e-21
1.51986e-21
0
-7.06366e-23
1.93451e-20
-3.41411e-20
4.9815e-09
-4.9815e-09
-1.01394e-20
2.31508e-20
3.82904e-11
-3.82904e-11
-2.74624e-21
-5.78152e-20
9.48894e-16
-9.45788e-16
-2.23527e-22
7.15267e-23
2.60751e-17
-2.60922e-17
1.50702e-12
1.1018e-13
1.26501e-13
2.15283e-11
-2.39211e-26
-1.78502e-10
-2.95717e-27
1.78502e-10
-1.08167e-20
-5.72613e-20
0
-9.19292e-29
-0.0122303
1.92032
1.36031
-2.19015
-2.82642
3.51119
2.12351
-2.80828
-4.13236
4.65752
1.15125
-1.67641
-5.09174
5.44943
0.709409
-1.0671
-5.74323
5.98281
0.454911
-0.694485
-6.17567
6.32881
0.284416
-0.437555
-6.44817
6.53905
0.165257
-0.256136
-6.60648
6.65478
0.084273
-0.132573
-6.6877
6.70849
0.032427
-0.0532151
-6.71982
6.72501
0.000675653
-0.00587238
-6.72454
6.72071
-0.0147711
0.0186018
-6.71463
6.70727
-0.0208854
0.0282499
-6.69937
6.69146
-0.021351
0.0292658
-6.68384
6.6767
-0.019559
0.0267061
-6.67006
6.66391
-0.0177229
0.0238722
-6.65816
6.65266
-0.0170714
0.0225746
-6.64723
6.64177
-0.0176097
0.0230781
-6.63617
6.63045
-0.0184401
0.0241557
-6.62464
6.61872
-0.0189526
0.0248682
-6.6127
6.60652
-0.0193801
0.0255631
-6.60009
6.59341
-0.0198422
0.0265264
-6.58653
6.57961
-0.0194113
0.0263249
-6.57287
6.56641
-0.0176491
0.0241076
-6.56034
6.55468
-0.0153955
0.0210557
-6.54939
6.54443
-0.0134833
0.018443
-6.53975
6.53531
-0.011999
0.0164361
-6.53114
6.52726
-0.0105545
0.0144276
-6.52369
6.52038
-0.00929443
0.0126065
-6.51722
6.5141
-0.00882238
0.0119452
-6.51092
6.50764
-0.00894087
0.0122242
-6.50425
6.50079
-0.00894148
0.0124044
-6.49732
6.49387
-0.0084808
0.0119267
-6.4905
6.48715
-0.00783621
0.0111794
-6.48386
6.48059
-0.00731512
0.010585
-6.47736
6.47419
-0.0069092
0.0100803
-6.47108
6.46802
-0.00661425
0.00967774
-6.46508
6.46217
-0.00624097
0.0091507
0.4633
-0.54549
0.0821914
-0.16159
0.210969
0.247117
-0.296495
-0.241031
0.259807
0.161807
-0.187126
-0.286277
0.317577
0.0928631
-0.123926
-0.348217
0.384997
0.0236363
-0.045726
-0.417932
0.426138
-0.0780569
0.0789828
-0.429641
0.431394
-0.294307
0.292961
-0.438114
0.460702
-0.682665
0.660077
-0.511884
0.567409
-1.19711
1.14994
-0.483905
0.339566
-0.686087
0.949955
-0.201567
0.0981381
-0.0116328
0.205807
-0.00788191
-1.77371e-09
4.83841e-22
0.00685237
1.38546e-09
1.67285e-09
-1.74079e-09
2.64902e-09
-1.57856e-09
-6.10371e-15
-5.01782e-12
1.12344e-09
2.25516e-14
3.74863e-14
-7.95451e-17
9.76494e-15
5.95917e-07
-6.11101e-07
7.94093e-23
-1.27632e-06
1.20929e-07
4.87109e-07
3.09606e-07
-2.3526e-06
-7.16846e-11
-5.30016e-15
7.16899e-11
-2.36729e-20
-3.11309e-14
1.01824e-13
-3.11973e-15
1.51223e-15
-9.04218e-14
1.64484e-14
-2.24236e-16
4.56096e-14
-9.58626e-16
-2.23437e-06
-1.43006e-09
2.2358e-06
1.29652e-06
8.09084e-27
1.46595e-07
-4.49426e-06
1.62203e-25
0
-1.81774e-19
-1.8678e-18
-1.72203
3.31646
3.67039
-4.87731
-3.62844
4.01283
3.31352
-3.69792
-4.42794
4.83056
2.13723
-2.53985
-5.19756
5.52042
1.4078
-1.73066
-5.79584
6.02548
0.929661
-1.1593
-6.21279
6.36192
0.589326
-0.738449
-6.47818
6.56677
0.346436
-0.435022
-6.63236
6.67963
0.180792
-0.228066
-6.71242
6.73394
0.0746538
-0.0961733
-6.74697
6.75376
0.0117671
-0.0185492
-6.75611
6.75547
-0.0208754
0.0215196
-6.75293
6.74934
-0.0338151
0.0374054
-6.74532
6.7413
-0.0353359
0.0393543
-6.73757
6.73425
-0.0320557
0.0353744
-6.7314
6.72905
-0.028206
0.0305593
-6.72715
6.72558
-0.0261603
0.0277315
-6.72417
6.72277
-0.0265466
0.0279549
-6.72125
6.71963
-0.0278162
0.0294383
-6.71792
6.71613
-0.0286891
0.0304776
-6.71425
6.71214
-0.0296957
0.0318068
-6.70964
6.70663
-0.0313395
0.0343469
-6.70313
6.69933
-0.0316111
0.0354116
-6.69547
6.6917
-0.0291671
0.0329322
-6.68813
6.68479
-0.0255241
0.028868
-6.68165
6.67867
-0.0223704
0.0253545
-6.6758
6.67301
-0.0200026
0.0227861
-6.67035
6.66789
-0.0175525
0.0200121
-6.6657
6.66377
-0.0151871
0.0171151
-6.662
6.66022
-0.0143618
0.0161387
-6.65833
6.65629
-0.014853
0.016898
-6.65408
6.65174
-0.0152633
0.0176021
-6.64934
6.64694
-0.0148248
0.0172284
-6.64455
6.64215
-0.0140359
0.0164356
-6.63971
6.63721
-0.0134571
0.0159539
-6.63469
6.6322
-0.0128995
0.0153838
-6.62975
6.62738
-0.0123921
0.0147694
-6.62503
6.62278
-0.0117151
0.0139627
0.617387
-0.677236
0.0598484
-0.128055
0.16822
0.34326
-0.392837
-0.212255
0.256223
0.229395
-0.287235
-0.30342
0.339258
0.162062
-0.194672
-0.369791
0.397166
0.0706587
-0.0968572
-0.421048
0.439278
-0.0655712
0.0475976
-0.455697
0.473782
-0.28153
0.263445
-0.499012
0.5384
-0.625737
0.586348
-0.599219
0.688282
-1.0556
0.966542
-0.767748
0.738539
-1.02688
1.05684
-0.618775
0.481337
-0.343482
0.48092
-0.346535
0.101371
-0.0321418
0.114077
-4.54677e-05
-1.39862e-11
-7.14507e-10
4.54659e-05
-1.64712e-09
1.3909e-08
-4.9129e-09
4.98157e-09
-2.77166e-08
-4.64621e-09
-3.83312e-12
9.0862e-09
-2.09282e-07
2.99122e-07
7.33291e-07
-6.12957e-11
-2.84353e-26
-3.34379e-21
3.34382e-21
-4.11564e-31
-0.0100743
0.136308
0
-0.369927
-0.16319
0.0347761
-1.51268e-15
-0.306132
-0.00356305
0.00182955
-4.56096e-14
0.00252404
-9.46642e-05
-7.45066e-06
-1.33568e-05
2.57901e-05
-2.4509e-07
8.50929e-25
2.50536e-07
-5.4466e-09
7.38171e-19
1.32287
0.20844
-0.916352
-4.00185
4.08747
5.17764
-5.26326
-4.25397
4.49477
3.99292
-4.23372
-4.77991
5.08294
2.88432
-3.18735
-5.37884
5.65205
2.02599
-2.2992
-5.89195
6.09518
1.37521
-1.57844
-6.261
6.39253
0.878918
-1.01045
-6.49406
6.57108
0.517877
-0.594899
-6.628
6.66943
0.272298
-0.313724
-6.69893
6.71947
0.116939
-0.137478
-6.7334
6.74274
0.0262737
-0.0356092
-6.7489
6.75296
-0.020147
0.0160842
-6.75572
6.75773
-0.0385026
0.0364898
-6.75942
6.76107
-0.0407756
0.0391244
-6.76286
6.76484
-0.03623
0.0342562
-6.76703
6.76949
-0.0306216
0.0281567
-6.7723
6.77538
-0.027052
0.0239722
-6.77857
6.78164
-0.0271641
0.0240866
-6.7845
6.78711
-0.0289442
0.0263296
-6.78959
6.79197
-0.0301633
0.0277837
-6.79424
6.79627
-0.0318362
0.0298092
-6.79778
6.79844
-0.0354938
0.0348309
-6.79821
6.79737
-0.0376725
0.038514
-6.79626
6.79508
-0.0353572
0.0365453
-6.79393
6.79282
-0.0310447
0.0321491
-6.79176
6.79067
-0.027344
0.0284324
-6.78951
6.78825
-0.0247659
0.0260328
-6.78692
6.78567
-0.0218137
0.0230676
-6.78467
6.78397
-0.0183814
0.0190763
-6.78344
6.78287
-0.0172808
0.0178559
-6.78212
6.78114
-0.0183646
0.0193409
-6.77995
6.77858
-0.0194077
0.0207757
-6.77713
6.77567
-0.0191182
0.0205794
-6.77424
6.77277
-0.0183383
0.0198092
-6.77118
6.76947
-0.0180252
0.0197387
-6.76768
6.7659
-0.017488
0.019265
-6.76418
6.76253
-0.0167578
0.0184063
-6.76085
6.75923
-0.0158637
0.0174853
0.725396
-0.757241
0.0326794
-0.0849793
0.116018
0.411767
-0.40666
-0.155761
0.208147
0.295939
-0.355481
-0.274312
0.315457
0.235227
-0.285426
-0.352955
0.385008
0.127573
-0.159626
-0.412877
0.43773
-0.0261649
0.00131112
-0.461321
0.476305
-0.239399
0.215091
-0.49981
0.533973
-0.516144
0.485039
-0.586602
0.655573
-0.852635
0.786722
-0.757956
0.799248
-1.03646
0.995165
-0.767204
0.631767
-0.609208
0.716611
-0.500861
0.390853
-0.198716
0.304942
-0.214766
0.0287739
-0.0236178
0.191336
-5.76725e-20
1.48034e-14
-4.73628e-09
4.73626e-09
-1.04372e-08
9.08694e-09
-1.42829e-08
2.95065e-09
-6.29146e-10
1.89874e-11
5.34154e-11
1.30209e-11
-7.75071e-12
7.75071e-12
3.21964e-30
-6.86372e-20
-0.369039
0.47022
0.881931
-0.957692
-0.485919
0.536612
0.923624
-0.974317
-0.275729
-0.000558305
-0.000721296
-0.0535488
1.04064e-07
3.56886e-07
4.12428e-08
3.00241e-07
-6.18259e-07
6.18259e-07
1.15091e-14
-2.57303e-18
-2.0372
4.4656
3.61541
-5.62576
-4.48706
4.55696
5.32745
-5.39735
-4.68683
4.86939
4.43581
-4.61837
-5.0895
5.33015
3.45241
-3.69306
-5.57077
5.79661
2.54559
-2.77142
-5.99556
6.16315
1.76275
-1.93034
-6.29802
6.40316
1.12825
-1.23339
-6.48413
6.54599
0.663588
-0.72545
-6.59308
6.62952
0.351682
-0.388117
-6.65811
6.68085
0.158169
-0.180912
-6.69934
6.71504
0.0473379
-0.063032
-6.72872
6.74094
-0.00851021
-0.00371424
-6.7521
6.76244
-0.0307091
0.0203699
-6.77209
6.78132
-0.0339167
0.024687
-6.79021
6.79873
-0.0291467
0.0206245
-6.80683
6.81465
-0.0230533
0.0152312
-6.82244
6.83031
-0.0184929
0.0106314
-6.8381
6.84558
-0.0187802
0.0112967
-6.85256
6.85905
-0.021712
0.0152261
-6.86523
6.87126
-0.0234955
0.0174652
-6.87717
6.88289
-0.0258552
0.0201358
-6.88806
6.8921
-0.0324314
0.0283971
-6.89472
6.89639
-0.0380229
0.0363597
-6.89761
6.89861
-0.0365624
0.0355644
-6.89947
6.90021
-0.0322477
0.0315046
-6.90083
6.90126
-0.0286818
0.0282465
-6.90148
6.90142
-0.0266345
0.0266943
-6.9011
6.90066
-0.0238454
0.0242891
-6.90041
6.90058
-0.0192749
0.0191122
-6.90095
6.90124
-0.0179421
0.0176544
-6.90129
6.90108
-0.0198814
0.0200909
-6.90062
6.89995
-0.021746
0.0224163
-6.89915
6.89836
-0.0216495
0.0224375
-6.89765
6.89691
-0.0208665
0.0216036
-6.896
6.89489
-0.0211049
0.0222124
-6.89364
6.8924
-0.020727
0.0219719
-6.89126
6.89025
-0.0197064
0.0207242
-6.88916
6.88803
-0.0188325
0.0199687
0.684735
-0.792318
0.0171393
-0.05583
0.101928
0.4581
-0.570144
-0.158589
0.201263
0.426668
-0.469342
-0.244175
0.286249
0.326012
-0.368086
-0.325511
0.361509
0.193706
-0.22886
-0.394922
0.425894
0.0261791
-0.0566592
-0.454879
0.484064
-0.188917
0.159732
-0.516412
0.555167
-0.463551
0.424796
-0.602098
0.6566
-0.758927
0.704425
-0.713413
0.757187
-0.950247
0.906473
-0.761098
0.717813
-0.787149
0.851889
-0.627671
0.513027
-0.423422
0.539352
-0.390663
0.352954
-0.347209
0.398457
-0.214954
0.00693091
-0.0231895
0.197321
5.43408e-21
-3.06885e-13
3.06885e-13
-2.24442e-21
-2.1182e-11
3.45081e-11
-5.76345e-11
4.89139e-12
-0.00381186
0.290542
0.0474175
-0.15531
-0.50993
0.480108
0.934873
-0.905051
-0.456838
0.368595
0.988759
-0.900749
-0.147312
0.00624757
0.124275
-0.0264455
1.08293e-07
2.17752e-19
-1.15889e-07
7.79157e-26
-0.245991
3.5216
0.619488
-3.09823
-4.65919
4.7045
5.85257
-5.89789
-4.76589
4.85721
5.47585
-5.56717
-4.98393
5.14616
4.78576
-4.948
-5.33409
5.53408
3.90926
-4.10924
-5.73088
5.91113
2.97239
-3.15263
-6.06583
6.19173
2.07662
-2.20252
-6.2918
6.36881
1.3231
-1.40011
-6.4316
6.48472
0.780673
-0.833795
-6.53092
6.5721
0.424625
-0.4658
-6.60947
6.64335
0.207458
-0.241344
-6.67426
6.70274
0.0840325
-0.11252
-6.7289
6.75296
0.0213082
-0.0453643
-6.77504
6.79528
-0.00516884
-0.015064
-6.81396
6.83115
-0.0114712
-0.00572366
-6.84665
6.8595
-0.00887934
-0.0058001
-6.8685
6.87359
-0.00503544
-0.00664804
-6.87682
6.88078
-0.000857113
-0.00922899
-6.88694
6.89437
-0.0020842
-0.0075845
-6.90178
6.91027
-0.00729732
-0.00150711
-6.91903
6.92857
-0.0101589
0.00146311
-6.93939
6.95228
-0.0131224
0.0041064
-6.96991
6.99373
-0.0229735
0.0126425
-7.00292
7.00644
-0.0337227
0.030202
-7.00936
7.01184
-0.033733
0.0312552
-7.01393
7.01231
-0.0301286
0.0215516
-6.98535
6.94337
-0.0273146
0.0194671
-6.89659
6.84443
-0.0263226
0.0184701
-6.78573
6.72542
-0.0244997
0.0169206
-6.68051
6.66747
-0.0187354
0.012251
-6.66919
6.67244
-0.0171364
0.011112
-6.68061
6.69986
-0.0200663
0.013425
-6.73643
6.78964
-0.0228463
0.0160168
-6.8518
6.92226
-0.0230326
0.0171619
-6.99523
7.01797
-0.0221051
0.0173625
-7.01974
7.01897
-0.0231165
0.02389
-7.01802
7.01703
-0.023042
0.0240296
-7.01624
7.01564
-0.0215028
0.0221098
-7.01507
7.01423
-0.0209169
0.0217557
0.827165
-0.848435
0.0212703
-0.0587953
0.0926726
0.618792
-0.652669
-0.126098
0.15583
0.509573
-0.480286
-0.192185
0.247801
0.401547
-0.434392
-0.293158
0.332142
0.267194
-0.307828
-0.369675
0.40508
0.0893872
-0.124791
-0.438662
0.47116
-0.12928
0.0967816
-0.503568
0.537962
-0.388697
0.354302
-0.576046
0.61921
-0.656138
0.612977
-0.664586
0.703108
-0.865513
0.826991
-0.717546
0.694778
-0.872868
0.831568
-0.628914
0.543867
-0.59895
0.664407
-0.47444
0.440664
-0.452898
0.521699
-0.402453
0.368794
-0.442535
0.487796
-0.170428
0.0776045
-0.011873
0.270207
-0.0979798
0.272934
-3.36398e-12
0.0327776
-0.542493
0.579393
0.422818
-0.459718
-0.565503
0.545041
0.87753
-0.854844
-0.51687
0.297282
0.883342
-0.915952
0
-1.19415e-21
1.59444e-20
-3.47226e-21
2.39153e-18
0.570281
-8.4045e-18
-0.570281
-4.30441
4.67577
5.77623
-6.14759
-4.75606
4.84639
5.96531
-6.05564
-4.94479
5.05992
5.67038
-5.7855
-5.19436
5.34727
5.104
-5.2569
-5.51248
5.67628
4.29
-4.45381
-5.82659
5.95531
3.30726
-3.43599
-6.05695
6.12049
2.30477
-2.36831
-5.85693
4.67519
1.46474
-0.484104
-3.33752
2.15069
0.851109
-1.70249e-36
-1.28527
0.722606
0.321608
1.92493e-20
-0.370019
0.0733492
0.0962776
1.00014e-20
-0.00181912
-3.13634e-22
0.00181912
5.57488e-21
7.83982e-20
-1.01734e-19
0
3.31479e-21
1.21676e-19
-1.48295e-19
0
2.13628e-21
1.78895e-19
-2.09374e-19
0
1.60966e-21
2.36409e-19
-2.57951e-19
0
1.45724e-21
2.73267e-19
-2.82554e-19
0
1.34388e-21
2.86357e-19
-2.8517e-19
0
1.2896e-21
2.7925e-19
-2.68372e-19
0
1.10554e-21
2.51457e-19
-2.26437e-19
0
7.16833e-22
1.90876e-19
-1.44216e-19
0
4.63789e-22
9.03627e-20
-3.63905e-20
0
2.6983e-22
2.80189e-21
6.41774e-21
0
1.94692e-24
1.75304e-20
-3.94519e-21
0
-6.35736e-23
9.61561e-22
5.98691e-22
0
2.86699e-24
-4.10018e-21
-9.51382e-21
0
-2.93828e-23
4.91024e-21
-4.4125e-21
0
-1.40742e-23
-8.86316e-21
1.01482e-20
0