/*--------------------------------*- C++ -*----------------------------------*\
| =========                 |                                                 |
| \\      /  F ield         | OpenFOAM: The Open Source CFD Toolbox           |
|  \\    /   O peration     | Version:  v1912                                 |
|   \\  /    A nd           | Website:  www.openfoam.com                      |
|    \\/     M anipulation  |                                                 |
\*---------------------------------------------------------------------------*/
FoamFile
{
    version     2.0;
    format      ascii;
    class       volScalarField;
    location    "28";
    object      epsilon;
}
// * * * * * * * * * * * * * * * * * * * * * * * * * * * * * * * * * * * * * //

dimensions      [0 2 -3 0 0 0 0];


internalField   nonuniform List<scalar> 
20320
(
4.44135e-05
0.000214355
0.0002202
0.000225984
0.000231659
0.000237182
0.000242493
0.000247522
0.000252186
0.000256391
0.000260032
0.00026299
0.000265129
0.0002663
0.000266314
0.000264904
0.000261631
0.000256462
0.000271572
0.000481859
4.40122e-05
4.39256e-05
4.46686e-05
4.64425e-05
4.97746e-05
5.53177e-05
6.39076e-05
7.66089e-05
9.47662e-05
0.000120077
0.000154658
0.000201094
0.000262451
0.00034226
0.000444115
0.000570684
0.00072139
0.000894413
0.00117565
0.00174518
4.44221e-05
4.49223e-05
4.61331e-05
4.81729e-05
5.14923e-05
5.6704e-05
6.47096e-05
7.68406e-05
9.50734e-05
0.000122302
0.000162592
0.000221394
0.00030566
0.000423746
0.000584772
0.000796202
0.0010577
0.00136886
0.00186472
0.00273739
4.50084e-05
4.65052e-05
4.87956e-05
5.19348e-05
5.63944e-05
6.28155e-05
7.21437e-05
8.57875e-05
0.000105916
0.000135921
0.000180974
0.000248561
0.000348812
0.000494385
0.000699473
0.000976402
0.0013276
0.0017639
0.00245739
0.00366522
4.57339e-05
4.8564e-05
5.23046e-05
5.69438e-05
6.29729e-05
7.10717e-05
8.22412e-05
9.79576e-05
0.000120506
0.000153545
0.000202889
0.000277491
0.000390323
0.000558453
0.000801191
0.00113454
0.0015623
0.00210975
0.00298099
0.00456337
4.6577e-05
5.10819e-05
5.6682e-05
6.33007e-05
7.14372e-05
8.18022e-05
9.54447e-05
0.000113892
0.000139505
0.000176099
0.00022984
0.00031057
0.000433443
0.000619859
0.00089519
0.00127991
0.00177853
0.00242903
0.00346094
0.00544892
4.75097e-05
5.40003e-05
6.18654e-05
7.09692e-05
8.18052e-05
9.50998e-05
0.000111935
0.000133871
0.000163328
0.000204241
0.000263008
0.000350007
0.000481865
0.000683609
0.000986958
0.00141844
0.00198483
0.00273498
0.00391642
0.00633456
4.84971e-05
5.72376e-05
6.77499e-05
7.98556e-05
9.40304e-05
0.000111001
0.000131863
0.000158183
0.000192418
0.000238611
0.000303356
0.000397411
0.00053841
0.000754201
0.00108238
0.00155662
0.00218839
0.00303671
0.00436067
0.0072285
4.94974e-05
6.06794e-05
7.41619e-05
8.97572e-05
0.000107925
0.000129384
0.000155227
0.000187002
0.000227173
0.000279874
0.000351896
0.000454321
0.000605553
0.000835653
0.00118738
0.00170191
0.00239769
0.00334393
0.00480661
0.00814162
5.04614e-05
6.4174e-05
8.08429e-05
0.000100332
0.000123107
0.0001499
0.000181795
0.000220305
0.000267872
0.000328707
0.000409789
0.000522535
0.000686028
0.000932188
0.0013083
0.00186302
0.0026233
0.00366856
0.00526811
0.00909141
5.13354e-05
6.75341e-05
8.74478e-05
0.000111082
0.000138973
0.000171913
0.000211022
0.000257782
0.000314598
0.000385738
0.000478379
0.000604297
0.000783274
0.00104896
0.0014528
0.00205077
0.00287917
0.0040269
0.00576366
0.010094
5.20648e-05
7.05474e-05
9.35595e-05
0.000121369
0.000154686
0.000194477
0.00024199
0.00029874
0.000367126
0.000451475
0.00055918
0.000702439
0.000901839
0.00119287
0.00163108
0.00227978
0.00318487
0.00444291
0.00631992
0.0111744
5.2601e-05
7.29985e-05
9.87297e-05
0.000130463
0.00016923
0.000216349
0.000273378
0.000342029
0.000424807
0.000526176
0.000653822
0.000820502
0.00104784
0.00137352
0.00185767
0.00257136
0.00356993
0.00495431
0.00698017
0.0123761
5.2907e-05
7.46973e-05
0.000102535
0.000137623
0.000181493
0.000236054
0.000303465
0.000385938
0.000486364
0.000609582
0.0007638
0.000962651
0.0012293
0.00160444
0.00215403
0.00295829
0.00408181
0.00562413
0.00781692
0.0137707
5.29641e-05
7.55089e-05
0.000104644
0.000142208
0.000190408
0.000252023
0.000330205
0.000428157
0.000549685
0.000700532
0.000890001
0.00113332
0.00145627
0.00190432
0.00255216
0.00349281
0.00480129
0.00656646
0.00896759
0.0155013
5.27749e-05
7.53798e-05
0.000104883
0.000143794
0.000195124
0.000262793
0.000351402
0.00046582
0.000611625
0.000796466
0.0010319
0.00133627
0.00174029
0.00229799
0.00309943
0.0042601
0.0058727
0.00800318
0.010714
0.0178802
5.23631e-05
7.43474e-05
0.000103265
0.000142253
0.000195163
0.000267238
0.00036497
0.000495683
0.00066792
0.000892836
0.00118634
0.00157277
0.00209229
0.00281548
0.00386265
0.00539763
0.00756204
0.0103998
0.0137058
0.0216283
5.17692e-05
7.25341e-05
9.99966e-05
0.00013779
0.000190526
0.000264797
0.000369272
0.000514482
0.000713326
0.000982647
0.00134591
0.00183833
0.00251755
0.00348582
0.0049253
0.00711367
0.0103556
0.0147976
0.0197119
0.0289168
5.10441e-05
7.01236e-05
9.54323e-05
0.000130906
0.000181716
0.000255625
0.000363492
0.000519521
0.000742232
0.00105661
0.00149784
0.00211889
0.00300723
0.00432183
0.00636513
0.00967504
0.0150668
0.0235204
0.0342445
0.0487211
5.02413e-05
6.73284e-05
9.001e-05
0.000122306
0.000169655
0.000240623
0.000347907
0.000509329
0.000749717
0.00110422
0.00162397
0.00238758
0.00352757
0.00529272
0.0081919
0.0132823
0.0227074
0.0409639
0.0750314
0.141349
1.67112
4.96189
6.52601
7.19096
7.11558
6.48341
5.13434
5.74477
39.1545
125.05
240.063
297.752
291.115
326.788
407.908
548.924
800.663
1129.48
1388.08
1624.01
2238.47
3032.83
3891.74
3078.25
1843.19
1201.05
860.17
652.526
512.946
413.159
339.254
283.293
240.267
206.927
180.444
158.921
141.064
125.963
113.003
101.773
91.9875
83.4546
76.0081
69.5055
63.8375
58.8981
54.5912
50.8304
47.548
44.6934
42.2257
40.107
38.3151
36.8296
35.6277
34.6882
33.983
33.4877
33.1804
33.0429
3.12852
1.98889
2.34937
2.60423
2.72158
2.76825
2.85047
3.39079
17.5541
84.0107
253.79
440.438
284.924
232.493
254.443
343.097
537.713
867.297
1128.32
1144
1258.52
1881.74
3192.78
1511.04
812.956
538.018
390.583
299.772
238.445
194.387
161.34
135.771
115.54
99.2938
86.0626
75.152
66.0529
58.3807
51.8458
46.2301
41.3698
37.1436
33.4585
30.2402
27.4254
24.962
22.8064
20.9212
19.2739
17.8366
16.5866
15.505
14.5747
13.78
13.1071
12.5435
12.0772
11.697
11.3928
11.1554
4.53104
2.30207
2.37413
2.51129
2.5874
2.62158
2.69488
2.98027
6.0478
23.6677
85.2595
218.014
272.049
228.948
215.511
259.337
369.191
555.747
795.37
1038.52
1221.82
1817.44
2451.67
1133.37
662.731
450.634
333.436
259.571
209.042
172.531
145.018
123.552
106.343
92.2744
80.6138
70.8514
62.6088
55.5921
49.57
44.3615
39.8284
35.8644
32.3879
29.3349
26.6524
24.2959
22.2277
20.4143
18.8268
17.4396
16.2309
15.181
14.2729
13.4913
12.8226
12.2543
11.7744
11.3722
11.0382
10.7649
6.0371
2.83709
2.79497
2.87378
2.91978
2.92662
2.94867
3.06627
3.85396
8.11124
21.0941
62.58
131.612
135.354
137.033
161.295
222.492
341.627
548.979
835.861
1195.52
1739.39
1349.36
817.608
525.11
371.24
281.714
223.631
183.186
153.673
131.224
113.472
98.9923
86.9305
76.7485
68.086
60.6724
54.2909
48.7634
43.9458
39.7238
36.008
32.7291
29.8335
27.2774
25.0238
23.0406
21.2991
19.7735
18.4408
17.2798
16.2708
15.3965
14.642
13.9939
13.4394
12.9668
12.5659
12.2279
11.947
7.67215
3.46758
3.40347
3.49203
3.54993
3.55486
3.54734
3.575
3.80786
5.09789
9.10897
23.0741
55.3876
84.3045
97.9056
124.085
185.042
306.569
545.769
977.217
1699.87
1709.2
1020.45
628.937
415.003
298.853
230.584
186.207
155.318
132.742
115.393
101.423
89.7893
79.9031
71.4096
64.068
57.6987
52.1537
47.305
43.0447
39.2847
35.9537
32.9963
30.3698
28.0404
25.9793
24.1607
22.561
21.1585
19.9335
18.8664
17.9378
17.1312
16.4327
15.8297
15.3101
14.8628
14.4792
14.1517
13.8767
9.39444
4.19569
4.16951
4.35354
4.49787
4.56375
4.57663
4.59438
4.68843
5.23997
7.3056
14.3303
31.277
55.1862
81.7502
117.275
185.393
331.058
647.708
1382.05
3333.55
1660.15
855.955
503.621
329.69
238.011
185.144
151.526
128.584
111.915
98.9957
88.4301
79.4964
71.7917
65.0828
59.2093
54.0496
49.5064
45.4942
41.94
38.7802
35.9616
33.4422
31.1895
29.1795
27.3914
25.8049
24.4021
23.167
22.0848
21.1383
20.3093
19.5838
18.9509
18.3994
17.9178
17.4969
17.1305
16.8127
16.5425
11.2905
5.03355
5.12109
5.50065
5.84244
6.07836
6.20961
6.32777
6.50006
6.98583
8.67977
13.9529
26.1545
46.4122
75.6514
121.505
207.552
391.361
808.237
1915.05
2641.55
1254.56
660.083
390.716
257.946
187.915
147.816
122.708
105.705
93.3847
83.8946
76.1489
69.6493
64.0112
59.0739
54.7107
50.8341
47.3802
44.294
41.5305
39.0555
36.831
34.8191
32.996
31.3561
29.8782
28.5443
27.3456
26.2762
25.3297
24.4906
23.741
23.077
22.4912
21.9726
21.509
21.0951
20.7283
20.4028
20.1216
13.4825
6.02683
6.30648
6.99541
7.69303
8.27169
8.68553
9.05619
9.51668
10.3029
12.2451
17.3821
28.6285
48.6256
81.6461
139.372
251.842
492.94
1047.18
2517.16
1482.57
808.167
464.458
289.919
198.277
148.319
119.482
100.992
87.6948
78.2784
71.269
65.7144
61.067
57.1249
53.6711
50.604
47.8457
45.3506
43.0883
41.0308
39.168
37.478
35.9243
34.4935
33.1965
32.0126
30.9176
29.911
28.9975
28.179
27.4404
26.7628
26.1564
25.617
25.1329
24.6902
24.2877
23.9277
23.6038
23.323
16.0019
7.23363
7.77412
8.91365
10.1693
11.325
12.2742
13.0987
14.0707
15.4672
18.0954
23.9664
36.1955
58.7859
99.2177
174.79
325.79
654.725
1435.21
1535.21
878.494
519.096
322.362
213.854
153.329
119.441
99.662
84.622
74.001
66.5121
61.1092
56.9913
53.7118
50.8865
48.3754
46.1204
44.0685
42.1878
40.4596
38.8677
37.4093
36.0732
34.835
33.6882
32.65
31.7033
30.8215
30.0027
29.2525
28.573
27.9512
27.3762
26.858
26.3952
25.9775
25.5937
25.2436
24.9294
24.6475
24.4056
19.0708
8.74732
9.61232
11.3437
13.3755
15.4025
17.214
18.7808
20.5037
22.7987
26.5302
33.8844
48.7019
76.8388
129.771
233.303
444.244
907.967
1764.02
971.512
572.907
355.732
233.028
162.679
122.637
99.8382
84.2826
72.2467
63.4722
57.3196
52.9406
49.6795
47.2091
45.1527
43.3053
41.6135
40.0481
38.592
37.2358
35.9737
34.8071
33.7311
32.7329
31.8119
30.9785
30.2188
29.5125
28.8548
28.2486
27.6938
27.1818
26.7084
26.2808
25.8983
25.5532
25.2376
24.951
24.6941
24.4649
24.2695
23.1998
10.7444
11.9777
14.4188
17.4332
20.6598
23.7433
26.4542
29.2309
32.7267
38.0245
47.715
66.9589
104.413
177.384
325.271
634.26
1318.73
1154.2
666.093
406.583
261.215
177.469
129.488
103.228
86.2657
72.6238
62.2403
54.6063
49.2658
45.5667
42.9191
40.9852
39.4577
38.1154
36.8776
35.716
34.62
33.5863
32.6155
31.7112
30.8726
30.0945
29.378
28.7273
28.1327
27.5799
27.0634
26.5839
26.1407
25.7299
25.351
25.0087
24.7027
24.4277
24.1785
23.9539
23.7533
23.5754
23.4245
29.662
13.5861
15.1603
18.3641
22.5233
27.279
32.1272
36.534
40.8418
45.9877
53.4843
66.6291
92.7055
144.884
249.632
467.919
934.902
1543.49
834.601
493.026
307.349
201.562
141.08
108.054
90.1283
75.9212
63.3645
53.645
46.6237
41.7668
38.5024
36.2913
34.76
33.6295
32.6945
31.8549
31.0699
30.3239
29.6129
28.938
28.3028
27.708
27.1527
26.6382
26.1657
25.7291
25.3196
24.9337
24.5713
24.2325
23.9166
23.6255
23.3624
23.1274
22.9172
22.7286
22.5601
22.4107
22.2792
22.1689
40.6609
17.9127
19.6784
23.5932
28.9868
35.5727
42.7826
49.6919
56.3349
63.9516
74.6913
92.9636
129.275
204.078
359.2
693.108
1419.35
1117.19
636.082
382.048
240.248
159.853
116.045
94.3665
79.4039
66.3496
55.1168
46.1135
39.5123
34.9493
31.936
29.991
28.7346
27.894
27.2773
26.7739
26.3275
25.9112
25.513
25.1299
24.7622
24.4106
24.0755
23.7582
23.4593
23.1755
22.903
22.6403
22.3882
22.1484
21.9225
21.7134
21.524
21.3547
21.2039
21.0698
20.9512
20.8472
20.7572
20.6836
58.3971
24.7338
26.391
30.8054
37.4047
46.0812
56.4065
67.0078
77.4105
89.1344
105.102
131.376
183.115
292.296
526.776
1052.47
1681.45
880.413
502.692
301.366
189.527
128.782
98.9613
83.1763
69.6448
57.7254
47.6048
39.4134
33.2788
28.9847
26.1485
24.3603
23.2707
22.6199
22.2269
21.9766
21.8001
21.6581
21.5289
21.4022
21.2737
21.142
21.0069
20.8694
20.73
20.5878
20.4422
20.2937
20.1445
19.9974
19.8556
19.7227
19.6012
19.4924
19.3958
19.3108
19.2367
19.1735
19.1211
19.0811
84.6994
35.4774
36.5797
41.0802
48.6994
59.6897
74.1451
90.3727
107.03
126.074
151.431
191.503
268.401
430.939
787.251
1648.49
1332.36
708.154
400.38
236.567
149.162
105.728
86.7073
73.008
60.6978
49.936
40.8281
33.4535
27.8588
23.8879
21.2402
19.5766
18.5944
18.0599
17.8069
17.7222
17.7312
17.7861
17.8572
17.9274
17.9876
18.0332
18.0625
18.0752
18.0717
18.0524
18.0182
17.9712
17.9144
17.8515
17.7863
17.7224
17.6627
17.6089
17.5614
17.5207
17.4869
17.4608
17.4429
17.4339
120.243
52.1826
52.101
55.956
64.1875
77.7512
97.7393
122.975
150.333
183.108
227.002
294.161
416.804
667.426
1225.93
2176.07
1077.85
570.754
314.273
182.318
117.486
89.8791
75.9434
63.6174
52.5898
42.9218
34.7655
28.1842
23.168
19.5752
17.1566
15.6292
14.7371
14.2787
14.1064
14.1153
14.2325
14.4073
14.606
14.8074
14.9984
15.1714
15.3224
15.4497
15.553
15.6328
15.6907
15.7293
15.7518
15.762
15.7638
15.7608
15.7559
15.751
15.7475
15.7466
15.7495
15.7574
15.7714
15.7909
162.406
78.1962
75.7881
77.355
85.5096
102.252
130.034
169.913
216.116
276.092
358.625
484.374
702.272
1115.16
2004.18
1836.5
893.532
452.411
238.81
137.758
94.2987
78.406
66.171
55.1239
45.2571
36.6264
29.3735
23.5517
19.1198
15.9349
13.7778
12.4079
11.6087
11.2094
11.0829
11.1369
11.3048
11.5385
11.8043
12.0792
12.3481
12.6012
12.8326
13.0391
13.2194
13.3735
13.5027
13.6092
13.6962
13.7669
13.825
13.8736
13.9156
13.9532
13.9884
14.0229
14.0586
14.0974
14.1407
14.1857
231.15
120.101
111.933
107.837
114.349
136.828
175.594
234.118
318.677
432.039
596.488
859.536
1284.06
2062.98
3456.34
1564.72
718.132
340.268
173.403
103.647
79.3189
68.2475
57.4747
47.5894
38.7265
31.0235
24.6051
19.4976
15.6325
12.86
10.9791
9.78043
9.08012
8.73429
8.63617
8.70726
8.88985
9.14144
9.43096
9.73621
10.0416
10.3363
10.6132
10.8679
11.0981
11.303
11.4831
11.6402
11.7763
11.8944
11.9973
12.0878
12.1685
12.2418
12.3099
12.3751
12.4397
12.506
12.5752
12.6427
408.012
193.438
167.058
151.195
150.719
183.637
242.138
324.35
465.799
669.584
999.528
1576.26
2428.56
4267.27
3192.46
1256.45
526.234
235.74
121.288
80.4147
69.0731
59.458
49.8956
40.9564
32.9461
26.064
20.4076
15.9643
12.6353
10.2614
8.65448
7.62962
7.03052
6.73673
6.65951
6.7339
6.91179
7.15723
7.44334
7.75012
8.06279
8.37068
8.6662
8.94423
9.20168
9.43697
9.64979
9.84093
10.0118
10.1643
10.3007
10.4233
10.5343
10.6362
10.7313
10.8221
10.9112
11.0011
11.0927
11.1789
636.096
305.536
226.299
181.599
181.84
228.748
276.795
363.66
504.086
738.159
1160.13
1943.43
3596.59
7699.53
2342.01
839.87
335.876
150.98
85.2551
67.1
60.4624
52.0195
43.3061
35.0992
27.8241
21.6839
16.7288
12.9004
10.0696
8.06922
6.72204
5.8649
5.36498
5.12203
5.06317
5.13546
5.2998
5.52687
5.79436
6.08522
6.38642
6.68809
6.98286
7.26546
7.53231
7.78117
8.01109
8.22187
8.41423
8.58927
8.74857
8.89386
9.02715
9.15056
9.26652
9.3776
9.48657
9.59582
9.7057
9.80673
536.103
223.518
184.207
171.911
189.987
218.612
268.266
348.7
478.639
693.038
1068.84
1740.49
3000.8
2744.24
1133.9
452.773
191.494
94.6868
64.162
59.331
53.5469
45.6828
37.4881
29.8753
23.2709
17.8234
13.5219
10.2613
7.88735
6.22885
5.12045
4.41938
4.01327
3.81926
3.77793
3.8467
3.99446
4.19792
4.43929
4.70467
4.98316
5.26619
5.54709
5.82079
6.08354
6.33281
6.567
6.78537
6.98786
7.17494
7.34755
7.50697
7.65483
7.79305
7.92391
8.04999
8.17398
8.29815
8.42209
8.53399
390.716
161.345
149.757
155.85
176.535
204.821
252.581
329.971
451.547
645.594
953.845
1408.16
1754.99
1033.25
504.161
228.455
107.549
63.4167
54.1507
53.5794
47.7961
40.0531
32.232
25.1778
19.225
14.4406
10.7507
8.01088
6.05002
4.69836
3.80464
3.24497
2.92507
2.77683
2.75219
2.8173
2.94795
3.12622
3.3384
3.57366
3.82331
4.08029
4.33886
4.59444
4.84345
5.08316
5.31174
5.52795
5.7312
5.92146
6.09918
6.26518
6.42077
6.56764
6.70786
6.84386
6.97826
7.11295
7.24676
7.36564
303.959
135.342
128.013
139.074
159.179
190.371
239.073
313.747
427.929
597.643
828.984
1080.28
905.234
493.918
249.465
120.847
64.8842
48.3052
50.5751
48.8258
42.4873
34.8335
27.4227
20.9541
15.6528
11.5052
8.38417
6.11672
4.52398
3.44334
2.73904
2.30478
2.062
1.95494
1.94518
2.00636
2.12014
2.27322
2.4555
2.65894
2.87692
3.10389
3.33516
3.56676
3.79545
4.01862
4.23424
4.44085
4.63754
4.82389
4.99998
5.16628
5.3238
5.47396
5.61863
5.76001
5.90049
6.0416
6.18122
6.30341
239.422
118.618
112.22
123.763
143.388
176.303
225.002
295.967
396.06
530.317
693.211
772.723
482.967
261.325
132.714
68.3792
44.2803
42.5882
47.7639
44.3115
37.48
29.9744
23.0412
17.191
12.5364
8.99328
6.3939
4.54857
3.27915
2.43436
1.89441
1.56895
1.39286
1.32096
1.32309
1.37935
1.47643
1.60493
1.75785
1.92952
2.11514
2.31054
2.51206
2.71642
2.9208
3.1228
3.32046
3.51221
3.69695
3.87407
4.04334
4.20501
4.3598
4.50887
4.65383
4.79668
4.93943
5.08318
5.22483
5.34702
207.022
101.418
98.2829
107.16
126.153
157.234
201.853
263.484
346.165
449.714
549.239
461.225
264.514
141.37
72.7934
42.2889
35.3306
42.3171
44.7889
39.8962
32.7302
25.4847
19.0939
13.8823
9.85714
6.87759
4.74911
3.2757
2.28642
1.64403
1.24417
1.0106
0.889773
0.845851
0.855913
0.90566
0.986013
1.09086
1.21563
1.35664
1.51061
1.67457
1.84575
2.02156
2.19967
2.37795
2.5546
2.72811
2.89731
3.06148
3.22023
3.37363
3.52217
3.66677
3.80876
3.94981
4.09156
4.23457
4.37483
4.494
171.344
89.9387
83.4553
89.3815
104.636
130.922
168.589
219.623
287.209
366.538
400.493
258.43
145.039
76.5465
41.7908
30.1591
32.9832
42.5315
41.3174
35.3703
28.1832
21.3617
15.5798
11.0137
7.58954
5.12658
3.41664
2.26667
1.51737
1.04611
0.763156
0.604437
0.526894
0.50315
0.51678
0.558231
0.621869
0.704164
0.802484
0.91466
1.03864
1.17242
1.314
1.46142
1.61283
1.76644
1.92066
2.07411
2.2257
2.37463
2.52047
2.66316
2.80299
2.94065
3.07718
3.21384
3.35185
3.49112
3.6269
3.74049
129.266
78.0634
70.1423
73.8157
84.9032
104.983
134.763
176.435
233.213
287.528
245.965
144.141
78.8499
42.1167
26.8265
25.7703
34.7172
40.7386
37.3841
30.8851
23.9024
17.6226
12.4909
8.56157
5.70065
3.70397
2.36141
1.49089
0.945267
0.615603
0.426059
0.325148
0.279379
0.268662
0.281961
0.313642
0.360808
0.422008
0.495886
0.581537
0.677751
0.783335
0.896948
1.01717
1.14257
1.27173
1.40332
1.53614
1.6692
1.80177
1.93337
2.06387
2.19342
2.32246
2.45169
2.58196
2.71393
2.84686
2.97545
3.08131
102.727
65.7798
58.9694
61.7021
69.7374
84.1946
107.991
144.12
191.771
215.372
141.076
80.0965
43.0074
24.9892
20.7306
25.8152
37.0534
38.2557
33.2444
26.5241
19.9348
14.2796
9.81396
6.49631
4.15332
2.57262
1.55529
0.921555
0.540932
0.322807
0.205262
0.147262
0.123522
0.120196
0.130686
0.15228
0.184067
0.225844
0.277533
0.339046
0.409995
0.489797
0.577572
0.672347
0.773149
0.878864
0.988446
1.10092
1.21543
1.33131
1.44815
1.56572
1.68404
1.80335
1.92397
2.04629
2.17034
2.29475
2.41383
2.51024
79.5101
55.2155
49.6935
52.1303
58.9926
70.4791
90.3021
125.015
164.511
141.84
82.4245
44.8816
24.5696
17.4821
19.4677
28.6494
36.9568
34.7443
28.9362
22.3582
16.316
11.3357
7.52846
4.78472
2.91336
1.70971
0.964404
0.521478
0.271569
0.139844
0.0761712
0.0485826
0.0389763
0.038873
0.0451826
0.0572685
0.0754776
0.100453
0.132825
0.17305
0.221346
0.277663
0.341743
0.413028
0.49103
0.574723
0.663423
0.756353
0.852812
0.952257
1.05427
1.15863
1.26522
1.37403
1.48508
1.59825
1.7129
1.82701
1.93476
2.02041
56.5452
45.0066
42.4259
44.9427
51.6187
62.447
82.2043
120.391
141.032
89.4288
49.0306
25.84
15.8405
15.0978
20.9406
32.6024
34.978
30.8474
24.6983
18.4855
13.0787
8.78746
5.60964
3.39578
1.96048
1.07206
0.548018
0.257272
0.109074
0.0422302
0.0165953
0.00829236
0.00618527
0.00659572
0.00882001
0.0132173
0.0205977
0.0319688
0.0483407
0.0706015
0.0994122
0.135185
0.178067
0.227992
0.28471
0.347821
0.416818
0.491272
0.570418
0.653926
0.741343
0.832433
0.926967
1.02474
1.12545
1.22848
1.33261
1.43513
1.53017
1.60414
43.9165
36.6935
36.8466
39.969
46.7267
57.1492
85.0693
123.245
103.157
56.7108
29.2491
15.825
12.3462
15.4609
24.1951
33.343
32.1202
26.8062
20.6568
14.9611
10.2374
6.62091
4.02918
2.3159
1.24844
0.618449
0.272109
0.100347
0.0284285
0.00593268
0.00123598
0.000469431
0.000358674
0.000431338
0.00068608
0.0012922
0.0026292
0.0053672
0.0104626
0.019023
0.0321207
0.0506443
0.0752375
0.106283
0.143938
0.188166
0.238784
0.295521
0.358032
0.426005
0.499062
0.576929
0.659151
0.745394
0.835051
0.927133
1.01984
1.10989
1.19129
1.25281
36.5821
30.481
32.5559
36.6033
43.2319
57.2519
94.9667
114.711
67.5711
34.7435
17.3973
11.0074
11.6825
17.5046
28.6099
32.369
28.5363
22.6949
16.8775
11.818
7.79228
4.81545
2.78098
1.49895
0.735212
0.3141
0.107463
0.0248851
0.00305899
0.000279715
8.07181e-05
5.95216e-05
5.63297e-05
5.88074e-05
6.85031e-05
9.51844e-05
0.000168424
0.000373497
0.000935943
0.00235812
0.00551396
0.0115562
0.0216736
0.0368743
0.0578977
0.0852008
0.119008
0.159336
0.206066
0.258989
0.317819
0.382213
0.451765
0.525892
0.603803
0.684123
0.764593
0.841491
0.908501
0.956211
29.7669
25.3941
28.972
34.488
41.9095
64.174
102.695
79.3381
41.5624
20.2566
10.8773
9.27449
12.7014
20.8342
31.0303
29.5824
24.4909
18.7387
13.4574
9.08177
5.73407
3.35671
1.82682
0.90227
0.385135
0.129083
0.0275499
0.00255485
0.000156613
5.82986e-05
5.05594e-05
4.85187e-05
4.73488e-05
4.66068e-05
4.63187e-05
4.6775e-05
4.89445e-05
5.59176e-05
7.77801e-05
0.000148512
0.000379502
0.00108981
0.00299432
0.00725863
0.0152578
0.0282333
0.0470914
0.0723768
0.104311
0.142877
0.187873
0.238952
0.29562
0.357154
0.422517
0.490088
0.557331
0.620063
0.671406
0.701328
22.5361
20.7178
25.6034
33.9012
47.0123
74.9772
93.8968
50.3264
24.317
11.7612
7.96044
9.39665
14.9359
25.3608
29.6936
26.0043
20.5344
15.1262
10.4532
6.75668
4.04209
2.23133
1.1215
0.488217
0.166822
0.0359189
0.00310256
0.00014911
5.82848e-05
5.23576e-05
5.02592e-05
4.87071e-05
4.74609e-05
4.6466e-05
4.56999e-05
4.51586e-05
4.48625e-05
4.48894e-05
4.55265e-05
4.78214e-05
5.55538e-05
8.29882e-05
0.000185696
0.000565356
0.00181045
0.00513046
0.012164
0.024409
0.0428412
0.0678966
0.0995988
0.137659
0.181527
0.230343
0.282839
0.337108
0.390218
0.437449
0.470794
0.475257
16.2929
16.5294
22.9652
36.7511
64.0663
96.7784
61.7869
29.7729
13.4924
7.49083
7.23366
10.7429
18.2686
28.0422
26.9632
22.2158
16.8288
11.9101
7.87404
4.82844
2.71078
1.39126
0.624534
0.223196
0.0514267
0.00477475
0.000187384
6.23663e-05
5.58311e-05
5.33434e-05
5.13628e-05
4.96484e-05
4.8201e-05
4.70056e-05
4.6046e-05
4.53076e-05
4.47745e-05
4.44384e-05
4.4311e-05
4.44184e-05
4.48447e-05
4.60154e-05
4.9706e-05
6.34494e-05
0.000121929
0.000382261
0.00142249
0.00464267
0.0119828
0.0249641
0.0442722
0.06991
0.101389
0.137775
0.177596
0.21864
0.25754
0.288975
0.303917
0.284913
13.3392
13.7458
23.446
49.1841
92.0329
81.4466
36.9158
15.7496
7.5427
5.89409
7.8473
13.0962
22.743
26.9001
23.5422
18.4537
13.4264
9.0981
5.70952
3.27355
1.71
0.791973
0.299072
0.0761688
0.00834627
0.00029401
6.86587e-05
6.02376e-05
5.74175e-05
5.50389e-05
5.29117e-05
5.10327e-05
4.939e-05
4.79859e-05
4.68125e-05
4.58584e-05
4.51144e-05
4.45753e-05
4.42337e-05
4.4085e-05
4.41447e-05
4.44553e-05
4.50738e-05
4.62275e-05
4.9135e-05
5.98412e-05
0.000111237
0.000380861
0.00160635
0.00554045
0.0141681
0.0284774
0.0484088
0.0731398
0.101145
0.130025
0.156143
0.173913
0.174543
0.143786
19.2014
15.2432
34.4127
99.4631
100.687
43.0489
17.4956
7.61005
5.0146
5.91433
9.43288
16.4735
25.4924
24.2696
19.8221
14.8609
10.3712
6.69285
3.941
2.08716
0.989511
0.392402
0.110937
0.0150545
0.00056716
7.64937e-05
6.42167e-05
6.15901e-05
5.92493e-05
5.69842e-05
5.48281e-05
5.2841e-05
5.10436e-05
4.94468e-05
4.80555e-05
4.68701e-05
4.58891e-05
4.51095e-05
4.45308e-05
4.41596e-05
4.40042e-05
4.40647e-05
4.43581e-05
4.49588e-05
4.59865e-05
4.76717e-05
5.12896e-05
6.43248e-05
0.000132819
0.000523803
0.00227989
0.00733636
0.0170342
0.0312754
0.0488261
0.0674446
0.0836726
0.092426
0.0866106
0.0582835
36.2777
30.8042
82.4464
126.929
47.7431
17.7556
7.16475
4.23937
4.5897
6.98986
11.9138
20.9604
24.0532
20.7858
16.1165
11.5722
7.7101
4.69399
2.54513
1.22635
0.502838
0.154307
0.0256563
0.00123424
8.67519e-05
6.51292e-05
6.35328e-05
6.21362e-05
6.04516e-05
5.86093e-05
5.67195e-05
5.48314e-05
5.30177e-05
5.132e-05
4.97668e-05
4.83777e-05
4.71653e-05
4.61388e-05
4.53067e-05
4.46747e-05
4.42458e-05
4.40338e-05
4.4072e-05
4.43972e-05
4.50381e-05
4.60857e-05
4.77549e-05
5.04182e-05
5.58069e-05
7.48677e-05
0.000177043
0.000740994
0.00294536
0.00821274
0.0166556
0.0268296
0.0360693
0.040628
0.0360936
0.0196353
94.7212
134.114
108.427
39.1257
13.9107
5.63348
3.36389
3.56418
5.38552
8.90931
15.3774
22.0681
21.1624
17.2321
12.7316
8.70406
5.48052
3.09471
1.52083
0.638719
0.206804
0.0398806
0.00259009
0.000107853
6.15596e-05
6.08287e-05
6.10377e-05
6.08184e-05
6.01594e-05
5.91554e-05
5.78874e-05
5.64385e-05
5.48899e-05
5.33137e-05
5.1767e-05
5.02941e-05
4.89288e-05
4.76965e-05
4.66183e-05
4.57114e-05
4.49952e-05
4.44929e-05
4.4226e-05
4.42131e-05
4.44972e-05
4.51608e-05
4.62882e-05
4.79931e-05
5.05737e-05
5.4565e-05
6.20676e-05
8.51081e-05
0.000191774
0.000688418
0.00226482
0.00526213
0.00873612
0.0106621
0.00897307
0.00372756
31.8669
49.1828
17.6896
7.08625
3.5391
2.51471
2.78475
4.21149
7.05717
11.6847
19.3363
20.7108
18.165
13.9374
9.75473
6.29134
3.6909
1.88615
0.816252
0.274535
0.0585229
0.00491246
0.000166679
5.68393e-05
5.47681e-05
5.5684e-05
5.66148e-05
5.73178e-05
5.77074e-05
5.7745e-05
5.74309e-05
5.67971e-05
5.58977e-05
5.47984e-05
5.35651e-05
5.22594e-05
5.09352e-05
4.96397e-05
4.84146e-05
4.72985e-05
4.63256e-05
4.55257e-05
4.49253e-05
4.45576e-05
4.44684e-05
4.47051e-05
4.53191e-05
4.64174e-05
4.81452e-05
5.06557e-05
5.42982e-05
5.95878e-05
6.79784e-05
8.48579e-05
0.00012911
0.000247678
0.000460634
0.000602079
0.000440554
0.00016136
4.94106e-05
6.43576e-05
8.41765e-05
0.000112764
0.000155516
0.000221294
0.000323952
0.000484226
0.000732914
0.00111604
0.0017034
0.00260561
0.00401335
0.00629484
0.0102475
0.0177389
0.0334186
0.0705736
0.179077
0.771776
4.85704e-05
6.13604e-05
7.82573e-05
0.000102882
0.000140297
0.000199127
0.000293495
0.000445785
0.000691292
0.00108571
0.00171738
0.00273091
0.00438023
0.00716215
0.0121797
0.0221696
0.0445382
0.101357
0.268641
1.08779
4.77481e-05
5.84067e-05
7.24382e-05
9.30703e-05
0.000124806
0.000175537
0.000258699
0.000396672
0.000626699
0.00101065
0.00165117
0.00272158
0.00453017
0.00767681
0.0134755
0.0251487
0.0511567
0.114069
0.277056
0.685309
4.69725e-05
5.56103e-05
6.69586e-05
8.37953e-05
0.000109935
0.000152193
0.0002225
0.000341533
0.000545311
0.000896457
0.00150317
0.00255359
0.00438519
0.0076429
0.0136807
0.0256331
0.0511339
0.108211
0.233929
0.487152
4.62656e-05
5.30578e-05
6.19978e-05
7.54055e-05
9.63784e-05
0.000130496
0.000187685
0.000285636
0.000456262
0.0007571
0.00129096
0.00224123
0.00393931
0.00700569
0.0126761
0.0235991
0.0456624
0.0911758
0.18116
0.348121
4.56424e-05
5.08049e-05
5.76607e-05
6.81023e-05
8.45599e-05
0.000111399
0.000156405
0.000233672
0.000369232
0.000611165
0.00104737
0.00183751
0.00327206
0.005886
0.010694
0.0197021
0.0369547
0.0701062
0.131217
0.234751
4.51113e-05
4.8879e-05
5.39857e-05
6.19503e-05
7.46378e-05
9.53471e-05
0.000129889
0.000188825
0.000291914
0.000476029
0.000809119
0.00141534
0.00252057
0.00453512
0.00820728
0.0149161
0.0272012
0.0494804
0.0882568
0.150297
4.46754e-05
4.7284e-05
5.09591e-05
5.6909e-05
6.65583e-05
8.23485e-05
0.00010846
0.000152457
0.000228535
0.000363111
0.000604405
0.00103939
0.00182389
0.00323503
0.00576104
0.0102523
0.01816
0.0318211
0.0544918
0.0895195
4.43346e-05
4.60068e-05
4.85251e-05
5.286e-05
6.01227e-05
7.21124e-05
9.178e-05
0.000124398
0.000179891
0.000276473
0.000446422
0.000745895
0.00127166
0.00218871
0.00377402
0.00648299
0.0110415
0.0185395
0.0304229
0.0481783
4.40881e-05
4.50169e-05
4.65851e-05
4.96314e-05
5.50673e-05
6.42184e-05
7.91647e-05
0.000103634
0.000144667
0.000214811
0.000335179
0.0005404
0.000886509
0.00146243
0.00240534
0.00392094
0.00630931
0.00998658
0.0154723
0.0232897
4.39438e-05
4.42625e-05
4.50056e-05
4.70384e-05
5.11213e-05
5.82398e-05
6.99638e-05
8.90559e-05
0.000120705
0.000173709
0.000261772
0.000406001
0.000639283
0.00101212
0.00159843
0.00250711
0.00391051
0.00610578
0.00970275
0.0163436
4.4967e-05
4.41581e-05
4.59951e-05
5.1987e-05
6.60874e-05
9.52319e-05
0.000152004
0.000263646
0.000483183
0.000891693
0.00159107
0.0027011
0.00437895
0.00692565
0.0109543
0.0174314
0.0283448
0.0458488
0.0716837
0.110398
0.00404049
0.000455052
0.00187599
0.0049655
0.00961264
0.0151369
0.0208432
0.0264214
0.0319531
0.0376897
0.0440855
0.0517154
0.0608521
0.0736316
0.0932456
0.122049
0.160987
0.209569
0.268246
0.366742
0.495976
0.185442
0.167087
0.14789
0.135921
0.130182
0.128615
0.130104
0.134093
0.140429
0.148795
0.158115
0.166031
0.196993
0.253832
0.329859
0.424905
0.521836
0.610633
0.826493
0.132785
0.145805
0.152035
0.169431
0.185423
0.196758
0.205783
0.214894
0.225813
0.239097
0.25157
0.25227
0.248547
0.273564
0.296052
0.327545
0.378247
0.43481
0.49806
0.618978
0.0510341
0.0398281
0.0405485
0.052251
0.0659272
0.0785788
0.08977
0.0999235
0.109559
0.118875
0.127366
0.135137
0.149073
0.169785
0.180812
0.185357
0.189556
0.195364
0.210721
0.24676
0.0268523
0.0158086
0.013536
0.0173149
0.0230095
0.0291182
0.0351206
0.0408489
0.0462582
0.0513386
0.0561991
0.0616463
0.0696865
0.079389
0.08571
0.0873099
0.0856452
0.082836
0.0821062
0.0858713
0.0135154
0.00576675
0.00423106
0.00569386
0.00798703
0.0107013
0.0135319
0.0163398
0.0190495
0.0216399
0.0241892
0.0269591
0.0302528
0.0335966
0.0356664
0.0357071
0.03394
0.0311775
0.0284487
0.0263513
0.00623252
0.00148931
0.000906472
0.00141327
0.0022251
0.00326003
0.00444056
0.00566718
0.00688719
0.00806843
0.0092051
0.0103133
0.0113677
0.0121752
0.0124135
0.0118968
0.0107101
0.00913436
0.00748928
0.00596989
0.00281181
0.000453483
0.000151387
0.000227598
0.000394877
0.000648027
0.000980011
0.00136211
0.00176275
0.00215502
0.00251347
0.0028119
0.00301399
0.003066
0.00291853
0.0025704
0.0020847
0.00156111
0.00108953
0.000717439
0.00154389
0.000365515
6.5734e-05
5.74479e-05
7.18613e-05
9.91686e-05
0.00014091
0.000195966
0.000258848
0.000321865