/*--------------------------------*- C++ -*----------------------------------*\
| =========                 |                                                 |
| \\      /  F ield         | OpenFOAM: The Open Source CFD Toolbox           |
|  \\    /   O peration     | Version:  v1912                                 |
|   \\  /    A nd           | Website:  www.openfoam.com                      |
|    \\/     M anipulation  |                                                 |
\*---------------------------------------------------------------------------*/
FoamFile
{
    version     2.0;
    format      ascii;
    class       volScalarField;
    location    "28";
    object      k;
}
// * * * * * * * * * * * * * * * * * * * * * * * * * * * * * * * * * * * * * //

dimensions      [0 2 -2 0 0 0 0];


internalField   nonuniform List<scalar> 
20320
(
0.00413919
0.00425412
0.00433111
0.00440662
0.00448009
0.00455101
0.0046187
0.00468234
0.00474097
0.00479353
0.00483881
0.00487543
0.00490183
0.00491625
0.00491642
0.00489907
0.00485862
0.0047944
0.00498045
0.00729759
0.00415073
0.00414914
0.00419432
0.00429082
0.00445932
0.00471982
0.00509128
0.00559038
0.00623075
0.00702398
0.00798011
0.00910756
0.0104119
0.0118951
0.0135473
0.0153329
0.017158
0.0188354
0.0207423
0.0215307
0.00417729
0.00421749
0.00430384
0.00444303
0.00466101
0.00498922
0.00546773
0.00614535
0.00707916
0.0083313
0.00996011
0.0120093
0.014497
0.0174066
0.0206752
0.0241633
0.0275623
0.0303663
0.0328882
0.0318428
0.00421499
0.00431955
0.00447401
0.00468017
0.00496422
0.00535875
0.00590743
0.00666783
0.00771682
0.00915552
0.0111055
0.0136915
0.0170088
0.0210834
0.025832
0.0310022
0.0360284
0.0400731
0.043193
0.0406159
0.00426122
0.0044502
0.00469315
0.0049866
0.00535618
0.00583453
0.00646586
0.00730906
0.00844603
0.00999311
0.012108
0.0149847
0.0188217
0.0237529
0.0297423
0.0364443
0.0430054
0.0482693
0.0519966
0.048353
0.00431435
0.00460687
0.00495897
0.00536207
0.00584037
0.00642578
0.00716204
0.00810719
0.00934336
0.0109912
0.0132236
0.0162744
0.020427
0.0259463
0.0329148
0.0409574
0.048941
0.0553752
0.0596857
0.0553454
0.0043724
0.00478442
0.00526388
0.00579748
0.00640714
0.00712315
0.00798785
0.00905737
0.0104125
0.0121748
0.0145229
0.0177108
0.0220767
0.0280006
0.0357142
0.0448853
0.0541618
0.0617236
0.0665985
0.0618152
0.00443305
0.0049766
0.00559839
0.00628123
0.00704403
0.00791465
0.00893303
0.0101522
0.0116505
0.013549
0.0160289
0.0193538
0.0238954
0.0301207
0.0384064
0.0485109
0.0589423
0.0675807
0.0729994
0.0679288
0.00449363
0.00517579
0.00595026
0.00679747
0.00773316
0.00878225
0.00998143
0.0113795
0.013051
0.0151153
0.0177545
0.0212373
0.0259558
0.0324397
0.0411907
0.0520789
0.0635426
0.0732012
0.0791319
0.073846
0.00455124
0.00537296
0.00630429
0.00732581
0.0084506
0.00970086
0.0111097
0.0127207
0.014603
0.016873
0.0197121
0.023392
0.0283174
0.0350636
0.0442349
0.0558155
0.0682237
0.0788488
0.0852352
0.0797469
0.0046028
0.005558
0.00664285
0.00784161
0.00916639
0.010638
0.0122864
0.0141494
0.0162897
0.0188186
0.0219157
0.0258531
0.0310444
0.0380989
0.0477047
0.059954
0.0732718
0.0848249
0.0915849
0.0857964
0.00464537
0.00572035
0.00694682
0.0083172
0.00984561
0.0115541
0.0134714
0.0156305
0.0180864
0.0209443
0.0243794
0.028663
0.034215
0.0416718
0.0517921
0.0647665
0.0790335
0.0915128
0.0985328
0.0922103
0.00467638
0.00584998
0.00719735
0.00872413
0.0104506
0.0124045
0.0146171
0.017119
0.019959
0.0232347
0.0271159
0.0318721
0.037928
0.0459445
0.0567441
0.070608
0.0859755
0.0994524
0.106594
0.0993154
0.00469398
0.00593853
0.00737785
0.0090358
0.010944
0.0131415
0.0156687
0.0185592
0.0218593
0.0256613
0.0301297
0.0355328
0.0423023
0.0511264
0.0628938
0.077975
0.0947799
0.109468
0.116571
0.10762
0.00469725
0.00598035
0.00747608
0.00923065
0.0112922
0.0137184
0.016567
0.019884
0.023722
0.0281743
0.0334055
0.0396884
0.0474704
0.0574803
0.0706939
0.0875888
0.106507
0.122934
0.129874
0.118054
0.00468638
0.00597341
0.00748606
0.0092952
0.0114701
0.014094
0.0172524
0.0210172
0.0254615
0.0306939
0.0368932
0.0443523
0.0535569
0.065313
0.0807434
0.100508
0.122874
0.14229
0.149194
0.132516
0.00466263
0.00591961
0.00740895
0.00922617
0.0114642
0.014238
0.0176712
0.0218775
0.0269714
0.0331011
0.0404861
0.0494724
0.0606311
0.0749258
0.0937696
0.118232
0.146681
0.172113
0.18017
0.155142
0.00462816
0.00582451
0.00725304
0.00903126
0.0112758
0.0141361
0.0177823
0.0223863
0.0281291
0.0352319
0.0439975
0.0548802
0.0686211
0.0864888
0.110482
0.142647
0.182278
0.221192
0.236186
0.197171
0.00458569
0.00569654
0.00703255
0.0087283
0.010921
0.0137934
0.0175658
0.0224805
0.0288095
0.0368858
0.0471503
0.0602439
0.0772004
0.0998223
0.131193
0.175504
0.235382
0.305214
0.350705
0.297522
0.00453817
0.00554568
0.00676548
0.00834271
0.0104294
0.0132359
0.0170294
0.0221264
0.0289068
0.0378496
0.0495906
0.0650443
0.0856775
0.114097
0.155116
0.216861
0.310215
0.444704
0.598214
0.627858
0.955959
1.37208
1.64697
1.75683
1.74431
1.63909
1.40222
1.52187
5.46125
11.8161
18.2419
21.0629
20.7259
22.3749
25.9355
31.6492
40.7855
51.3066
58.805
65.132
80.4856
98.3686
116.997
100.106
71.1109
53.3992
42.7211
35.5226
30.25
26.1843
22.958
20.3564
18.2376
16.5078
15.067
13.8439
12.7868
11.8584
11.0316
10.2889
9.61948
9.01562
8.47123
7.98128
7.54129
7.14704
6.79416
6.47834
6.19622
5.94547
5.72416
5.53083
5.36441
5.22421
5.10947
5.0187
4.94995
4.90129
4.87085
4.85703
1.45652
3.47922
4.33822
4.7279
4.82146
4.67992
4.32152
3.67762
5.5942
22.0247
54.6661
86.5576
73.0577
68.1819
74.0601
90.5478
121.334
165.499
197.751
203.231
216.459
280.419
384.2
240.076
163.873
125.274
101.285
84.745
72.4812
62.977
55.4056
49.2553
44.1804
39.9324
36.3376
33.2553
30.5752
28.2129
26.1071
24.2165
22.5144
20.9817
19.6022
18.3628
17.2529
16.2623
15.3799
14.5955
13.9008
13.2903
12.7589
12.3018
11.9157
11.598
11.3456
11.1536
11.016
10.9272
10.8815
10.874
1.87031
4.53192
5.62595
6.16489
6.34741
6.27015
5.98831
5.42029
4.63903
9.42123
27.1016
56.2522
72.6556
74.649
78.9718
93.1868
118.432
152.825
190.446
228.332
258.173
331.313
381.646
238.609
174.603
138.616
115.037
98.0434
85.0876
74.8846
66.6606
59.894
54.2235
49.3953
45.2369
41.6178
38.4355
35.6098
33.0796
30.8008
28.7441
26.8873
25.2121
23.7041
22.3524
21.1467
20.0756
19.1281
18.2948
17.5691
16.9438
16.4117
15.967
15.6052
15.3211
15.1078
14.9576
14.8629
14.8169
14.8129
2.27172
5.54557
6.82435
7.4764
7.73381
7.70502
7.46288
6.96613
6.06365
6.0245
11.4002
26.5415
47.3879
55.74
64.819
78.8151
100.127
130.986
173.087
220.853
274.672
343.818
289.443
211.993
163.579
134.006
114.008
99.1216
87.4802
78.1563
70.5267
64.1356
58.672
53.9279
49.7662
46.0905
42.8229
39.8999
37.2704
34.8959
32.7486
30.8076
29.0553
27.4776
26.0652
24.8096
23.7001
22.7259
21.8778
21.1481
20.5281
20.008
19.5798
19.2374
18.9741
18.7817
18.6514
18.5753
18.5467
18.5577
2.67319
6.5929
8.08361
8.87434
9.22782
9.25948
9.05313
8.61337
7.85994
7.06559
8.45692
16.1346
30.8414
45.4055
57.0284
72.6378
95.8802
129.539
179.098
247.516
338.929
338.433
247.94
185.953
146.67
122.345
105.981
93.7889
84.1999
76.4505
70.0015
64.4754
59.641
55.3585
51.5386
48.1198
45.0509
42.2882
39.7942
37.538
35.4969
33.6528
31.9898
30.4949
29.1612
27.9825
26.9492
26.0508
25.2781
24.6234
24.077
23.6266
23.2627
22.9789
22.7682
22.6215
22.5301
22.4872
22.4864
22.5197
3.06908
7.69032
9.4489
10.4504
10.9608
11.1029
10.9604
10.5953
9.99761
9.35284
9.94796
14.8076
25.5327
39.616
55.1402
73.133
97.9922
136.633
197.863
299.166
488.776
323.23
219.803
162.89
129.291
108.915
95.518
85.7683
78.2192
72.1129
66.9541
62.444
58.4305
54.8243
51.5713
48.6316
45.9735
43.5692
41.3944
39.4272
37.6504
36.0498
34.6111
33.3222
32.1783
31.1753
30.3037
29.5535
28.917
28.3874
27.9547
27.605
27.3297
27.1232
26.9789
26.8877
26.8417
26.8363
26.866
26.9223
3.48081
8.8444
10.9703
12.2758
13.0393
13.3815
13.3793
13.1504
12.7586
12.4252
13.1271
17.098
25.9662
38.9723
55.2692
75.8313
104.512
149.722
224.417
361.134
427.149
272.606
188.092
140.654
112.888
96.1488
85.3103
77.5786
71.6387
66.8501
62.8253
59.3038
56.1905
53.3815
50.8413
48.5354
46.4407
44.5409
42.8216
41.2702
39.8784
38.634
37.5192
36.5224
35.6474
34.8859
34.2259
33.6608
33.1869
32.8013
32.493
32.2469
32.061
31.9319
31.8522
31.8118
31.8061
31.8333
31.8876
31.9605
3.93105
10.1205
12.6979
14.409
15.5587
16.2379
16.5012
16.5057
16.4103
16.4762
17.5342
21.3344
29.4153
41.9104
58.8877
81.9821
115.722
169.535
260.143
426.398
307.778
213.781
155.281
119.802
98.329
85.265
76.8498
70.6965
65.6814
61.7818
58.6448
55.9861
53.6488
51.5919
49.7362
48.0539
46.5219
45.1298
43.8717
42.7391
41.7324
40.8433
40.0501
39.3441
38.7362
38.2157
37.7632
37.3759
37.0557
36.8038
36.6082
36.452
36.3436
36.282
36.2588
36.2622
36.2913
36.3483
36.4262
36.5164
4.4212
11.5588
14.6664
16.9071
18.5985
19.7809
20.4841
20.8442
21.1426
21.6883
23.2158
27.2029
35.1582
47.8306
66.1586
92.6419
132.736
198.047
311.04
321.695
229.493
167.873
127.745
102.251
86.4555
76.8649
70.6415
65.0974
60.7357
57.4072
54.8473
52.7859
51.0752
49.5559
48.1755
46.9217
45.7804
44.7449
43.8125
42.9777
42.2413
41.5976
41.0292
40.5303
40.1143
39.7707
39.478
39.2318
39.0348
38.8877
38.7792
38.6987
38.6548
38.6486
38.6723
38.7167
38.7818
38.87
38.9761
39.0893
4.98713
13.2072
16.9416
19.8263
22.2062
24.0757
25.4107
26.2818
27.0571
28.1327
30.1991
34.6033
42.9574
56.5466
77.1456
108.409
157.131
237.71
349.964
245.801
179.524
135.792
107.085
88.8194
77.7173
70.9492
65.5393
60.6559
56.7139
53.7461
51.5201
49.7982
48.4684
47.3467
46.3304
45.4026
44.5576
43.7931
43.1078
42.4991
41.9677
41.509
41.1115
40.7733
40.5019
40.2881
40.1146
39.9756
39.8718
39.8024
39.7593
39.7378
39.7447
39.7814
39.8423
39.9212
40.0181
40.1339
40.2646
40.3957
5.70419
15.1769
19.6357
23.2493
26.4335
29.1625
31.3293
32.8914
34.224
35.8469
38.4928
43.4948
52.7229
68.0478
92.1434
130.21
191.292
293.224
271.87
196.069
146.306
113.404
92.1806
79.285
72.0843
66.7938
61.5243
56.8654
53.0748
50.2416
48.1944
46.699
45.6152
44.7785
44.0591
43.4141
42.8322
42.3103
41.8472
41.4415
41.0934
40.7994
40.553
40.3534
40.2037
40.0963
40.0186
39.9649
39.9345
39.9261
39.9353
39.9615
40.0096
40.0812
40.1728
40.2804
40.4036
40.5423
40.6924
40.8359
6.74641
17.694
22.9423
27.3094
31.3598
35.0796
38.269
40.7204
42.7303
44.9381
48.2076
53.9705
64.5338
82.5623
111.808
159.423
237.747
320.399
222.439
162.383
122.917
97.2868
81.6412
73.0997
68.4122
63.5954
58.1901
53.3344
49.4563
46.5953
44.6043
43.251
42.349
41.7333
41.2685
40.8873
40.5631
40.2847
40.0473
39.8479
39.6858
39.5581
39.4614
39.3954
39.3608
39.352
39.3607
39.3827
39.4169
39.4629
39.5196
39.5884
39.6735
39.7764
39.8952
40.0278
40.1734
40.3313
40.4967
40.6495
8.35549
21.1393
27.1759
32.2426
37.15
41.9288
46.3162
49.8969
52.7757
55.6875
59.6853
66.4066
78.7948
100.662
137.303
198.694
300.743
262.247
186.878
137.522
105.305
85.3985
74.5068
69.587
65.3855
60.347
54.9461
49.9281
45.8639
42.8693
40.83
39.5257
38.7399
38.2918
38.0397
37.8974
37.8195
37.7822
37.7724
37.7834
37.8117
37.8546
37.9101
37.9781
38.0585
38.1479
38.2418
38.3376
38.4353
38.5356
38.6399
38.7511
38.8727
39.0064
39.1518
39.3079
39.474
39.6492
39.8285
39.99
10.6726
26.0021
32.7912
38.4128
44.0744
49.9119
55.665
60.6695
64.7462
68.6657
73.6607
81.6727
96.4557
123.479
170.412
251.648
331.276
224.498
159.615
117.684
91.4504
76.7618
70.2099
66.845
62.3875
57.1042
51.6319
46.5381
42.3328
39.1959
37.062
35.7373
35.0016
34.6625
34.5703
34.6237
34.7594
34.9396
35.1411
35.3511
35.5624
35.7711
35.9754
36.1748
36.3694
36.5574
36.737
36.9078
37.0708
37.2281
37.3827
37.5381
37.6978
37.864
38.037
38.2169
38.4037
38.5967
38.7905
38.9621
13.717
32.7327
40.3285
46.3097
52.5282
59.361
66.6692
73.5389
79.3404
84.875
91.5222
101.545
119.693
153.459
213.615
325.216
285.372
193.859
136.799
101.107
80.6325
70.9603
67.6598
64.1178
59.2684
53.7808
48.233
43.1218
38.8624
35.6415
33.4284
32.0605
31.3316
31.0499
31.0618
31.2557
31.5552
31.9099
32.2874
32.6681
33.0407
33.3988
33.7394
34.0616
34.365
34.649
34.9136
35.1598
35.3897
35.6066
35.814
36.016
36.2161
36.4168
36.6195
36.8251
37.0343
37.2468
37.4574
37.6417
17.3695
41.68
50.3372
56.4981
63.0035
70.7398
79.8501
89.3447
97.712
106.013
115.745
129.448
152.836
195.623
273.416
379.648
247.632
166.922
116.659
87.2859
72.7108
67.7441
65.277
61.167
55.9875
50.3299
44.7468
39.6746
35.4442
32.2163
29.9731
28.5764
27.8397
27.5813
27.6504
27.9312
28.3403
28.8189
29.3276
29.8412
30.3438
30.8265
31.2841
31.7144
32.1163
32.4899
32.8357
33.1555
33.4522
33.7293
33.9909
34.241
34.4833
34.7206
34.9551
35.1886
35.4227
35.6576
35.8878
36.0875
21.2688
53.0938
63.3501
69.4531
75.9912
84.6255
96.0002
109.293
121.629
134.914
150.458
171.382
204.122
259.999
359.826
337.502
216.105
142.193
98.7974
76.3531
67.6103
65.8268
62.6331
57.9606
52.4881
46.7327
41.1789
36.2045
32.0735
28.9092
26.6913
25.2966
24.5573
24.3063
24.4001
24.7254
25.1968
25.7523
26.3483
26.9553
27.5544
28.1333
28.6849
29.2052
29.6921
30.1453
30.5654
30.9544
31.315
31.6509
31.9659
32.2642
32.5493
32.8244
33.0925
33.3562
33.6178
33.8779
34.1307
34.3481
27.0139
67.0311
79.8598
85.6285
91.8082
102.06
116.226
133.44
153.619
175.513
201.713
237.465
287.098
366.852
486.035
299.597
184.822
118.547
83.5195
68.5103
65.0962
63.603
59.666
54.5228
48.8119
43.0162
37.5503
32.7274
28.7519
25.7079
23.5632
22.2032
21.4754
21.2279
21.3283
21.6693
22.1682
22.7632
23.4092
24.075
24.739
25.3867
26.0089
26.5998
27.1563
27.677
28.1622
28.6131
29.0325
29.4232
29.7891
30.1339
30.4611
30.7743
31.0769
31.3723
31.6633
31.951
32.2286
32.4654
39.5408
84.3535
100.655
105.773
109.928
123.149
142.195
163.354
193.654
228.24
273.793
338.761
417.16
558.258
456.558
256.349
151.25
96.5418
71.5167
63.6852
63.571
60.9823
56.4122
50.8792
44.9969
39.2173
33.8911
29.2663
25.4901
22.6078
20.5732
19.275
18.5745
18.3341
18.4333
18.7734
19.2769
19.8846
20.5526
21.2491
21.9513
22.6434
23.3144
23.9571
24.567
25.1418
25.6809
26.1849
26.6556
27.0955
27.5078
27.8958
28.263
28.6132
28.9502
29.2779
29.5995
29.916
30.2199
30.4768
53.2369
112.721
121.216
119.994
124.98
142.33
156.55
178.018
207.627
248.25
307.358
393.646
534.222
782.97
376.231
201.011
117.611
78.0987
63.2158
61.5339
61.4801
58.0233
52.9026
47.0543
41.0746
35.3736
30.2373
25.8505
22.3067
19.6156
17.7166
16.5012
15.8422
15.6156
15.7127
16.044
16.5384
17.1413
17.8111
18.5168
19.2357
19.9513
20.6516
21.3282
21.9759
22.5909
23.172
23.7186
24.232
24.7138
25.1665
25.5931
25.997
26.382
26.7521
27.1115
27.4637
27.8094
28.1396
28.4162
47.6953
101.967
112.536
119.207
130.467
141.367
156.551
177.815
207.9
250.369
312.482
402.015
527.853
457.386
255.959
145.443
89.2772
64.6668
58.3493
60.3564
59.0181
54.7662
49.1521
43.0735
37.0816
31.5265
26.6293
22.5144
19.227
16.7463
14.9998
13.8822
13.2767
13.0716
13.1691
13.4888
13.9669
14.5536
15.2108
15.9095
16.6278
17.3494
18.0619
18.7565
19.4266
20.0682
20.6788
21.2572
21.8036
22.319
22.8053
23.2649
23.7011
24.1175
24.5184
24.9079
25.2897
25.6637
26.0193
26.3144
38.8168
88.8446
104.449
115.228
126.901
138.137
153.898
176.548
208.037
251.922
311.487
383.222
413.743
279.145
171.237
103.984
68.8965
56.0587
56.3009
58.7158
56.1877
51.1823
45.1754
38.979
33.0693
27.7282
23.1141
19.2972
16.2819
14.0228
12.4393
11.43
10.8876
10.7109
10.8124
11.1201
11.5774
12.1401
12.7741
13.4531
14.1569
14.8698
15.5796
16.2773
16.9561
17.611
18.239
18.8381
19.4076
19.9479
20.4603
20.9468
21.4102
21.8541
22.2826
22.6998
23.1091
23.5096
23.8887
24.1998
32.9565
81.6547
97.7784
109.58
120.739
133.891
151.499
175.516
208.17
250.703
300.06
340.662
289.955
189.391
119.009
75.766
55.3989
51.2676
56.0145
56.5158
52.8353
47.2626
41.0256
34.8381
29.1022
24.0353
19.7392
16.238
13.5031
11.471
10.0565
9.1625
8.68997
8.54696
8.65484
8.95006
9.38308
9.91562
10.518
11.167
11.8445
12.5361
13.2304
13.9182
14.5928
15.2489
15.8828
16.4918
17.0747
17.6313
18.1623
18.6693
19.1546
19.6216
20.0741
20.5159
20.9498
21.374
21.7735
22.0977
28.2209
74.2604
90.6789
102.869
114.193
129.003
148.125
172.965
204.126
240.527
276.456
282.52
201.642
131.522
83.6741
56.6556
47.1195
49.4576
54.9871
53.6795
49.0956
43.1243
36.804
30.737
25.2511
20.5047
16.5504
13.3742
10.9223
9.11862
7.87583
7.10093
6.70191
6.59477
6.70926
6.9901
7.39498
7.89151
8.45476
9.06499
9.7063
10.3659
11.0333
11.7
12.3591
13.0052
13.6344
14.2435
14.8308
15.3956
15.938
16.4592
16.9612
17.4467
17.9192
18.3821
18.8372
19.2814
19.6975
20.0311
25.6814
64.8377
82.3659
94.1074
106.026
121.213
140.302
163.802
191.681
221.271
241.793
206.949
139.793
90.6066
59.1128
44.3967
42.8534
49.9546
53.1458
50.4031
45.1186
38.8996
32.6152
26.757
21.5786
17.1845
13.5856
10.7375
8.56761
6.99162
5.92098
5.26607
4.94049
4.86785
4.98625
5.24874
5.62037
6.07496
6.59212
7.15563
7.75215
8.37055
9.00151
9.63715
10.2709
10.8975
11.5126
12.1131
12.6967
13.2623
13.8096
14.3393
14.8528
15.3526
15.8411
16.321
16.7933
17.2532
17.6811
18.0196
22.8487
57.7223
72.7165
83.6771
94.8228
109.1
126.83
148.046
172.361
195.268
197.401
143.535
95.3651
61.7147
42.9422
37.4951
41.7233
50.2604
50.5885
46.703
40.9745
34.6764
28.5386
22.9609
18.1325
14.111
10.8736
8.3531
6.46347
5.11369
4.21458
3.67762
3.42172
3.3784
3.49489
3.73295
4.06504
4.4711
4.9353
5.44491
5.98904
6.5583
7.14456
7.74071
8.3407
8.93938
9.53244
10.1166
10.6894
11.2493
11.7956
12.3287
12.8493
13.359
13.8596
14.3524
14.8372
15.3076
15.7417
16.0803
18.9752
51.8175
63.8955
73.6977
83.4711
95.7054
111.011
129.476
150.407
165.135
142.923
97.4859
63.6731
42.2888
33.4451
34.6244
43.0618
48.9496
47.4546
42.7647
36.775
30.531
24.6315
19.3913
14.9434
11.307
8.43334
6.24194
4.6335
3.50855
2.77598
2.3515
2.15937
2.13857
2.24542
2.45097
2.73561
3.08599
3.48995
3.93863
4.42315
4.93601
5.47024
6.01955
6.57838
7.14191
7.70597
8.26719
8.82301
9.37161
9.91196
10.4437
10.9672
11.4828
11.9913
12.4927
12.9849
13.4597
13.8936
14.227
16.3228
45.1041
56.1003
65.1307
73.6447
83.4476
96.2446
112.353
129.396
132.685
97.1558
64.5998
42.0142
30.4792
28.9457
34.6914
44.7631
47.0342
43.9843
38.6963
32.6018
26.5228
20.9347
16.0748
12.0284
8.7863
6.29145
4.43101
3.09533
2.18666
1.61576
1.29971
1.16632
1.16172
1.25184
1.41714
1.64626
1.93153
2.26654
2.64565
3.06274
3.51189
3.98692
4.48224
4.99314
5.51492
6.04368
6.57613
7.10947
7.64169
8.1714
8.69755
9.21963
9.73716
10.2493
10.7544
11.2483
11.7208
12.1473
12.4699
13.87
38.5602
48.9783
57.5487
65.4605
73.6071
83.9647
98.5625
111.174
96.3828
64.9977
42.0047
28.4473
24.4939
27.9408
36.9157
44.7663
44.2647
40.1886
34.5625
28.5134
22.6946
17.4759
13.0278
9.40287
6.58543
4.46416
2.92226
1.85268
1.15922
0.752029
0.545648
0.468312
0.473341
0.537975
0.653573
0.817491
1.02854
1.2852
1.585
1.92458
2.29985
2.70648
3.13962
3.59554
4.06876
4.556
5.05384
5.55937
6.07031
6.58464
7.10078
7.61712
8.13197
8.64294
9.14633
9.63557
10.0985
10.5099
10.8156
11.0851
32.3829
42.8976
51.061
58.5266
65.7118
74.901
89.3515
93.1497
66.3854
42.7327
27.4324
21.1725
22.5337
29.266
40.0624
43.3583
41.0333
36.2283
30.4508
24.5653
19.0819
14.2748
10.2654
7.10585
4.70446
2.94562
1.71714
0.916465
0.44909
0.21857
0.126818
0.100729
0.106841
0.136833
0.192933
0.280737
0.405826
0.571941
0.780634
1.03131
1.32191
1.64929
2.00989
2.39997
2.81573
3.25348
3.71034
4.18196
4.66615
5.15988
5.66083
6.16627
6.67308
7.17717
7.67256
8.15029
8.59567
8.9834
9.26527
9.39086
27.954
38.1944
45.9065
52.684
58.5029
70.008
82.3013
69.613
44.7474
27.658
19.0524
18.3092
23.1064
32.1409
40.8646
41.1785
37.4964
32.2029
26.4246
20.8011
15.7105
11.3458
7.83366
5.13263
3.13643
1.73517
0.824774
0.309919
0.0879211
0.025494
0.012894
0.0108367
0.0120889
0.0165578
0.0268289
0.0482169
0.0888483
0.158147
0.264228
0.412133
0.603633
0.838078
1.11326
1.4262
1.7735
2.15167
2.55719
2.98648
3.43619
3.90254
4.38205
4.87006
5.36218
5.85234
6.33245
6.79078
7.21006
7.56425
7.813
8.34536
25.3697
34.8576
41.9979
47.5812
53.8009
67.446
70.8545
47.6307
28.9467
18.133
15.2098
18.1803
25.2577
35.9166
40.3454
38.2758
33.6667
28.1593
22.5325
17.2557
12.6012
8.7402
5.72979
3.47636
1.87942
0.839851
0.265406
0.0481207
0.00916985
0.00556693
0.00508365
0.00496764
0.0049803
0.00514793
0.00565456
0.00704862
0.0108511
0.0208003
0.0443009
0.0921776
0.175488
0.301982
0.475019
0.694624
0.958733
1.26425
1.6073
1.98369
2.38896
2.81832
3.26666
3.72843
4.19704
4.66467
5.1206
5.55022
5.93338
6.24146
6.4402
7.31001
23.0883
32.06
38.8975
43.5405
51.7994
63.2121
50.0482
30.5721
18.1
13.1365
14.3543
19.6816
28.4866
38.1591
38.3224
34.7523
29.6918
24.1902
18.8289
13.9607
9.78858
6.47062
3.94982
2.13587
0.93975
0.277388
0.0397916
0.00700118
0.00518846
0.00495247
0.00484497
0.00476847
0.00471307
0.00467847
0.00466953
0.00470535
0.00484832
0.00529629
0.00670081
0.0111132
0.0239448
0.0557889
0.120722
0.230861
0.392615
0.606894
0.871039
1.18026
1.52868
1.90979
2.31661
2.74161
3.17618
3.61014
4.03042
4.4197
4.7536
4.99736
5.10782
6.10264
20.2446
28.9099
36.0776
41.8296
50.1037
52.3292
32.3885
18.6183
11.9204
11.4977
15.2821
22.2532
32.5657
37.4642
35.4216
31.0066
25.7444
20.3793
15.3595
10.9402
7.3212
4.53463
2.49319
1.11663
0.333309
0.0448868
0.00693736
0.00530399
0.00509144
0.00496507
0.00486321
0.00477991
0.00471272
0.00466048
0.00462284
0.00460024
0.00459408
0.00461024
0.00467156
0.00485761
0.00545761
0.00757499
0.0150015
0.0376786
0.0927528
0.197623
0.361331
0.583466
0.857948
1.17624
1.52881
1.90548
2.29507
2.6846
3.058
3.39409
3.66289
3.81818
3.77713
4.9387
17.1026
25.4708
33.7353
42.4231
49.4902
34.2109
19.4563
11.3456
9.47026
11.9002
17.2972
25.6633
35.0944
35.4612
32.0515
27.1857
21.9039
16.7766
12.1566
8.24884
5.20034
2.93333
1.36535
0.433609
0.0617966
0.00763485
0.00553609
0.00530198
0.00515288
0.00502653
0.00491539
0.00482053
0.00474149
0.00467766
0.00462839
0.00459287
0.00457067
0.0045625
0.00456915
0.00459197
0.0046417
0.00476118
0.0051141
0.00642948
0.0118815
0.0320777
0.0885476
0.202749
0.381398
0.618079
0.900894
1.21635
1.54994
1.88525
2.20248
2.47578
2.66848
2.72211
2.52371
4.33585
14.6168
23.0653
33.4809
43.1395
37.0262
20.3556
11.0739
8.0646
9.38153
13.4507
20.1123
29.8327
34.5339
32.6224
28.3955
23.3535
18.2116
13.4168
9.24709
5.92057
3.42913
1.67258
0.580379
0.095275
0.00924665
0.00581395
0.00555218
0.00539036
0.00524422
0.00511123
0.00499221
0.00488696
0.00479616
0.00471974
0.00465733
0.00460864
0.0045736
0.00455193
0.00454346
0.00454934
0.00457225
0.00461434
0.00468185
0.00480866
0.00513718
0.00638615
0.0122789
0.0367189
0.106376
0.239881
0.433892
0.673376
0.939958
1.21332
1.46962
1.67855
1.798
1.7639
1.46628
5.54629
14.592
24.2353
40.71
38.0811
20.2631
10.5572
6.97024
7.526
10.5726
15.7574
23.6591
32.468
32.5563
29.2208
24.5764
19.574
14.7101
10.3325
6.69866
3.96081
2.01496
0.766
0.151683
0.0127741
0.00603694
0.00575484
0.00561791
0.00548119
0.00534569
0.00521442
0.00509168
0.00497927
0.00487836
0.00478972
0.00471375
0.0046507
0.00460068
0.00456393
0.00454113
0.00453306
0.00453988
0.00456283
0.00460697
0.00467935
0.00478791
0.00496937
0.00540659
0.00712228
0.0157363
0.0503365
0.137292
0.282046
0.468475
0.67288
0.867922
1.02055
1.08768
1.01002
0.709735
8.52875
18.8346
32.6945
39.0356
19.1348
9.42766
5.92099
6.10884
8.476
12.5279
18.7229
27.922
31.6385
29.5674
25.4911
20.7276
15.9272
11.4499
7.55875
4.53832
2.37908
0.972454
0.230652
0.0203983
0.00608788
0.00574742
0.00569218
0.00562005
0.00552683
0.00542128
0.00531036
0.00519732
0.00508703
0.00498247
0.00488583
0.00479872
0.00472229
0.00465747
0.00460511
0.00456587
0.00454017
0.00452917
0.00453537
0.00456142
0.00460934
0.00468517
0.00480211
0.00497547
0.00525413
0.00590553
0.00847907
0.0208069
0.06313
0.150788
0.2733
0.403923
0.509647
0.552242
0.488596
0.28351
16.2511
36.1169
29.6882
14.1779
7.0577
4.75829
5.0252
6.91651
10.2334
15.0987
22.3642
29.2529
29.3137
26.1446
21.7062
16.994
12.5035
8.48733
5.18527
2.77975
1.19353
0.323943
0.0343884
0.00606818
0.00544334
0.00547336
0.0055027
0.00550309
0.00547509
0.00542417
0.00535509
0.00527285
0.00518252
0.00508875
0.00499534
0.00490536
0.00482125
0.00474491
0.00467799
0.0046219
0.00457818
0.00454866
0.00453503
0.00453876
0.00456295
0.00461338
0.00469565
0.00481689
0.00499484
0.0052526
0.00565151
0.00649052
0.0093099
0.0204257
0.0511671
0.102182
0.15425
0.178467
0.149428
0.0676417
7.8963
12.3892
6.65465
4.39472
3.83263
4.31673
5.81308
8.51238
12.6335
18.2976
26.1746
28.2829
26.5168
22.5917
17.9894
13.4651
9.37974
5.894
3.24173
1.44292
0.430192
0.0558927
0.00650269
0.00502633
0.00504876
0.00512258
0.00519319
0.00524977
0.00528676
0.00530143
0.00529343
0.00526442
0.00521751
0.00515669
0.00508603
0.00500947
0.00493054
0.00485241
0.00477795
0.0047099
0.00465074
0.0046027
0.00456778
0.00454848
0.00454815
0.00457021
0.00461823
0.0046994
0.00482308
0.00499824
0.00524476
0.00558546
0.00606844
0.00683708
0.00832673
0.0115368
0.0165586
0.0195064
0.0156672
0.00862365
0.00448844
0.00538226
0.00647116
0.0079039
0.00983998
0.0125075
0.0162103
0.021332
0.0283614
0.0379414
0.0509427
0.0686212
0.0929846
0.127635
0.179581
0.262439
0.400897
0.638179
1.0517
1.853
0.00443755
0.00521394
0.0061643
0.00743529
0.00918601
0.0116507
0.0151545
0.0201296
0.0271581
0.0370391
0.0508857
0.0703188
0.0979116
0.138243
0.200355
0.302903
0.483233
0.809905
1.3874
2.51707
0.00438717
0.00504444
0.00585354
0.00695342
0.00849511
0.0107066
0.0139147
0.0185737
0.0253244
0.0350832
0.0491659
0.0695118
0.0991648
0.143392
0.212312
0.326514
0.526038
0.875659
1.45113
2.12229
0.00433911
0.00488043
0.0055518
0.00648034
0.00780322
0.0097312
0.0125736
0.016775
0.0229866
0.0321723
0.0457561
0.0658649
0.0957976
0.141037
0.211525
0.326316
0.520193
0.843866
1.33106
1.9057
0.00429485
0.00472754
0.00527017
0.0060354
0.007143
0.00877878
0.0112193
0.0148712
0.0203467
0.0285744
0.0409572
0.0596174
0.0878219
0.130793
0.197374
0.303237
0.474982
0.748223
1.14363
1.6404
0.00425546
0.00458991
0.00501663
0.00563288
0.00653979
0.0078945
0.00993164
0.0130013
0.0176393
0.0246693
0.0353477
0.0515904
0.0763364
0.114153
0.172316
0.262684
0.403871
0.619787
0.92737
1.31589
0.00422161
0.00447015
0.00479593
0.0052812
0.00600948
0.00710928
0.00877075
0.0112798
0.0150792
0.0208488
0.0296188
0.0429505
0.0632219
0.0940591
0.140988
0.212401
0.320546
0.480786
0.705539
0.992038
0.00419364
0.00436942
0.00460976
0.00498325
0.00555849
0.00643826
0.00777107
0.00978145
0.0128201
0.0174205
0.0243702
0.034827
0.0505105
0.073983
0.109026
0.161104
0.237746
0.348148
0.500479
0.696286
0.00417165
0.0042877
0.00445691
0.0047368
0.00518487
0.00588259
0.00694326
0.00853833
0.0109409
0.0145609
0.0199764
0.0279884
0.0397204
0.0567643
0.081366
0.116627
0.166637
0.236272
0.330129
0.450252
0.00415567
0.00422367
0.00433292
0.00453523
0.00488104
0.00543422
0.00628016
0.0075512
0.00946313
0.0123314
0.0165728
0.0227206
0.0314603
0.0436754
0.0604904
0.0833225
0.113935
0.154381
0.20667
0.272063
0.0041462
0.00417434
0.00423008
0.00436822
0.00463135
0.00506602
0.00573543
0.00673457
0.00821973
0.0104092
0.0135673
0.0180141
0.0241545
0.0324969
0.0436379
0.0583379
0.0777621
0.103897
0.140658
0.197268
0.00415519
0.00413945
0.00415844
0.00425773
0.00446
0.0048071
0.00539937
0.00648713
0.0085902
0.0125117
0.019236
0.0298573
0.0456955
0.0690606
0.104221
0.156912
0.236854
0.351008
0.501022
0.699136
0.0146096
0.00556076
0.0114332
0.0260695
0.0501759
0.0809816
0.115082
0.150832
0.188626
0.229783
0.276453
0.330995
0.394579
0.477643
0.592478
0.743878
0.928283
1.13761
1.37238
1.71688
0.860113
0.460431
0.480283
0.483422
0.495297
0.518465
0.550472
0.590374
0.638112
0.694168
0.757547
0.824397
0.889205
1.04105
1.27876
1.56616
1.88812
2.19102
2.46531
3.02641
0.409625
0.513114
0.580785
0.664961
0.743561
0.811249
0.874682
0.940167
1.01229
1.09222
1.17002
1.21487
1.25294
1.38489
1.51103
1.66101
1.85313
2.04316
2.24545
2.58242
0.224903
0.260019
0.293132
0.363204
0.440186
0.513118
0.58085
0.645205
0.708121
0.77011
0.829263
0.887391
0.971638
1.08053
1.15133
1.1942
1.22818
1.25979
1.32106
1.44541
0.130014
0.139885
0.150316
0.189972
0.239943
0.291214
0.340922
0.388375
0.43353
0.476512
0.518203
0.563151
0.620701
0.683666
0.726384
0.742258
0.73755
0.722388
0.713148
0.720531
0.0671285
0.0606726
0.0641386
0.0878857
0.118117
0.151125
0.184053
0.215809
0.245923
0.27435
0.301729
0.329758
0.359822
0.387752
0.404448
0.404963
0.390529
0.366331
0.339341
0.313728
0.0319916
0.0182187
0.0190143
0.0298695
0.0448184
0.06244
0.0813696
0.100177
0.1182
0.135065
0.15065
0.164959
0.177469
0.186115
0.187865
0.181003
0.166207
0.146027
0.123644
0.101343
0.0158302
0.00680596
0.0059071
0.00802631
0.0119857
0.0177284
0.0249024
0.0327868
0.0407119
0.0481605
0.0546804
0.0598294
0.0630426
0.0635616
0.0607308
0.0545471
0.0458935
0.0362581
0.0271538
0.0195871
0.00985623
0.0057562
0.00434739
0.00436376
0.00473519
0.00547664
0.0066082
0.00807414
0.0097136
0.0113205
0.0126664
0.0135345
0.0137526
0.0132386
0.0120668
0.0104936
0.00887544
0.00751158
0.00653323
0.00591291
0.0105345
0.00587394
0.00427812
0.00406242
0.00403575
0.00408316
0.00417179
0.00429321
0.00443639
0.00458409
0.0047151
0.00481116
0.00486419
0.00487938
0.0048721
0.00485959
0.00485273
0.00485365
0.00485916
0.00486481
0.0139694
0.00554529
0.00426053
0.00406497
0.00402624
0.00402385
0.00403114
0.00404404
0.00406286
0.00408858
0.00412214
0.00416439
0.00421567
0.00427499
0.00433921
0.00440332
0.00446174
0.00451009
0.00454628
0.00457034
0.0100309
0.00484445
0.00420708
0.00410089
0.00408145
0.0040784
0.00407916
0.00408206
0.00408763
0.00409683
0.00411062
0.00412973
0.00415435
0.00418373
0.00421603
0.00424867
0.00427902
0.00430501
0.00432536
0.00433955
1.06404
1.82401
2.32013
2.84212
3.33853
3.73005
3.96858
4.07503
4.06668
3.99344
3.92954
3.83977
3.74645
3.67728
3.67457
2.3342
5.70752
7.38825
8.52805
9.52706
10.0069
10.0897
9.87628
9.44581
8.86857
8.20388
7.50476
6.80576
6.11766
5.42079
3.09143
3.46092
4.87268
6.66032
8.0635
8.46281
8.10116
7.43194
6.66911
5.91134
5.2066
4.57901
4.04062
3.60057
3.27493
2.69557
3.19946
3.38342
3.50623
3.52832
3.48622
3.43329
3.33044
3.18524
3.01943
2.85356
2.70701
2.60136
2.5643
2.63444
2.17427
2.69518
3.0226
3.16159
3.17794
3.12617
3.03866
2.92982
2.80592
2.67616
2.55809
2.47904
2.47724
2.60285
2.91843
1.74801
2.16844
2.50125
2.72162
2.83765
2.86354
2.82034
2.72752
2.60916
2.4964
2.43066
2.46514
2.66345
3.09569
3.83474
1.33099
1.67786