/*--------------------------------*- C++ -*----------------------------------*\
| =========                 |                                                 |
| \\      /  F ield         | OpenFOAM: The Open Source CFD Toolbox           |
|  \\    /   O peration     | Version:  v1912                                 |
|   \\  /    A nd           | Website:  www.openfoam.com                      |
|    \\/     M anipulation  |                                                 |
\*---------------------------------------------------------------------------*/
FoamFile
{
    version     2.0;
    format      ascii;
    class       volScalarField;
    location    "28";
    object      nut;
}
// * * * * * * * * * * * * * * * * * * * * * * * * * * * * * * * * * * * * * //

dimensions      [0 2 -1 0 0 0 0];


internalField   nonuniform List<scalar> 
20320
(
0.0347183
0.0075985
0.00766696
0.0077335
0.00779771
0.00785918
0.00791742
0.00797177
0.00802153
0.00806587
0.00810387
0.00813448
0.00815647
0.00816846
0.0081686
0.00815417
0.00812045
0.00806655
0.00822042
0.00994674
0.0352305
0.035273
0.0354456
0.0356786
0.0359561
0.0362433
0.0365044
0.0367152
0.0368697
0.0369786
0.0370586
0.0371234
0.0371753
0.0372069
0.037192
0.0370763
0.0367287
0.0356989
0.0329364
0.0239067
0.0353534
0.035636
0.0361362
0.0368807
0.0379717
0.0395089
0.0415804
0.0442329
0.0474403
0.0510779
0.0549127
0.0586291
0.0618817
0.0643521
0.0657896
0.065998
0.0646413
0.0606274
0.0522045
0.0333371
0.0355256
0.0361093
0.0369195
0.0379584
0.0393285
0.0411436
0.0435353
0.0466431
0.050601
0.0555037
0.0613348
0.0678759
0.0746447
0.0809203
0.0858591
0.0885927
0.0879964
0.0819362
0.0683273
0.0405075
0.0357332
0.0367018
0.0378994
0.0393012
0.0410014
0.043108
0.0457515
0.0490826
0.0532771
0.0585342
0.0650324
0.0728265
0.0816841
0.0909261
0.0993703
0.105362
0.106543
0.0993921
0.0816265
0.046111
0.0359668
0.0373927
0.0390463
0.0408789
0.0429733
0.0454286
0.0483686
0.0519387
0.0563194
0.0617416
0.0684727
0.0767529
0.0866402
0.097746
0.10892
0.117958
0.121207
0.113616
0.092638
0.0505935
0.036216
0.0381509
0.0403094
0.0426237
0.0451637
0.0480183
0.0513023
0.0551519
0.0597434
0.0653162
0.0721745
0.080657
0.0910305
0.103221
0.116312
0.127832
0.133016
0.125369
0.101925
0.0542896
0.0364696
0.0389428
0.0416352
0.0444658
0.0474915
0.05079
0.0544651
0.0586416
0.0634873
0.0692417
0.0762249
0.0848269
0.0954461
0.108264
0.12265
0.136063
0.14288
0.135358
0.109983
0.0574516
0.036716
0.0397333
0.0429668
0.0463306
0.0498696
0.0536503
0.0577645
0.0623226
0.0674797
0.0734702
0.0806201
0.0893463
0.100129
0.113337
0.128603
0.143426
0.151558
0.144219
0.117248
0.0602817
0.0369439
0.0404865
0.0442459
0.048141
0.0522075
0.0565019
0.0611035
0.0661059
0.0716469
0.07795
0.0853395
0.0942455
0.105198
0.1187
0.134606
0.150499
0.159685
0.152524
0.124115
0.0629563
0.0371425
0.0411677
0.0454154
0.0498205
0.0544138
0.0592449
0.0643816
0.0698985
0.075912
0.0826278
0.0903609
0.0995443
0.110738
0.124539
0.14098
0.157747
0.167822
0.160812
0.130976
0.065632
0.0373026
0.0417452
0.0464223
0.0512965
0.0563996
0.0617795
0.0674953
0.0736026
0.0801924
0.0874462
0.0956611
0.105264
0.116828
0.131019
0.148011
0.165596
0.176511
0.169644
0.138259
0.0684822
0.037417
0.0421928
0.0472216
0.0525049
0.0580831
0.0640096
0.0703402
0.0771147
0.0843974
0.0923394
0.101212
0.111425
0.123556
0.138317
0.155997
0.174496
0.186351
0.179676
0.146502
0.0717284
0.037481
0.0424909
0.0477783
0.0533932
0.0593928
0.0658451
0.0728118
0.0803235
0.0884209
0.0972226
0.106967
0.118041
0.131012
0.146625
0.165275
0.184975
0.198072
0.191762
0.156453
0.0756959
0.0374928
0.0426282
0.0480702
0.053924
0.0602719
0.0672065
0.0748074
0.0831089
0.0921367
0.101981
0.112846
0.125089
0.139266
0.15615
0.176238
0.197681
0.212639
0.207134
0.169283
0.080916
0.0374533
0.0426022
0.048089
0.0540779
0.0606822
0.0680298
0.0762321
0.0853443
0.0953948
0.106458
0.118713
0.132489
0.148338
0.167068
0.189311
0.213415
0.23138
0.227681
0.18698
0.0883912
0.0373663
0.0424192
0.0478413
0.0538548
0.0606083
0.0682722
0.0770048
0.0869027
0.0980222
0.110447
0.12435
0.140056
0.158129
0.179454
0.204871
0.233081
0.256065
0.256358
0.213159
0.100156
0.0372381
0.042094
0.0473476
0.0532748
0.0600594
0.0679185
0.0770677
0.0876671
0.0998312
0.113689
0.129444
0.147452
0.168337
0.193134
0.223044
0.257439
0.288758
0.29757
0.254696
0.120998
0.0370771
0.0416486
0.0466416
0.052377
0.0590711
0.0669857
0.0763987
0.0875493
0.100641
0.11589
0.133582
0.154156
0.178367
0.207505
0.243364
0.286527
0.330956
0.356457
0.323247
0.163517
0.0368929
0.0411107
0.0457667
0.0512166
0.057703
0.0655257
0.07502
0.0865102
0.10031
0.116764
0.13629
0.159479
0.187284
0.221366
0.264345
0.318662
0.381418
0.434495
0.429253
0.251
0.0492169
0.0341472
0.037408
0.0386291
0.038484
0.0372945
0.0344659
0.0362851
0.0685559
0.100486
0.124755
0.134099
0.132802
0.137879
0.148412
0.164232
0.186984
0.209755
0.22421
0.235096
0.260452
0.287149
0.316554
0.292992
0.246913
0.213674
0.190961
0.174042
0.160554
0.149351
0.139825
0.131646
0.12459
0.118523
0.113228
0.108537
0.104316
0.100474
0.0969242
0.0936166
0.0905351
0.0876565
0.0849719
0.0824838
0.0801786
0.0780538
0.0761012
0.0743099
0.0726715
0.0711823
0.0698377
0.0686442
0.0675953
0.066694
0.0659488
0.0653497
0.0648906
0.064562
0.0643533
0.0642549
0.061029
0.547767
0.720964
0.772503
0.768739
0.712055
0.589656
0.358984
0.16045
0.519668
1.05975
1.53098
1.68596
1.79958
1.94008
2.1507
2.4641
2.84227
3.11922
3.24934
3.35069
3.76095
4.16091
3.4329
2.97298
2.62525
2.36384
2.15616
1.98292
1.83628
1.71241
1.60821
1.52044
1.44534
1.38083
1.32441
1.27377
1.22707
1.18316
1.14167
1.10276
1.06669
1.03358
1.00355
0.97682
0.953515
0.933459
0.916413
0.902307
0.891253
0.883305
0.878429
0.876755
0.878532
0.883868
0.892588
0.904329
0.918718
0.935385
0.953978
0.0694818
0.802951
1.19985
1.36206
1.40143
1.3497
1.1976
0.887223
0.320257
0.337522
0.775333
1.30628
1.74636
2.19055
2.60446
3.01361
3.41926
3.78228
4.10411
4.51818
4.90972
5.43575
5.3469
4.52111
4.14007
3.83749
3.57197
3.33291
3.11704
2.92523
2.75779
2.61312
2.48833
2.37975
2.28464
2.20015
2.1236
2.05291
1.98675
1.92469
1.86701
1.81414
1.76635
1.72388
1.68716
1.65651
1.63188
1.61305
1.60002
1.59295
1.59192
1.59679
1.6076
1.62454
1.64758
1.67633
1.71012
1.74824
1.79002
1.8345
0.0769351
0.975576
1.49964
1.75055
1.84366
1.82567
1.69992
1.42435
0.858624
0.402715
0.554509
1.01311
1.53561
2.06588
2.75945
3.46609
4.0554
4.52001
4.91154
5.25186
5.67953
6.11652
5.58778
4.947
4.58615
4.35348
4.15244
3.95409
3.75983
3.57745
3.41141
3.26251
3.1297
3.01091
2.9043
2.80807
2.72022
2.63912
2.56376
2.49387
2.42984
2.37225
2.32144
2.2777
2.24162
2.21374
2.19406
2.18235
2.17855
2.18276
2.19484
2.21433
2.24098
2.27475
2.31541
2.36229
2.41451
2.47127
2.53175
2.59436
0.0838274
1.12816
1.72795
2.02972
2.15884
2.17067
2.07939
1.86772
1.46016
0.881349
0.70664
1.01539
1.54561
2.20095
2.98963
3.82692
4.47125
4.92624
5.28951
5.64233
6.08198
6.03109
5.42182
4.94815
4.66525
4.50776
4.38402
4.25156
4.10812
3.96275
3.82188
3.68886
3.56539
3.45182
3.34773
3.25274
3.1658
3.086
3.01283
2.94621
2.88668
2.83493
2.79126
2.75585
2.72942
2.71262
2.70536
2.70723
2.71797
2.7375
2.76539
2.80074
2.843
2.89197
2.94731
3.0082
3.07373
3.14318
3.21571
3.28915
0.0902376
1.26861
1.92717
2.25772
2.40394
2.43105
2.36237
2.19909
1.9187
1.50245
1.21915
1.37708
1.87591
2.55948
3.34727
4.10452
4.66156
5.07518
5.4399
5.82831
6.44993
5.66394
5.07994
4.74164
4.56324
4.48557
4.4351
4.36928
4.28237
4.18197
4.07549
3.96847
3.86522
3.76803
3.67783
3.59493
3.51937
3.45097
3.38976
3.33586
3.28982
3.25245
3.22388
3.20406
3.19367
3.19338
3.20281
3.22132
3.24847
3.28398
3.32721
3.37693
3.43252
3.49378
3.56031
3.63132
3.70597
3.78372
3.86379
3.94338
0.0965808
1.39864
2.11502
2.46562
2.61914
2.65136
2.59444
2.45963
2.25387
1.98898
1.78678
1.88567
2.32013
2.94525
3.63405
4.25937
4.7364
5.15509
5.60808
6.12913
6.21646
5.33115
4.82377
4.55704
4.44643
4.42759
4.43121
4.41423
4.36962
4.30696
4.23426
4.15666
4.07992
4.00652
3.93803
3.87515
3.81844
3.76846
3.72584
3.69103
3.66468
3.64727
3.63857
3.63831
3.64734
3.66597
3.69346
3.72909
3.77237
3.82292
3.87993
3.94203
4.00883
4.08018
4.15566
4.23447
4.316
4.39991
4.48535
4.56884
0.103155
1.52952
2.301
2.67115
2.832
2.86885
2.82148
2.70749
2.54676
2.37136
2.25971
2.35669
2.72013
3.25103
3.82258
4.34015
4.78569
5.2477
5.81628
6.50072
5.75046
5.08956
4.67229
4.4555
4.38868
4.4115
4.44863
4.45403
4.42745
4.38855
4.34312
4.29281
4.24186
4.19354
4.14808
4.1069
4.07113
4.04191
4.02023
4.00666
4.00182
4.00599
4.01848
4.03892
4.06804
4.10586
4.15121
4.20334
4.26179
4.32615
4.39551
4.4684
4.54488
4.62485
4.7079
4.79322
4.88046
4.96945
5.05926
5.14557
0.109939
1.66231
2.49024
2.88618
3.0613
3.10953
3.0767
2.98528
2.85919
2.73705
2.68066
2.77888
3.07355
3.50252
3.97032
4.41918
4.86725
5.39164
6.06682
6.06684
5.39564
4.88602
4.556
4.40008
4.38737
4.45191
4.50644
4.50699
4.48635
4.45938
4.43044
4.40018
4.37112
4.3434
4.31787
4.29633
4.28029
4.27114
4.2699
4.277
4.29277
4.31712
4.34923
4.38859
4.43566
4.49019
4.5509
4.61699
4.68795
4.76332
4.84216
4.92335
5.00699
5.09311
5.18137
5.27116
5.36225
5.45455
5.5471
5.63469
0.117375
1.79469
2.68734
3.11868
3.31802
3.38696
3.37593
3.31007
3.21345
3.12431
3.09378
3.18038
3.41013
3.74519
4.12749
4.5337
5.002
5.60102
6.24862
5.59709
5.06296
4.66516
4.42887
4.36443
4.43257
4.53775
4.58678
4.58321
4.56078
4.53557
4.5124
4.49255
4.47852
4.46826
4.46101
4.45831
4.46174
4.47256
4.49152
4.51874
4.55413
4.59722
4.64714
4.70331
4.76578
4.83413
4.90729
4.98442
5.06498
5.14849
5.23412
5.32111
5.40956
5.49959
5.59096
5.68332
5.77652
5.87046
5.96412
6.05135
0.126225
1.92943
2.89708
3.37391
3.60723
3.7048
3.7205
3.68054
3.6063
3.53382
3.50702
3.56831
3.73622
3.99133
4.30781
4.69121
5.19243
5.86793
5.76348
5.19429
4.73827
4.43099
4.30923
4.36912
4.53027
4.65455
4.6909
4.67592
4.64276
4.61131
4.58762
4.57308
4.56915
4.57351
4.58366
4.59983
4.62296
4.6538
4.69259
4.73903
4.79262
4.85263
4.91816
4.98862
5.06383
5.14327
5.22607
5.31152
5.39909
5.48831
5.57853
5.66931
5.76077
5.85302
5.94598
6.03949
6.13348
6.22782
6.32135
6.40701
0.138098
2.07396
3.1247
3.65509
3.92967
4.05997
4.10264
4.0848
4.02354
3.95211
3.91064
3.93452
4.04307
4.23435
4.50699
4.88848
5.44137
5.98577
5.33563
4.8134
4.42419
4.22611
4.25203
4.45072
4.67357
4.79436
4.80944
4.77232
4.72149
4.67838
4.65059
4.63908
4.64354
4.6611
4.68818
4.72328
4.76612
4.81658
4.87424
4.93839
5.00822
5.08287
5.1615
5.24359
5.32889
5.4169
5.50695
5.59843
5.6909
5.78394
5.87715
5.97031
6.06353
6.15697
6.25062
6.34443
6.43841
6.53238
6.62495
6.70823
0.154529
2.24523
3.37769
3.96565
4.28508
4.44784
4.51274
4.50925
4.44972
4.36422
4.29247
4.26926
4.3224
4.46869
4.72354
5.12637
5.73511
5.54033
4.94137
4.45519
4.15411
4.10602
4.30535
4.61828
4.84579
4.93987
4.92983
4.86526
4.79128
4.73257
4.69809
4.68826
4.7006
4.73088
4.77434
4.82779
4.88949
4.95826
5.03304
5.11275
5.19644
5.28326
5.37252
5.46381
5.5569
5.65139
5.7468
5.84265
5.93858
6.03428
6.12949
6.22416
6.31842
6.41243
6.50626
6.59996
6.69355
6.7868
6.87801
6.95858
0.175547
2.46018
3.66691
4.31089
4.67401
4.86549
4.944
4.94377
4.87384
4.76076
4.64625
4.56963
4.57272
4.69466
4.96154
5.41526
5.87407
5.15205
4.56131
4.13602
3.9714
4.11791
4.48306
4.83483
5.02978
5.08408
5.03997
4.94557
4.84651
4.77041
4.72774
4.71849
4.73814
4.78047
4.83916
4.9094
4.98803
5.0729
5.16239
5.2552
5.35033
5.44705
5.54486
5.64347
5.7427
5.84229
5.94188
6.04113
6.13975
6.23752
6.33431
6.43014
6.52517
6.61956
6.71346
6.80697
6.90014
6.99263
7.0824
7.16021
0.199932
2.71803
4.00154
4.69844
5.09923
5.31308
5.39524
5.38567
5.2933
5.14252
4.97831
4.84595
4.80394
4.91823
5.21664
5.77431
5.50101
4.77626
4.20666
3.88908
3.92287
4.28629
4.75169
5.06791
5.20854
5.21295
5.12828
5.00259
4.87911
4.78604
4.73494
4.72549
4.75145
4.80447
4.87648
4.96115
5.05411
5.15242
5.25407
5.35765
5.46219
5.56711
5.67204
5.77682
5.88131
5.98534
6.08865
6.19097
6.2921
6.39189
6.49028
6.58735
6.68326
6.77822
6.87239
6.96594
7.0589
7.15082
7.23931
7.31451
0.225819
2.99622
4.37698
5.13409
5.56572
5.79247
5.87115
5.84203
5.71589
5.52402
5.31151
5.12679
5.04386
5.16034
5.48814
5.96118
5.1203
4.39361
3.89738
3.76099
4.05
4.59544
5.04979
5.29298
5.36442
5.31149
5.18343
5.02645
4.88028
4.77185
4.71277
4.70244
4.73323
4.79496
4.87786
4.97428
5.07889
5.18818
5.29986
5.41246
5.52508
5.63722
5.74862
5.85916
5.96873
6.07718
6.18432
6.28993
6.39386
6.49601
6.59638
6.69509
6.7923
6.88824
6.98313
7.07715
7.17034
7.26211
7.34963
7.42249
0.250684
3.24447
4.76581
5.61226
6.07791
6.30339
6.37868
6.32705
6.16068
5.93342
5.68112
5.4575
5.33972
5.45564
5.81423
5.58219
4.70396
4.02222
3.67858
3.80871
4.36277
4.97392
5.33559
5.4849
5.47869
5.36647
5.1956
5.00893
4.8423
4.72028
4.65372
4.64162
4.67541
4.74348
4.83473
4.94041
5.05443
5.17281
5.29308
5.4137
5.53379
5.6529
5.77077
5.88726
6.00225
6.11558
6.22708
6.33656
6.4439
6.54904
6.65202
6.75297
6.8521
6.94965
7.04587
7.14099
7.235
7.32714
7.41416
7.48507
0.284134
3.36705
5.12792
6.11941
6.63395
6.85143
6.92366
6.84508
6.66474
6.41711
6.13914
5.90441
5.77718
5.87124
6.1512
5.16274
4.28101
3.71707
3.62045
4.07566
4.80813
5.33471
5.57468
5.62197
5.53714
5.36804
5.15757
4.94408
4.75937
4.62523
4.55139
4.53643
4.57124
4.64333
4.74061
4.85347
4.97519
5.10144
5.2295
5.35778
5.48534
5.61165
5.73642
5.85942
5.98049
6.09942
6.21603
6.33015
6.44168
6.55059
6.65695
6.76092
6.86273
6.96264
7.06097
7.15793
7.2535
7.34669
7.43377
7.50318
0.344873
3.3106
5.45818
6.65967
7.21584
7.43259
7.51532
7.40435
7.24598
7.00199
6.74982
6.5524
6.44909
6.57298
5.87637
4.70717
3.91248
3.55829
3.79523
4.53925
5.26564
5.6291
5.74018
5.68855
5.53098
5.31075
5.06548
4.82866
4.62806
4.48282
4.40155
4.38258
4.41661
4.49069
4.59206
4.71046
4.83867
4.97199
5.1075
5.24343
5.37871
5.51271
5.64497
5.77519
5.90309
6.02843
6.15097
6.27059
6.38717
6.50071
6.61132
6.71917
6.82452
6.92769
7.02901
7.12871
7.22669
7.32171
7.4095
7.47791
0.401001
3.74273
5.84354
7.13589
7.73097
7.97033
7.96877
7.84291
7.69674
7.51402
7.32869
7.17605
7.14161
7.16586
5.43957
4.32981
3.70648
3.63589
4.21865
5.07866
5.62635
5.82479
5.81632
5.67733
5.45718
5.19354
4.91885
4.66207
4.44735
4.29155
4.20246
4.17843
4.21022
4.28466
4.38854
4.51115
4.64486
4.78467
4.92739
5.07106
5.21438
5.35651
5.49686
5.63495
5.7704
5.90291
6.03222
6.15816
6.28068
6.39977
6.51556
6.62825
6.73813
6.84556
6.95089
7.05434
7.15571
7.25342
7.34261
7.41054
0.381897
4.18647
6.1876
7.43944
8.0634
8.22745
8.22221
8.1607
8.12727
8.14041
8.22201
8.3571
8.35664
6.86098
5.20008
4.20485
3.746
3.97481
4.77568
5.52595
5.85435
5.90901
5.80008
5.5892
5.31799
5.01885
4.71982
4.44593
4.21828
4.05204
3.95461
3.92462
3.95299
4.02641
4.13141
4.25699
4.39527
4.54096
4.69063
4.84201
4.99355
5.14416
5.29303
5.43953
5.58316
5.72354
5.86038
5.99351
6.12286
6.24846
6.37045
6.48905
6.60457
6.7174
6.82789
6.93623
7.04201
7.14333
7.23461
7.30257
0.347072
4.403
6.55636
7.66755
8.21001
8.38469
8.43929
8.50143
8.6262
8.84741
9.15471
9.38628
8.77864
6.78729
5.2344
4.2597
3.9722
4.45991
5.26828
5.79101
5.94474
5.88636
5.69848
5.43107
5.11947
4.79184
4.47262
4.18362
3.94362
3.76672
3.66034
3.6235
3.64729
3.71833
3.82303
3.95028
4.09207
4.24292
4.39911
4.55803
4.71781
4.87708
5.03478
5.1901
5.34245
5.49134
5.63648
5.77765
5.91479
6.04794
6.17724
6.30294
6.42535
6.54486
6.66178
6.77621
6.88751
6.9933
7.08733
7.15576
0.321595
4.43377
6.72161
7.77067
8.24234
8.47504
8.64041
8.83688
9.11395
9.46502
9.77488
9.66843
8.3588
6.53594
5.10964
4.27519
4.25703
4.89705
5.58349
5.88752
5.91333
5.77139
5.52385
5.21295
4.8697
4.51903
4.18255
3.87962
3.62733
3.43924
3.32307
3.27824
3.29602
3.36304
3.46577
3.59323
3.7374
3.89261
4.05479
4.22094
4.38885
4.55682
4.72356
4.88807
5.04963
5.20769
5.3619
5.51202
5.65799
5.79983
5.9377
6.07182
6.2025
6.33008
6.45479
6.57656
6.69444
6.80551
6.90282
6.97207
0.299379
4.18413
6.59456
7.69518
8.18485
8.49541
8.77638
9.09732
9.46845
9.81829
9.9227
9.29642
7.57682
5.95738
4.74796
4.22478
4.51266
5.16914
5.69723
5.85253
5.78799
5.58388
5.29089
4.94611
4.57753
4.20759
3.85562
3.53916
3.27421
3.07409
2.94688
2.89243
2.90223
2.96313
3.06199
3.18813
3.33353
3.49226
3.65985
3.8329
4.00877
4.18543
4.36136
4.5354
4.70667
4.87455
5.03866
5.19872
5.35463
5.50643
5.65422
5.79822
5.93867
6.0758
6.2097
6.34002
6.46542
6.58241
6.68335
6.75367
0.286723
3.73065
6.2124
7.43801
8.0199
8.41002
8.77677
9.16494
9.55251
9.79843
9.58007
8.35709
6.6491
5.22644
4.3203
4.19486
4.67801
5.30736
5.67558
5.73093
5.59763
5.34385
5.01404
4.64147
4.25148
3.86439
3.49776
3.1677
2.88939
2.67602
2.53601
2.46965
2.4689
2.52129
2.61433
2.73771
2.8833
3.04481
3.21728
3.39683
3.58041
3.76571
3.95094
4.13478
4.31624
4.49463
4.66948
4.84051
5.00757
5.17067
5.32986
5.48528
5.63705
5.78523
5.92965
6.06962
6.20331
6.32662
6.43132
6.50277
0.274218
3.33414
5.70236
7.05032
7.73369
8.18237
8.58734
8.98167
9.30942
9.36234
8.7568
7.17487
5.64333
4.4781
3.97129
4.19541
4.75014
5.34545
5.5746
5.55
5.36142
5.06611
4.70488
4.30813
3.8989
3.49567
3.11453
2.77045
2.47789
2.24975
2.09478
2.01384
1.9999
2.04158
2.12717
2.24663
2.39151
2.55504
2.7317
2.91718
3.10807
3.30175
3.49622
3.69001
3.88204
4.07153
4.25794
4.44096
4.6204
4.79617
4.96826
5.13666
5.30128
5.46194
5.6181
5.76859
5.91105
6.04077
6.1491
6.22159
0.250686
3.09562
5.23845
6.6222
7.38568
7.85229
8.23004
8.55138
8.7302
8.53577
7.47438
5.93389
4.62758
3.82155
3.7527
4.18687
4.80708
5.2934
5.42141
5.32923
5.09221
4.76055
4.37147
3.95277
3.52545
3.10648
2.71063
2.352
2.04412
1.79969
1.62781
1.53057
1.50211
1.53209
1.60934
1.7238
1.86671
2.031
2.21054
2.4008
2.59798
2.79928
3.00253
3.20609
3.40877
3.60973
3.80838
4.00431
4.19727
4.38705
4.57348
4.75633
4.93525
5.10964
5.2785
5.44011
5.59144
5.72728
5.83877
5.912
0.233427
2.78344
4.80337
6.18749
6.99939
7.44366
7.71986
7.88291
7.85784
7.35695
6.02181
4.68912
3.69395
3.34578
3.63746
4.19575
4.86692
5.20445
5.23745
5.08092
4.7986
4.43367
4.01911
3.57987
3.13518
2.70072
2.29052
1.91746
1.5941
1.3331
1.14469
1.03239
0.991137
1.01054
1.07921
1.18694
1.32514
1.48675
1.66592
1.85801
2.05913
2.26625
2.47691
2.68931
2.90219
3.11457
3.32577
3.5353
3.74272
3.94767
4.14974
4.34834
4.54272
4.73181
4.91398
5.08683
5.24671
5.38792
5.50171
5.57513
0.217759
2.42359
4.34461
5.71772
6.53739
6.91864
7.02648
6.99365
6.76166
5.89445
4.61298
3.5381
2.96432
3.08862
3.60916
4.28105
4.88035
5.07545
5.02349
4.80856
4.48465
4.08919
3.65104
3.19247
2.7313
2.28291
1.85979
1.47382
1.13753
0.864836
0.668222
0.551554
0.506423
0.518731
0.576495
0.671298
0.796876
0.947812
1.11919
1.30656
1.50606
1.71444
1.9291
2.14792
2.36953
2.59244
2.81591
3.03921
3.26168
3.48265
3.70128
3.91659
4.12723
4.33149
4.52705
4.71076
4.87827
5.02355
5.13821
5.21077
0.195581
2.09699
3.90371
5.22109
5.9723
6.22325
6.14218
5.96834
5.53719
4.43516
3.35194
2.62107
2.54694
3.02688
3.68111
4.43066
4.83719
4.91245
4.78269
4.51448
4.1526
3.72926
3.26925
2.79292
2.31799
1.85799
1.42495
1.03148
0.69303
0.42982
0.259084
0.174552
0.147637
0.155759
0.191053
0.253462
0.344368
0.463655
0.60902
0.776825
0.962903
1.16337
1.37484
1.59467
1.82075
2.05148
2.28557
2.52201
2.75936
2.99661
3.23223
3.46461
3.69167
3.91095
4.1193
4.31276
4.48629
4.63351
4.74663
4.81635
0.180728
1.91664
3.56323
4.74534
5.34609
5.38997
5.1852
4.94636
4.22791
3.17769
2.35381
2.06442
2.44369
3.10795
3.84265
4.50745
4.75123
4.72048
4.51824
4.20044
3.80388
3.35511
2.87538
2.3848
1.89914
1.43156
0.995827
0.610108
0.304078
0.117267
0.0473271
0.0318745
0.0294672
0.0304928
0.0359644
0.0501327
0.0795824
0.132371
0.215142
0.330309
0.475919
0.647526
0.840189
1.04948
1.27182
1.50441
1.74497
1.99149
2.24202
2.49448
2.74652
2.99554
3.23836
3.47167
3.69137
3.89264
4.06959
4.2154
4.32271
4.38523
0.171342
1.9004
3.35898
4.33687
4.71313
4.55021
4.31106
3.93889
3.02173
2.17054
1.70099
1.89151
2.5463
3.28003
4.05804
4.52586
4.62054
4.49486
4.22843
3.8665
3.43909
2.96774
2.47222
1.9712
1.47938
1.0121
0.590728
0.254757
0.0681285
0.0270553
0.0345544
0.0390768
0.039428
0.0379595
0.0348175
0.0302325
0.0265488
0.0283729
0.0416038
0.0749035
0.138685
0.239841
0.378682
0.550734
0.750034
0.970945
1.20873
1.45923
1.71864
1.98325
2.24928
2.51273
2.76937
3.01462
3.24331
3.44944
3.62605
3.76528
3.85913
3.9038
0.161564
1.88926
3.19294
3.94836
4.07114
3.76299
3.50181
2.84143
2.02392
1.45556
1.42784
1.99946
2.74482
3.50546
4.22331
4.46802
4.43819
4.23425
3.91346
3.51337
3.05908
2.56902
2.06271
1.55618
1.06605
0.615741
0.25136
0.0557776
0.0281681
0.0415586
0.04366
0.0435427
0.0432207
0.0428944
0.0425298
0.0419542
0.040712
0.0378335
0.0324576
0.0272104
0.0292892
0.0473493
0.0935492
0.180701
0.314377
0.491378
0.703926
0.943448
1.20189
1.47202
1.74723
2.02133
2.28834
2.54213
2.77617
2.98311
3.15438
3.27983
3.34764
3.34806
0.14873
1.7804
2.9379
3.45543
3.34964
3.01338
2.62471
1.87598
1.28296
1.08735
1.49461
2.23684
2.98397
3.76357
4.25415
4.34243
4.21375
3.94347
3.57579
3.1424
2.66494
2.16193
1.65017
1.14588
0.67268
0.278364
0.0584468
0.0290485
0.0434403
0.0445599
0.0441446
0.0437014
0.0433257
0.0430181
0.0427748
0.0425912
0.042454
0.0423152
0.042017
0.0410718
0.0382273
0.0323022
0.0278102
0.0358252
0.0705741
0.150918
0.288964
0.481396
0.715176
0.9757
1.25021
1.52806
1.80015
2.05805
2.2933
2.4966
2.65694
2.76034
2.78692
2.70171
0.134732
1.5926
2.54248
2.78703
2.52824
2.27773
1.7048
1.14431
0.858636
1.07755
1.76195
2.50653
3.24461
3.95282
4.19737
4.16176
3.95249
3.62552
3.21702
2.75461
2.25909
1.74943
1.23996
0.751697
0.329041
0.0719817
0.0279971
0.0442281
0.0453151
0.0447983
0.0442722
0.0437979
0.0433885
0.0430451
0.0427669
0.0425531
0.0424014
0.0423101
0.0422801
0.0423009
0.0423184
0.04214
0.0410453
0.0370982
0.0305131
0.0332374
0.0651026
0.151995
0.308746
0.524425
0.776604
1.04484
1.31332
1.56929
1.80115
1.99682
2.14202
2.21774
2.19431
2.01192
0.126842
1.39888
2.04218
2.05121
1.81991
1.51492
1.01018
0.700767
0.776035
1.34392
2.07498
2.77986
3.52192
3.99007
4.06844
3.93242
3.65585
3.28086
2.83754
2.35089
1.84491
1.33629
0.84186
0.398005
0.0978833
0.0261727
0.0443087
0.0460577
0.0455443
0.0449712
0.0444367
0.0439521
0.0435193
0.0431436
0.042827
0.0425695
0.0423714
0.0422343
0.042158
0.042143
0.042195
0.0423232
0.0425145
0.0426753
0.0423545
0.0396911
0.0329967
0.0356285
0.0755406
0.183815
0.365529
0.594985
0.843012
1.08719
1.30994
1.49495
1.624
1.67298
1.6043
1.34574
0.144184
1.25718
1.5361
1.49963
1.29624
0.858406
0.573339
0.57458
1.01656
1.70099
2.369
3.05813
3.72171
3.93051
3.87682
3.65792
3.32485
2.90982
2.43809
1.93492
1.42689
0.931205
0.476017
0.137546
0.0258937
0.0428796
0.0464153
0.0461192
0.0456361
0.0451331
0.0446325
0.0441563
0.0437152
0.0433165
0.0429655
0.0426658
0.0424199
0.0422298
0.0420978
0.0420287
0.0420273
0.0420959
0.0422414
0.0424873
0.0428531
0.0432786
0.0433327
0.0408987
0.0343732
0.0425479
0.100022
0.231235
0.420302
0.631556
0.834575
1.00521
1.12029
1.15198
1.06005
0.777837
0.180457
1.03644
1.16687
1.08044
0.690206
0.450521
0.440382
0.792245
1.40877
2.02082
2.64811
3.34762
3.74544
3.78531
3.62869
3.34137
2.96117
2.51365
2.02038
1.51153
1.01306
0.551562
0.186623
0.030341
0.0384499
0.0456471
0.0458989
0.0457487
0.0454765
0.0451314
0.0447464
0.0443377
0.0439289
0.0435357
0.0431697
0.0428398
0.0425525
0.0423132
0.042127
0.0419979
0.041929
0.041927
0.0420053
0.0421781
0.0424561
0.0428675
0.0434598
0.0441899
0.0445202
0.0419242
0.0365476
0.0525825
0.12178
0.249165
0.403609
0.547301
0.648103
0.675579
0.595268
0.368418
0.250934
0.875366
0.731599
0.462383
0.32227
0.361715
0.675629
1.20797
1.75006
2.30291
2.9273
3.48992
3.65443
3.56999
3.33065
2.98616
2.56733
2.09491
1.59112
1.08879
0.619941
0.23682
0.0410914
0.0307275
0.043319
0.0443242
0.0446474
0.0448148
0.0448457
0.0447626
0.0445853
0.0443362
0.0440384
0.0437145
0.043383
0.0430594
0.042756
0.0424827
0.0422479
0.042059
0.0419239
0.0418522
0.0418528
0.0419339
0.0421117
0.0424149
0.042871
0.0435108
0.0443976
0.0455068
0.0463134
0.0445482
0.0406764
0.0545438
0.104038
0.17858
0.245116
0.268854
0.223957
0.110471
0.176096
0.280875
0.225306
0.245295
0.373546
0.666905
1.09212
1.54849
2.03543
2.57879
3.1888
3.4761
3.48376
3.2958
2.9858
2.5937
2.14532
1.65763
1.15871
0.682546
0.284604
0.0572339
0.0228323
0.0400033
0.0418875
0.0424121
0.0428727
0.0432746
0.0435903
0.043804
0.0439108
0.0439154
0.0438304
0.0436733
0.0434628
0.0432178
0.0429551
0.0426902
0.0424375
0.0422103
0.042021
0.0418805
0.0417987
0.0417882
0.0418659
0.0420491
0.0423557
0.0428201
0.0434849
0.0443863
0.0455941
0.0471197
0.0487557
0.0495783
0.0483315
0.0483644
0.0535714
0.056878
0.0501448
0.0414791
0.0366955
0.0405109
0.044773
0.0498603
0.0560346
0.0636227
0.0730037
0.084578
0.0987747
0.116088
0.137117
0.162648
0.193891
0.232915
0.283234
0.349441
0.432833
0.519381
0.555883
0.400408
0.0364887
0.0398737
0.0437003
0.0483616
0.0541312
0.0613506
0.0704245
0.0818063
0.0960242
0.113723
0.135696
0.162959
0.196976
0.240153
0.296623
0.37247
0.471871
0.582445
0.644877
0.524185
0.036279
0.0392108
0.0425709
0.0467551
0.052041
0.0587728
0.0673586
0.0782719
0.0921006
0.109607
0.131759
0.159786
0.195363
0.241052
0.301056
0.381532
0.486827
0.604986
0.684049
0.591515
0.0360745
0.0385482
0.041429
0.0451043
0.0498486
0.0559991
0.0639484
0.0741538
0.0872062
0.103915
0.125352
0.152897
0.188349
0.234235
0.294344
0.373868
0.476281
0.592267
0.681637
0.670944
0.0358823
0.0379109
0.0403195
0.0434762
0.0476457
0.0531513
0.0603587
0.0696824
0.081661
0.0970608
0.116947
0.142726
0.176209
0.219765
0.27659
0.35068
0.44467
0.552618
0.649754
0.695688
0.0357081
0.0373203
0.0392814
0.0419316
0.0455204
0.0503515
0.0567589
0.0651042
0.0758415
0.0896184
0.107366
0.130362
0.160282
0.199249
0.249892
0.315208
0.397246
0.493142
0.589874
0.663856
0.0355561
0.0367929
0.0383451
0.0405195
0.0435469
0.0477075
0.053302
0.060644
0.0701041
0.0821807
0.0975811
0.117306
0.142718
0.175572
0.217977
0.272207
0.339966
0.420448
0.507617
0.589318
0.0354288
0.0363393
0.0375299
0.0392723
0.0417786
0.0453027
0.0501111
0.0564808
0.0647251
0.0752186
0.0884368
0.105026
0.125895
0.152275
0.185697
0.227842
0.280126
0.342812
0.413698
0.487416
0.0353277
0.0359642
0.036842
0.038202
0.040242
0.0431887
0.0472739
0.0527441
0.0598877
0.069019
0.0804511
0.0945194
0.11166
0.132497
0.157879
0.188827
0.226338
0.271
0.32241
0.378707
0.0352535
0.0356653
0.0362707
0.0372979
0.0389381
0.0413863
0.0448387
0.0495192
0.0557112
0.0637104
0.0737494
0.0859738
0.100482
0.117393
0.136912
0.159359
0.185172
0.214788
0.248452
0.286034
0.0352083
0.0354308
0.0357827
0.0365089
0.0377621
0.0396604
0.0423156
0.0458352
0.0503772
0.0561372
0.0632861
0.0719351
0.0821383
0.0939063
0.10722
0.122172
0.13917
0.159114
0.183517
0.214293
0.0345566
0.0349234
0.033837
0.0313837
0.0270891
0.0218387
0.0172613
0.0143657
0.0137448
0.0158002
0.0209306
0.0297032
0.0429161
0.0619786
0.0892415
0.127123
0.178127
0.241852
0.315163
0.398478
0.00475425
0.00611575
0.00627119
0.0123182
0.0235717
0.0389923
0.0571869
0.0774946
0.100215
0.126083
0.156023
0.190663
0.230269
0.278859
0.338811
0.408049
0.48174
0.555782
0.631913
0.723375
0.134244
0.102887
0.12425
0.142219
0.162437
0.185836
0.212042
0.241105
0.273294
0.308827
0.347115
0.38685
0.428604
0.495151
0.579794
0.669246
0.75511
0.827947
0.895787
0.997378
0.113727
0.162517
0.199678
0.234878
0.268356
0.301035
0.334606
0.370192
0.408421
0.449047
0.489743
0.526542
0.568451
0.630979
0.6941
0.758085
0.817109
0.864063
0.911105
0.969662
0.0892015
0.152779
0.190719
0.227221
0.264514
0.301558
0.338251
0.374948
0.411917
0.449012
0.48593
0.524443
0.569971
0.618892
0.659801
0.692443
0.716189
0.73113
0.745377
0.761997
0.0566551
0.111402
0.150231
0.187585
0.225191
0.262122
0.297846
0.332326
0.365673
0.398058
0.430044
0.463004
0.497575
0.529871
0.554043
0.567922
0.57164
0.566975
0.557476
0.544126
0.0300073
0.0574508
0.0875048
0.122088
0.157212
0.192078
0.225305
0.25653
0.28573
0.313038
0.33873
0.363018
0.385169
0.402767
0.41277
0.413351
0.404424
0.38739
0.364294
0.336161
0.0147792
0.0200581
0.0358962
0.0568161
0.0812466
0.107633
0.134193
0.159373
0.182573
0.203487
0.221899
0.237464
0.249351
0.256053
0.255884
0.247846
0.232137
0.210103
0.183718
0.154832
0.00802103
0.00919307
0.0207445
0.0254746
0.0327422
0.0436504
0.0569498
0.0710276
0.0846243
0.0968664
0.107061
0.11457
0.118678
0.118593
0.113735
0.104181
0.0909289
0.0757913
0.0609065
0.0481282
0.00566302
0.00815849
0.0258767
0.0298326
0.0280817
0.0272205
0.0278913
0.0299402
0.0328063
0.0358347
0.0384325
0.040122
0.0405866
0.0397434
0.0378422
0.0355037
0.0335753
0.0327898
0.0333855
0.0349688
0.00578504
0.00853894
0.0285056
0.0345618
0.0342248
0.0337103
0.0331354
0.0325495
0.0320702
0.0317946
0.0317772
0.0320378
0.0325812
0.0333968
0.0344314
0.0355676
0.0366469
0.0375365
0.0381793
0.038589
0.00736402
0.0107096
0.0319883
0.0351883
0.035058
0.0350028
0.0349839
0.0349815
0.0350052
0.035072
0.0351992
0.0353981
0.0356689
0.0359963
0.0363513
0.0366975
0.0370018
0.0372429
0.0374144
0.0375208
0.00848378
0.0195156
0.0349637
0.0352249
0.0351301
0.0351114
0.0351125
0.0351238
0.0351477
0.0351885
0.035251
0.0353385
0.0354512
0.0355848
0.0357303
0.0358753
0.0360078
0.0361188
0.0362032
0.0362596
0.0579184
0.0758294
0.0855183
0.0946482
0.102581
0.108427
0.11184
0.11333
0.113215
0.112192
0.111291
0.110013
0.108668
0.107661
0.107622
0.244961
0.293115
0.45898
0.620792
0.723617
0.769392
0.787114
0.786973
0.774488
0.75335
0.726173
0.695453
0.663129
0.630424
0.597832
0.456158
0.298906
0.341696
0.453855
0.562339
0.622509
0.639455
0.634214
0.619056
0.600542
0.582128
0.566082
0.554818
0.552193
0.565254
0.559286
0.453509
0.389513
0.373012
0.379727
0.397224
0.421328
0.446263
0.470512
0.494141
0.518032
0.544579
0.578526
0.627247
0.699296
0.649864
0.582953
0.537286
0.514409
0.510861
0.520459
0.53715
0.558625
0.582229
0.606958
0.634929
0.671724
0.724749
0.79873
0.892525
0.690181
0.677375
0.660323
0.654354
0.661299
0.674372
0.687543
0.70037
0.71409
0.733004
0.764129
0.813324
0.880572
0.964543
1.07358
0.653238
0.692637
0.715299
0.733542
0.75185
0.765223
0.773974
0.782157
0.796825
0.825213
0.869561
0.929953
1.01555
1.1403
1.30922
0.559154
0.621863
0.670901
0.708466
0.734737
0.75297
0.770019
0.793633
0.827971
0.875454
0.947738
1.06127
1.22088
1.42013
1.64961
0.439164