/*--------------------------------*- C++ -*----------------------------------*\
| =========                 |                                                 |
| \\      /  F ield         | OpenFOAM: The Open Source CFD Toolbox           |
|  \\    /   O peration     | Version:  v1912                                 |
|   \\  /    A nd           | Website:  www.openfoam.com                      |
|    \\/     M anipulation  |                                                 |
\*---------------------------------------------------------------------------*/
FoamFile
{
    version     2.0;
    format      ascii;
    class       volScalarField;
    location    "28";
    object      p;
}
// * * * * * * * * * * * * * * * * * * * * * * * * * * * * * * * * * * * * * //

dimensions      [1 -1 -2 0 0 0 0];


internalField   nonuniform List<scalar> 
20320
(
419564
429818
429845
429897
429969
430057
430160
430275
430399
430530
430663
430797
430928
431052
431168
431272
431362
431436
431492
431529
399641
409554
409589
409644
409716
409806
409909
410025
410149
410280
410414
410548
410679
410803
410918
411021
411109
411179
411230
411261
380317
389918
389954
390009
390082
390172
390276
390391
390516
390646
390780
390913
391043
391166
391280
391382
391468
391537
391588
391621
361592
370894
370930
370984
371057
371145
371248
371363
371487
371617
371749
371881
372009
372130
372242
372341
372427
372496
372548
372584
343454
352465
352499
352553
352624
352712
352813
352926
353048
353176
353307
353436
353562
353681
353790
353887
353971
354039
354093
354132
325890
334615
334649
334701
334771
334856
334955
335065
335185
335310
335437
335564
335687
335803
335909
336003
336084
336152
336206
336246
308887
317332
317365
317415
317482
317564
317660
317766
317881
318002
318126
318248
318367
318479
318581
318671
318749
318814
318867
318908
292432
300604
300635
300683
300746
300824
300915
301016
301125
301240
301357
301473
301586
301692
301788
301872
301945
302007
302058
302098
276514
284418
284447
284491
284550
284622
284706
284799
284900
285006
285114
285221
285325
285421
285509
285585
285651
285707
285755
285793
261121
268763
268789
268829
268881
268946
269021
269104
269194
269288
269383
269477
269566
269649
269723
269787
269842
269890
269931
269966
246243
253627
253649
253683
253729
253784
253847
253917
253992
254069
254147
254221
254291
254354
254409
254454
254491
254525
254557
254584
231870
239001
239019
239047
239083
239126
239175
239229
239284
239340
239393
239441
239483
239517
239542
239558
239570
239582
239598
239611
217991
224875
224888
224907
224932
224962
224994
225026
225058
225085
225106
225120
225123
225115
225096
225069
225040
225017
225006
224995
204596
211236
211243
211254
211266
211280
211291
211300
211301
211294
211275
211242
211192
211125
211043
210951
210857
210777
210722
210670
191676
198078
198079
198080
198079
198074
198063
198043
198010
197961
197892
197799
197679
197532
197359
197167
196973
196799
196668
196542
179222
185390
185384
185375
185359
185334
185298
185247
185176
185079
184950
184785
184576
184321
184020
183681
183325
182993
182724
182468
167222
173161
173149
173129
173098
173053
172991
172907
172794
172644
172449
172198
171881
171488
171013
170460
169849
169240
168712
168200
155665
161381
161362
161332
161286
161222
161134
161016
160860
160656
160389
160045
159604
159045
158348
157496
156495
155400
154349
153283
144540
150039
150015
149974
149914
149831
149719
149570
149373
149114
148777
148337
147766
147025
146066
144834
143273
141365
139219
136775
133834
139123
139093
139044
138971
138871
138737
138559
138325
138018
137616
137088
136393
135473
134245
132592
130338
127236
122945
116740
111186
114742
115193
115722
116587
118175
121078
124687
118213
105609
101032
99600
99124.3
98748.4
98511.2
98385.9
98926.3
98612.8
97448.1
97046.4
98152.9
98012
98053.3
178992
259519
209173
158215
117429
87017.9
65736.3
51579.7
42540.4
36932.8
33494.8
31445.2
30219.7
29480.4
29039.9
28777.6
28617.3
28515
28441.1
28377.2
28317.2
28270
28246.7
28242.7
28250.5
28268
28295.8
28333.8
28376.1
28416.9
28457.5
28498.5
28534.9
28560.7
28572.1
28566.3
28546.5
105546
109058
109519
110128
111069
112649
115262
118465
114970
103186
99603.5
97697.2
97517
97471.7
97448.6
97433
97376.9
97152.9
96566.1
96288.1
96261
96469.7
96677
126206
204106
179610
141252
105932
78308.6
58601.5
45389.5
36920.9
31689.8
28401.1
26403.8
25182
24430.1
23973.4
23704.8
23547.5
23450.8
23382.7
23322.9
23264.2
23214.1
23182.9
23168.9
23168.1
23179
23201.8
23237.2
23281
23327.1
23373.8
23419.5
23460.1
23489.1
23503.3
23501
23479.1
99584.3
103402
103920
104698
105740
107111
109020
111072
109944
101681
98863.2
97787.7
97557.3
97489.1
97451.2
97424.2
97369.8
97177.9
96711.9
96366.5
96259.4
96371.2
96459.9
140204
169263
153530
123670
93152
68278
50327.3
38302.8
30622.7
25852.7
22919.8
21106.3
19973.8
19261.8
18819.6
18558.6
18406.6
18313.6
18249.7
18191
18127.4
18070.3
18035.9
18017.1
18009.7
18013.9
18030.8
18063.7
18107.5
18154.6
18204.6
18255.3
18301.3
18333.2
18349.4
18348.1
18319.9
93536.9
97471.6
98326.7
99130
99970.7
101114
102638
104133
104050
100112
97576.4
97547.2
97550.4
97492.1
97455.3
97427.6
97394.6
97001.1
96038.6
96327.5
96181.8
96256.6
97539.2
130946
139183
128180
104226
77972.6
56008.8
40224.4
29816.2
23295.1
19325.2
16907.8
15405.4
14459.1
13853.1
13467.9
13244
13113.8
13030.5
12977.5
12925.3
12853.5
12782.9
12752.4
12737.6
12729.5
12729.3
12742
12777
12823.6
12869.5
12921.5
12979
13034.4
13070.5
13089.1
13090.8
13060.1
87497.8
91472.6
92521.7
93242.1
93989.1
94987.9
96313.1
97695.7
98169
96801.6
95189.8
95253.2
97319.8
97481.3
97452.7
97431
97393.1
94017.6
93161.2
96002.5
96029.8
96257.1
101663
109453
112094
102622
82639.6
60080.2
41244.6
28156.4
19871.9
14908.3
12034.1
10352.7
9301.74
8633.8
8199.62
7910.87
7760.25
7671.58
7604.21
7573.64
7539.22
7455.54
7356.06
7340.61
7340.17
7336.24
7331.83
7340.12
7382.8
7436.97
7477.77
7529.98
7597.15
7668.71
7707.82
7728.57
7737.7
7708.12
81793.2
85757.9
86525.9
87142.8
87828.9
88745.3
89939.8
91278.3
92217
92225.8
92038.5
92247.2
94302.2
97321.8
97448.3
97439.3
96806.2
91961.8
94756.2
93912.6
95639.8
95472.8
91545.7
89689.7
87480.9
77333.7
59394.6
39687.8
23812.5
13714.8
8051.96
5203.1
3864.99
3201.64
2807.43
2553.35
2371.7
2217.61
2192.35
2172.39
2100.15
2106.18
2125.85
2029.91
1824.59
1845.22
1865.53
1870.8
1865.65
1869.71
1955.81
2034.41
2046.69
2074.54
2129.08
2213.58
2239.91
2256.73
2292.59
2258.74
75807.2
79610.7
80168.6
80968.3
81550.7
82358.2
83476.9
84791.2
86069.9
86923.5
87758.7
88714.7
90222.7
93533.2
96632.2
96132
90769.6
89797.9
91468.6
90994.6
92843.9
86603.9
77642.6
71591.4
64815
52758.7
35001.9
15871.3
3172.04
577.504
43.2976
-16.9916
-5.0032
-11.6252
-16.0686
-19.1134
-21.3496
-22.8452
-24.2347
-25.6754
-26.4557
-27.1538
-27.6961
-27.9764
-27.2015
-27.183
-27.0603
-27.002
-26.9946
-26.8692
-27.0438
-27.2254
-27.0822
-26.8819
-26.5617
-26.3927
-25.9361
-25.3644
-25.0519
-24.5103
69602.6
73214.3
74337.7
74809.1
75219.9
76055
77081.6
78220.5
79746
81411.1
82943.1
84421.2
85840.1
87824.1
89416.8
88104.2
86976.3
86965.2
87195.8
88048.5
85940.3
74252.1
64042.1
54450.1
43844.6
28892.8
8028.03
66.9778
43.4755
28.4935
15.9705
7.45228
-4.31085
-11.5279
-16.4759
-20.1928
-23.0283
-25.2129
-26.9955
-28.5309
-29.7348
-30.6871
-31.4552
-32.0481
-32.0249
-32.1637
-32.3263
-32.4821
-32.605
-32.6823
-32.7896
-32.9164
-32.8805
-32.7531
-32.5544
-32.3186
-31.9572
-31.4964
-31.038
-30.5745
63388.2
67169.9
68087.2
68546.4
69376.2
70193.1
71139.9
72347.7
73720.7
75441.7
77434.3
79336.8
81020.4
82626.7
83949.6
83818.8
83274.8
83538
76814.5
79487.1
73540.8
62449.5
50523.1
38222.5
24299.5
4846.31
75.1286
44.1958
29.8871
14.2117
2.23486
-6.16027
-13.4621
-19.2514
-23.5138
-26.7713
-29.3153
-31.3359
-33.0073
-34.4406
-35.6012
-36.5224
-37.2509
-37.7615
-38
-38.1671
-38.3312
-38.4919
-38.6224
-38.7127
-38.817
-38.9094
-38.8861
-38.7621
-38.5572
-38.2924
-37.9225
-37.462
-36.9755
-36.4648
57184.1
61235.2
61577.3
62003.1
62878.4
63584.7
64427.6
65603
67199
69094.3
71481.8
73832
75849.3
77496.1
78634.8
79129.6
79186.2
79734.2
81180
73619.8
62998.3
50707.4
37317.6
22861.5
5452.52
69.0293
29.5338
25.0785
11.6007
-0.256867
-9.74135
-16.831
-22.4263
-27.0104
-30.5632
-33.3726
-35.6283
-37.4739
-39.033
-40.3807
-41.5031
-42.4129
-43.1429
-43.6843
-44.0005
-44.2209
-44.4185
-44.5991
-44.7431
-44.8509
-44.9498
-45.0214
-45.0016
-44.8848
-44.6847
-44.4069
-44.0311
-43.5648
-43.0409
-42.4736
51291.5
55159.5
55011.7
55748.7
56589.9
57194.1
57973.8
59074.4
60353.9
62316.6
65172.5
67945.1
70472.7
72272.3
73567.7
74759.6
73817.1
73701.1
72287.5
63696.5
52424.4
39165
24534.9
7342.62
26.0902
15.2374
12.3871
2.98953
-6.03557
-14.6712
-21.9312
-27.5353
-31.8248
-35.2934
-38.1004
-40.4039
-42.3195
-43.9446
-45.3581
-46.5969
-47.653
-48.5293
-49.2443
-49.7888
-50.1575
-50.425
-50.6512
-50.8451
-50.9961
-51.1116
-51.2069
-51.2643
-51.2427
-51.1298
-50.9317
-50.6465
-50.2626
-49.7817
-49.2224
-48.5955
45815.9
49262
48873.4
49922.3
49991.7
50296.9
50960.7
52085.9
53857.3
55873.3
58557.5
61781
64740.9
67186
68698.8
69672.8
73049.5
81800.2
66686.6
54712.2
42122.7
27895.2
11661.7
199.335
6.72934
-0.68573
-8.51616
-15.5647
-22.1724
-28.5189
-33.9136
-38.1127
-41.2824
-43.8242
-45.9432
-47.7472
-49.3127
-50.6973
-51.9396
-53.0523
-54.0222
-54.8448
-55.528
-56.0688
-56.4671
-56.7688
-57.0174
-57.2184
-57.3738
-57.4939
-57.5858
-57.6338
-57.6098
-57.5003
-57.3037
-57.0137
-56.6203
-56.1221
-55.5289
-54.8442
39716.3
43336.7
43166.3
43557.7
43352
43405.6
43889.3
44838.1
46469.9
49087.2
51761.2
55128
58920
62095.1
63028.5
64130.1
69798.9
70809.2
58865.9
45891.9
32078.8
16740.8
1221.36
-10.6743
-14.6841
-20.3548
-26.1454
-31.6225
-36.6919
-41.4162
-45.3595
-48.3808
-50.64
-52.4408
-53.9713
-55.3259
-56.5576
-57.6969
-58.7555
-59.7277
-60.5965
-61.3517
-61.9929
-62.5166
-62.9272
-63.2505
-63.5107
-63.714
-63.8721
-63.9963
-64.087
-64.1295
-64.1034
-63.9976
-63.803
-63.5091
-63.1065
-62.5914
-61.9669
-61.2275
33481.2
37144.3
37764
36931.3
36684.8
36651.8
36803.5
37589.7
38872.3
41157.1
44398.1
48457.2
52735.9
56077.7
59695.9
58012
72584
62813.6
50660.8
36995.1
22189.9
5278.4
-9.44989
-26.401
-32.0266
-36.9551
-41.4928
-45.7527
-49.7694
-53.3144
-56.141
-58.2486
-59.8006
-61.026
-62.084
-63.0588
-63.9905
-64.8939
-65.7669
-66.5934
-67.3537
-68.0339
-68.6259
-69.1247
-69.533
-69.8623
-70.1248
-70.3291
-70.4905
-70.6182
-70.7087
-70.7492
-70.7242
-70.6219
-70.4296
-70.1333
-69.7234
-69.1939
-68.5415
-67.7535
27394.2
30889.2
31480.4
29898.1
30075.2
28959
29318
30623.5
30505.2
32005
36044
41069.6
45452.7
49961
54742.1
54401.5
66365.8
54729.2
42135.8
28014
12062.3
190.889
-38.1839
-42.0244
-47.3394
-51.441
-55.0304
-58.4936
-61.6618
-64.2769
-66.2663
-67.6971
-68.7212
-69.5145
-70.207
-70.8732
-71.5464
-72.2357
-72.9333
-73.6184
-74.2703
-74.8727
-75.411
-75.8777
-76.2716
-76.5953
-76.856
-77.0625
-77.2285
-77.3595
-77.4518
-77.4939
-77.4719
-77.3739
-77.1843
-76.8878
-76.4732
-75.9329
-75.2562
-74.4269
21485.6
24625.4
24751
25035.7
24473.2
22024
23613.8
23485.6
24108.4
26983.7
29536.7
33006.5
37549.3
42196
47909.3
61708.5
54341.5
45993.9
33469.9
18983
2641.77
-43.9979
-51.4793
-56.5889
-60.9424
-64.3206
-67.3355
-70.1464
-72.5613
-74.4486
-75.821
-76.7637
-77.4052
-77.8804
-78.2962
-78.7184
-79.1777
-79.6819
-80.2215
-80.776
-81.3259
-81.8506
-82.333
-82.7626
-83.1341
-83.4461
-83.704
-83.9139
-84.0849
-84.2202
-84.3158
-84.3619
-84.3453
-84.2521
-84.0669
-83.7728
-83.3574
-82.8094
-82.1135
-81.2507
15573.4
17830.4
18751.7
20772.8
19010.5
18124.7
17632.5
16133.9
19469.8
21720.9
22877.6
25072
29266.9
31716.5
38809.2
49360.9
47658.9
37465.9
24929.3
9666.49
56.3299
-59.5244
-64.7601
-69.7537
-73.3093
-76.1713
-78.6948
-80.8902
-82.6692
-83.9979
-84.9204
-85.5144
-85.8806
-86.1232
-86.3324
-86.566
-86.8545
-87.205
-87.6084
-88.0481
-88.5041
-88.9543
-89.3811
-89.771
-90.1168
-90.4154
-90.6696
-90.8821
-91.0579
-91.1985
-91.2991
-91.3516
-91.3416
-91.2551
-91.0765
-90.7877
-90.3752
-89.8238
-89.1146
-88.2272
14366.9
14528.9
15987.8
15467
13145.2
14217.6
12912.3
13139.8
13259.4
13270.3
14199.5
14682.7
19912.4
20842
57558.7
48051.3
39941
29437.1
16635.5
1699.39
-71.3605
-72.997
-77.8635
-81.8821
-84.847
-87.2537
-89.2694
-90.9127
-92.1791
-93.0855
-93.678
-94.0176
-94.183
-94.2573
-94.3139
-94.4061
-94.5625
-94.7892
-95.0805
-95.4215
-95.7938
-96.1748
-96.5479
-96.8991
-97.2193
-97.504
-97.7522
-97.9653
-98.1456
-98.2923
-98.4
-98.4596
-98.4581
-98.3811
-98.2113
-97.9316
-97.5255
-96.9745
-96.2599
-95.3561
14391
14402.9
12872.1
12009.3
12101.1
11897.2
12225.9
12272.7
12323.9
12363.1
12401.3
12769.8
13308.6
17529.7
39140.5
42130.6
32313.5
21834.4
8441.61
11.4201
-81.4697
-85.9125
-90.1144
-93.32
-95.7661
-97.6929
-99.2191
-100.395
-101.259
-101.843
-102.185
-102.335
-102.352
-102.305
-102.252
-102.241
-102.298
-102.429
-102.63
-102.888
-103.187
-103.506
-103.83
-104.145
-104.441
-104.711
-104.951
-105.164
-105.348
-105.501
-105.616
-105.684
-105.693
-105.628
-105.47
-105.203
-104.807
-104.262
-103.548
-102.638
14478.6
14327.3
12855.8
11858
11957.4
12148.3
12188.8
12240.3
12303.2
12361.3
12449.6
12689.7
13096.2
15038.5
29435
33673.3
24690.8
14568.8
1708.97
-98.1961
-94.7228
-98.396
-101.681
-104.232
-106.152
-107.604
-108.695
-109.489
-110.035
-110.367
-110.514
-110.518
-110.427
-110.292
-110.161
-110.078
-110.062
-110.121
-110.251
-110.442
-110.68
-110.945
-111.226
-111.508
-111.78
-112.033
-112.266
-112.477
-112.663
-112.821
-112.944
-113.022
-113.043
-112.992
-112.85
-112.599
-112.217
-111.683
-110.977
-110.069
16364.4
13879.3
12089.1
12085.5
12062
12105.4
12160.1
12211
12272.2
12337.5
12396.8
12543.7
12751.5
12430.6
20160.6
23124.2
17170.7
7594.09
13.5068
-104.604
-107.207
-110.184
-112.728
-114.672
-116.079
-117.101
-117.825
-118.309
-118.601
-118.731
-118.725
-118.617
-118.445
-118.248
-118.066
-117.933
-117.865
-117.871
-117.947
-118.084
-118.271
-118.491
-118.734
-118.986
-119.235
-119.473
-119.696
-119.905
-120.092
-120.255
-120.384
-120.472
-120.507
-120.472
-120.349
-120.118
-119.755
-119.238
-118.547
-117.651
15835.8
12320.6
12088.3
12078
12064.3
12079
12134.7
12192.4
12225
12248.3
12318.2
12412.4
12506.9
12235.8
13472.1
14691.7
10414
1920.1
-107.662
-117.042
-118.963
-121.361
-123.296
-124.666
-125.621
-126.28
-126.701
-126.936
-127.023
-126.992
-126.867
-126.673
-126.441
-126.201
-125.985
-125.819
-125.717
-125.684
-125.719
-125.815
-125.961
-126.144
-126.355
-126.579
-126.805
-127.028
-127.242
-127.446
-127.634
-127.799
-127.936
-128.035
-128.083
-128.066
-127.965
-127.756
-127.416
-126.924
-126.254
-125.379
13190.4
12029.5
12079.8
12073.2
12074.7
12108.5
12126.8
12126.4
12149.5
12190.3
12247.6
12313.1
12413
9191.19
9478.65
8926.6
4924.5
47.649
-127.172
-127.722
-130.204
-132.046
-133.393
-134.269
-134.853
-135.217
-135.397
-135.432
-135.358
-135.201
-134.982
-134.724
-134.448
-134.179
-133.942
-133.756
-133.63
-133.57
-133.576
-133.641
-133.753
-133.906
-134.088
-134.286
-134.492
-134.699
-134.904
-135.103
-135.288
-135.456
-135.599
-135.709
-135.772
-135.774
-135.695
-135.512
-135.201
-134.738
-134.096
-133.251
12336.5
12028.2
12070.8
12069.2
12079.6
12052.8
12054.7
12081.1
12110.8
12145.2
12186
12241.9
11531.3
7265.33
6749.73
4994.21
1148.56
-105.623
-140.287
-139.455
-140.977
-142.258
-143.064
-143.545
-143.839
-143.973
-143.964
-143.844
-143.647
-143.394
-143.106
-142.8
-142.494
-142.207
-141.957
-141.758
-141.617
-141.539
-141.524
-141.564
-141.65
-141.777
-141.933
-142.108
-142.295
-142.488
-142.682
-142.873
-143.056
-143.226
-143.374
-143.495
-143.573
-143.595
-143.54
-143.385
-143.106
-142.676
-142.069
-141.26
12197.9
12101.6
12059.5
12049.8
12030
12023.7
12035.1
12053.6
12076.1
12102.7
12135.7
12247.2
8123.84
6131.72
4724.77
2128.69
-198.513
-160.978
-150.116
-150.469
-151.292
-152.005
-152.37
-152.561
-152.64
-152.6
-152.449
-152.216
-151.928
-151.605
-151.267
-150.928
-150.601
-150.303
-150.047
-149.841
-149.692
-149.602
-149.571
-149.592
-149.657
-149.761
-149.895
-150.05
-150.219
-150.396
-150.578
-150.761
-150.941
-151.11
-151.264
-151.393
-151.487
-151.528
-151.499
-151.374
-151.13
-150.736
-150.168
-149.403
11958.4
11993
12030.8
12027.7
12018.5
12014.6
12017.5
12027.5
12043.9
12065.1
12100.3
11587.4
6472.27
5169.26
3058.34
21.2315
-151.669
-156.583
-160.69
-160.739
-161.12
-161.344
-161.39
-161.381
-161.306
-161.142
-160.892
-160.58
-160.229
-159.859
-159.487
-159.128
-158.79
-158.486
-158.228
-158.02
-157.866
-157.769
-157.726
-157.731
-157.778
-157.862
-157.976
-158.113
-158.264
-158.426
-158.595
-158.77
-158.944
-159.112
-159.268
-159.406
-159.514
-159.574
-159.569
-159.476
-159.267
-158.914
-158.393
-157.676
11990.6
11968.9
11992.6
12002.8
12002.4
12002.3
12001.1
12004.2
12015.8
12035.6
12104.5
8385.44
5898.65
4174.19
1517.74
-639.921
-187.457
-171.322
-170.664
-170.456
-170.469
-170.352
-170.202
-170.066
-169.889
-169.642
-169.328
-168.966
-168.575
-168.176
-167.786
-167.416
-167.074
-166.771
-166.514
-166.306
-166.152
-166.05
-165.997
-165.988
-166.019
-166.086
-166.183
-166.301
-166.436
-166.582
-166.739
-166.904
-167.07
-167.234
-167.391
-167.535
-167.654
-167.732
-167.75
-167.686
-167.515
-167.207
-166.739
-166.079
12008.2
11970.3
11972.6
11982.1
11985.9
11988.2
11985.1
11984.1
11992.8
12017.4
11569.5
6791.11
5333.08
3097.23
63.6106
-203.333
-175.939
-180.989
-179.92
-179.664
-179.434
-179.129
-178.883
-178.675
-178.436
-178.14
-177.79
-177.399
-176.988
-176.575
-176.178
-175.807
-175.468
-175.171
-174.919
-174.715
-174.561
-174.454
-174.392
-174.37
-174.387
-174.439
-174.519
-174.62
-174.738
-174.87
-175.014
-175.167
-175.323
-175.481
-175.636
-175.783
-175.91
-176.002
-176.04
-176.004
-175.872
-175.613
-175.205
-174.613
11956.9
11964.2
11961.4
11967.1
11972.3
11976.4
11970.3
11964.2
11976.1
12024.2
8752.09
6384.75
4540.91
1871.95
-639.575
-185.005
-189.688
-189.373
-188.792
-188.524
-188.144
-187.772
-187.5
-187.26
-186.99
-186.67
-186.303
-185.9
-185.483
-185.068
-184.675
-184.31
-183.982
-183.696
-183.453
-183.255
-183.1
-182.989
-182.917
-182.884
-182.888
-182.924
-182.988
-183.073
-183.175
-183.292
-183.422
-183.561
-183.706
-183.856
-184.007
-184.153
-184.283
-184.383
-184.437
-184.427
-184.333
-184.127
-183.789
-183.278
11948.2
11951
11951.6
11954.9
11960.5
11969.5
11950.4
11950.3
11966.7
11480.2
7457.85
5852.93
3523.98
518.755
-308.612
-205.691
-198.895
-197.964
-197.534
-197.173
-196.729
-196.371
-196.109
-195.863
-195.584
-195.259
-194.89
-194.49
-194.077
-193.672
-193.29
-192.941
-192.628
-192.354
-192.119
-191.924
-191.771
-191.656
-191.576
-191.533
-191.524
-191.546
-191.594
-191.663
-191.749
-191.851
-191.966
-192.091
-192.223
-192.363
-192.506
-192.647
-192.775
-192.878
-192.943
-192.954
-192.894
-192.743
-192.485
-192.076
11943.4
11945.2
11943.8
11944.2
11948.6
11950.3
11935.7
11943
11972.5
9017.09
7003.39
4992.14
2297.31
-485.237
-180.722
-209.597
-207.508
-206.487
-206.13
-205.711
-205.29
-204.989
-204.757
-204.523
-204.25
-203.932
-203.572
-203.185
-202.788
-202.405
-202.045
-201.713
-201.414
-201.149
-200.92
-200.727
-200.572
-200.452
-200.367
-200.316
-200.297
-200.306
-200.339
-200.393
-200.463
-200.549
-200.648
-200.759
-200.878
-201.005
-201.136
-201.268
-201.39
-201.49
-201.559
-201.584
-201.552
-201.453
-201.282
-201.007
11937.8
11940.4
11937.9
11935.7
11936.5
11929.4
11930.9
11941.2
11251.5
8033.63
6293.14
3865.81
918.582
-401.196
-226.439
-214.91
-215.403
-214.955
-214.653
-214.244
-213.903
-213.674
-213.483
-213.269
-213.014
-212.712
-212.371
-212.004
-211.634
-211.277
-210.939
-210.625
-210.339
-210.084
-209.86
-209.668
-209.511
-209.387
-209.295
-209.235
-209.205
-209.203
-209.224
-209.264
-209.32
-209.391
-209.475
-209.571
-209.675
-209.786
-209.902
-210.021
-210.131
-210.224
-210.291
-210.32
-210.304
-210.246
-210.161
-210.066
11932.1
11935.3
11933.1
11929.2
11922.3
11925.6
11927.9
11876.1
9179.89
7417.75
5259.71
2546.32
-323.144
-206.941
-220.304
-223.715
-223.675
-223.494
-223.196
-222.856
-222.62
-222.464
-222.314
-222.128
-221.895
-221.615
-221.297
-220.957
-220.616
-220.285
-219.969
-219.672
-219.401
-219.156
-218.937
-218.747
-218.589
-218.461
-218.363
-218.295
-218.256
-218.242
-218.248
-218.275
-218.318
-218.376
-218.448
-218.528
-218.615
-218.708
-218.808
-218.909
-219.004
-219.084
-219.141
-219.166
-219.152
-219.109
-219.077
-219.2
11925.8
11929.6
11928.4
11925.8
11924.1
11925.8
11935.1
10740.3
8374.34
6488.06
3993.78
1085.29
-519.518
-246.01
-232.37
-232.528
-232.295
-232.132
-231.853
-231.613
-231.48
-231.389
-231.276
-231.118
-230.911
-230.655
-230.361
-230.049
-229.738
-229.433
-229.138
-228.86
-228.604
-228.368
-228.155
-227.968
-227.811
-227.681
-227.578
-227.503
-227.454
-227.427
-227.422
-227.435
-227.463
-227.507
-227.565
-227.631
-227.701
-227.777
-227.857
-227.939
-228.015
-228.078
-228.12
-228.131
-228.104
-228.044
-227.971
-227.953
11918.3
11923
11922.4
11922.7
11923.2
11911.4
11649.4
9226.59
7513.35
5266.32
2565.21
-275.28
-205.637
-239.387
-242.341
-241.511
-241.176
-240.938
-240.697
-240.561
-240.512
-240.47
-240.389
-240.257
-240.073
-239.838
-239.569
-239.288
-239.005
-238.725
-238.452
-238.193
-237.95
-237.723
-237.518
-237.337
-237.182
-237.05
-236.944
-236.863
-236.805
-236.767
-236.75
-236.75
-236.765
-236.795
-236.836
-236.884
-236.938
-236.996
-237.057
-237.118
-237.174
-237.216
-237.239
-237.231
-237.183
-237.088
-236.938
-236.702
11907.9
11915.1
11914.2
11917.1
11922.6
11888.2
9930.81
8342.65
6327.08
3846.54
1023.19
-526.379
-263.086
-251.313
-251.375
-250.642
-250.262
-249.965
-249.778
-249.726
-249.733
-249.724
-249.667
-249.557
-249.388
-249.172
-248.931
-248.68
-248.424
-248.168
-247.916
-247.674
-247.445
-247.229
-247.032
-246.858
-246.705
-246.573
-246.465
-246.379
-246.312
-246.266
-246.239
-246.228
-246.229
-246.244
-246.27
-246.301
-246.335
-246.372
-246.412
-246.453
-246.486
-246.507
-246.509
-246.484
-246.417
-246.294
-246.092
-245.764
11888.8
11900.9
11904.9
11909.8
11904.7
10526.4
8971.28
7152.3
4918.06
2300.67
-345.634
-211.253
-257.722
-261.202
-260.468
-259.929
-259.531
-259.241
-259.116
-259.116
-259.151
-259.16
-259.119
-259.018
-258.86
-258.666
-258.453
-258.229
-257.997
-257.763
-257.532
-257.307
-257.091
-256.888
-256.701
-256.534
-256.383
-256.253
-256.144
-256.053
-255.98
-255.927
-255.891
-255.869
-255.859
-255.86
-255.871
-255.886
-255.904
-255.923
-255.939
-255.954
-255.963
-255.962
-255.947
-255.906
-255.828
-255.699
-255.5
-255.204
11861.5
11884.3
11893.3
11893.7
10690.3
9338.19
7723.54
5733.64
3367.12
701.658
-410.466
-281.536
-270.283
-270.505
-269.821
-269.376
-269.011
-268.781
-268.707
-268.728
-268.77
-268.783
-268.745
-268.645
-268.5
-268.332
-268.143
-267.942
-267.733
-267.52
-267.308
-267.099
-266.897
-266.707
-266.531
-266.37
-266.224
-266.096
-265.986
-265.891
-265.815
-265.756
-265.713
-265.681
-265.659
-265.648
-265.647
-265.649
-265.653
-265.656
-265.656
-265.649
-265.63
-265.603
-265.569
-265.516
-265.436
-265.325
-265.18
-265.013
11816.6
11863
11871.8
10681.4
9549.35
8023.92
6274.63
4161.74
1734.99
-446.271
-236.029
-284.498
-281.333
-280.021
-279.389
-279
-278.718
-278.565
-278.527
-278.55
-278.584
-278.589
-278.541
-278.446
-278.322
-278.174
-278.006
-277.825
-277.636
-277.443
-277.249
-277.055
-276.867
-276.69
-276.525
-276.37
-276.23
-276.105
-275.994
-275.898
-275.818
-275.756
-275.706
-275.665
-275.634
-275.613
-275.6
-275.591
-275.584
-275.573
-275.559
-275.538
-275.506
-275.463
-275.406
-275.338
-275.258
-275.17
-275.077
-274.998
9775.59
11472.8
10734.7
9693.32
8255.19
6695.25
4836.73
2631.76
125.614
-226.298
-293.581
-291.573
-290.529
-289.626
-289.167
-288.86
-288.669
-288.581
-288.561
-288.575
-288.589
-288.574
-288.519
-288.435
-288.327
-288.195
-288.045
-287.882
-287.713
-287.538
-287.359
-287.179
-287.006
-286.842
-286.686
-286.539
-286.404
-286.283
-286.173
-286.076
-285.995
-285.928
-285.871
-285.824
-285.786
-285.757
-285.735
-285.717
-285.698
-285.676
-285.65
-285.62
-285.581
-285.532
-285.471
-285.401
-285.324
-285.244
-285.167
-285.1
123538
128621
128586
128529
128446
128331
128178
127976
127711
127364
126909
126309
125513
124445
122990
120965
118055
113660
106398
93012.8
113363
118431
118393
118329
118237
118110
117942
117721
117432
117055
116562
115912
115048
113885
112291
110054
106795
101785
93568.8
78815.3
103216
108268
108227
108158
108059
107923
107743
107508
107203
106806
106290
105613
104719
103523
101900
99653.3
96467.8
91823.4
84876
74104.7
93098.9
98135.3
98091.2
98018.7
97914.1
97771.9
97584.3
97340.5
97025.9
96620.5
96097
95417.4
94529
93357.4
91796.5
89693.8
86827.8
82875.8
77378
69776.9
83013.6
88033.4
87987.6
87912.6
87804.7
87658.7
87467
87219.6
86902.6
86497.8
85980.3
85316.6
84461.4
83353.4
81909.8
80020.1
77537.4
74270.8
69990.6
64528.8
72960.6
77963.7
77917.2
77840.9
77731.6
77584.2
77391.8
77145
76831.4
76434.7
75933.1
75298.3
74492.9
73468.7
72163.7
70500.6
68385.5
65709.8
62363.5
58283.4
62940.3
67927.1
67880.4
67804.1
67695
67548.5
67358.1
67115.5
66809.6
66426.2
65946.9
65348.1
64599.9
63665
62498.1
61046
59249
57045.1
54379.6
51226.9
52952.6
57923.5
57877.5
57802.4
57694.9
57550.9
57364.7
57128.8
56833.6
56466.9
56013.1
55452.9
54762.4
53912.9
52871.6
51601.8
50065.3
48226.2
46056.1
43544.9
42996.7
47952.5
47908.1
47835.2
47730.6
47590.5
47410.1
47182.7
46900
46551.6
46124.3
45602.1
44965.7
44192.9
43259.3
42139.8
40810.2
39249.7
37443.1
35385.6
33070.8
38013.3
37971.9
37902.4
37801.5
37666.2
37492.6
37274.8
37005.6
36675.9
36274.7
35788.2
35200.4
34493.5
33648.6
32648.7
31480.1
30132
28596.4
26868
23170.5
28104.4
28069
28004
27906.6
27776.7
27610.7
27403.3
27148.2
26837.7
26462
26009.6
25466.6
24817
24044.3
23137.7
22093.4
20909.8
19581.3
18096.5
13282.2
18225.1
18200.8
18139.2
18045.4
17922.3
17765.6
17570
17330
17038.8
16687.6
16266.4
15762.1
15155
14425.6
13572
12595.8
11509.7
10309.5
8970.27
3341.44
8378
8371.64
8308.2
8216.05
8096.03
7940.56
7746.49
7509.06
7220.96
6874.44
6462.61
5976.78
5387.15
4658.88
3838.96
2996.44
2201.92
1512.25
961.412
-431.662
286.55
286.683
256.82
214.437
160.387
96.7034
24.6091
-55.1296
-140.66
-228.934
-316.111
-406.378
-428.618
-428.84
-429.238
-429.276
-428.304
-421.773
-420.926
-439.659
-433.7
-433.736
-433.78
-433.802
-433.809
-433.81
-433.814
-433.831
-433.872
-433.956
-434.108
-434.327
-434.944
-435.242
-435.318
-435.259
-435.019
-434.5
-434.399
-449.071
-443.902
-443.93
-443.949
-443.957
-443.965
-443.978
-444.001
-444.03
-444.063
-444.092
-444.095
-444.041
-444.075
-444.158
-444.23
-444.28
-444.298
-444.275
-444.291
-458.797
-453.827
-453.83
-453.834
-453.836
-453.841
-453.85
-453.863
-453.879
-453.895
-453.906
-453.907
-453.894
-453.891
-453.917
-453.957
-453.996
-454.027
-454.047
-454.073
-468.596
-463.665
-463.662
-463.663
-463.666
-463.67
-463.677
-463.686
-463.695
-463.704
-463.711
-463.714
-463.712
-463.714
-463.727
-463.749
-463.776
-463.804
-463.832
-463.862
-478.416
-473.49
-473.489
-473.488
-473.489
-473.492
-473.497
-473.503
-473.51
-473.515
-473.52
-473.523
-473.525
-473.53
-473.54
-473.557
-473.579
-473.605
-473.633
-473.664
-488.246
-483.321
-483.314
-483.311
-483.31
-483.312
-483.315
-483.319
-483.323
-483.328
-483.332
-483.335
-483.34
-483.346
-483.357
-483.373
-483.393
-483.417
-483.445
-483.476
-498.067
-493.144
-493.134
-493.13
-493.128
-493.129
-493.131
-493.134
-493.137
-493.142
-493.146
-493.151
-493.157
-493.165
-493.177
-493.193
-493.213
-493.236
-493.263
-493.293
-507.863
-502.953
-502.946
-502.943
-502.942
-502.943
-502.945
-502.948
-502.951
-502.956
-502.961
-502.967
-502.975
-502.985
-502.997
-503.013
-503.033
-503.056
-503.081
-503.11
-517.632
-512.748
-512.75
-512.752
-512.754
-512.756
-512.758
-512.761
-512.765
-512.769
-512.775
-512.782
-512.791
-512.802
-512.815
-512.832
-512.851
-512.873
-512.899
-512.927
-527.368
-522.535
-522.553
-522.56
-522.565
-522.567
-522.57
-522.573
-522.577
-522.582
-522.588
-522.595
-522.605
-522.616
-522.631
-522.648
-522.667
-522.69
-522.715
-522.743
40957.3
40555.3
39663.4
39517.7
42199.9
47293.4
53880
60814.2
66922.4
71227
73049.8
72023.5
67798.3
59493.4
44221
49331.8
34394.2
29824
29457.4
31671.2
36125.3
42126.4
48567
54283.3
58293.9
59942.9
58882.7
54867.2
47553.2
36740.7
58531.1
39704.7
28859.4
24770.5
25112.7
28494.6
33652.9
39294.5
44232.2
47566.9
48778.4
47666.7
44214.2
38545
31111.5
60260.3
48134.4
37927.3
31372
28592.7
28910.5
31346.3
34555.4
37410.5
39166
39419.1
38031.2
35036.2
30613.6
25145.6
57802.7
49836.6
42437.8
36671.2
32965.2
31229.6
31039.3
31623.2
32228.3
32319.2
31555.4
29772.7
26953
23211.8
18808.2
53381.4
47632
42045
37219.6
33484.2
30884.7
29240.4
28179.5
27276.5
26165.2
24584.8
22388.7
19540.2
16106.6
12248.6
47522.8
43166.1
38775.5
34698.4
31164.2
28264.1
25912.4
23935.6
22095.6
20164.8
17970.1
15401.8
12409.9
9019.81
5397.67
40637.2
37208.5
33657.2
30182
26940.9
23999
21334.3
18862.4
16459.5
13991.9
11343.7
8430.58
5262.08
2150.47
306.488
33025
30234.4
27285.8
24290.8
21336.6
18469.8
15695.5
12974.5
10233
7390.9
4487.78
1795.26
207.525
-408.489
-369.82
24894.8
22550.2
20031.1
17391.5
14668.9
11897.3
9098.41
6258.55
3475.86
1184.74
-87.4948
-395.719
-383.405
-386.594
-387.017
16385.6
14320.6
12067
9635.18
7072.3
4467.22
2102.03
642.104
-413.303
-395.533
-391.445
-396.231
-396.814
-396.457
-396.298
7415.26
5543.74
3583.17
1840.02
665.657
-339.196
-426.139
-398.745
-404.461
-406.653
-406.022
-405.884
-405.934
-405.967
-405.989
332.71
-269.312
-433.688
-415.662
-410.958
-413.702
-416.708
-415.895
-415.588
-415.576
-415.534
-415.575
-415.629
-415.677
-415.724
-422.246
-423.436
-426.114
-425.677
-425.428
-425.311
-425.261
-425.223
-425.232
-425.26
-425.284
-425.327
-425.38
-425.434
-425.491
-434.684
-434.681
-434.695
-434.783
-434.818
-434.876
-434.904
-434.934
-434.968
-435.008
-435.052
-435.103
-435.159
-435.218
-435.277
-444.362
-444.402
-444.438
-444.49
-444.536
-444.587
-444.635
-444.684
-444.734
-444.785
-444.839
-444.895
-444.951
-445.008
-445.065
-454.112
-454.155
-454.199
-454.248
-454.299
-454.353
-454.408
-454.464
-454.521
-454.576
-454.632
-454.687
-454.744
-454.8
-454.855
-463.898
-463.94
-463.986
-464.035
-464.088
-464.143
-464.2
-464.257