/*--------------------------------*- C++ -*----------------------------------*\
| =========                 |                                                 |
| \\      /  F ield         | OpenFOAM: The Open Source CFD Toolbox           |
|  \\    /   O peration     | Version:  v1912                                 |
|   \\  /    A nd           | Website:  www.openfoam.com                      |
|    \\/     M anipulation  |                                                 |
\*---------------------------------------------------------------------------*/
FoamFile
{
    version     2.0;
    format      ascii;
    class       volScalarField;
    location    "28";
    object      p_rgh;
}
// * * * * * * * * * * * * * * * * * * * * * * * * * * * * * * * * * * * * * //

dimensions      [1 -1 -2 0 0 0 0];


internalField   nonuniform List<scalar> 
20320
(
434832
434908
434935
434987
435058
435147
435249
435364
435488
435619
435753
435886
436017
436142
436257
436361
436451
436525
436581
436618
434719
434818
434853
434907
434980
435069
435173
435288
435413
435544
435678
435812
435942
436067
436182
436285
436372
436443
436493
436525
434494
434634
434669
434725
434798
434887
434991
435106
435231
435362
435495
435628
435758
435882
435996
436097
436183
436253
436303
436336
434185
434365
434400
434454
434527
434616
434719
434833
434957
435087
435219
435351
435479
435600
435712
435812
435897
435966
436018
436055
433804
434018
434052
434106
434177
434265
434366
434479
434601
434729
434860
434990
435115
435234
435343
435440
435524
435593
435646
435685
433360
433603
433637
433689
433759
433844
433943
434054
434173
434298
434426
434553
434676
434792
434898
434992
435073
435140
435194
435234
432863
433131
433164
433214
433281
433363
433459
433565
433681
433801
433925
434048
434166
434278
434380
434470
434548
434613
434666
434707
432324
432611
432642
432690
432753
432831
432922
433023
433132
433247
433364
433480
433593
433699
433795
433880
433952
434014
434065
434106
431751
432053
432082
432126
432185
432257
432341
432434
432535
432641
432749
432856
432960
433056
433144
433220
433286
433342
433390
433428
431154
431466
431492
431531
431584
431649
431724
431807
431897
431991
432086
432179
432269
432352
432426
432490
432545
432592
432634
432669
430541
430858
430881
430915
430960
431015
431079
431149
431224
431301
431378
431453
431523
431586
431640
431685
431723
431757
431789
431816
429922
430240
430258
430285
430321
430365
430414
430467
430523
430578
430631
430680
430722
430756
430780
430797
430808
430820
430836
430849
429305
429619
429632
429651
429676
429706
429738
429770
429802
429829
429850
429864
429867
429859
429840
429813
429784
429761
429750
429739
428697
429003
429010
429021
429033
429046
429058
429066
429068
429061
429042
429008
428959
428892
428810
428717
428624
428544
428489
428437
428106
428400
428401
428402
428401
428396
428385
428365
428332
428283
428214
428121
428001
427854
427681
427490
427295
427121
426990
426864
427539
427817
427812
427802
427786
427762
427726
427675
427603
427506
427378
427212
427004
426749
426448
426108
425753
425420
425152
424895
426999
427260
427249
427228
427197
427153
427091
427007
426893
426744
426548
426297
425980
425588
425113
424559
423949
423339
422812
422299
426493
426734
426716
426685
426640
426575
426488
426370
426214
426009
425743
425398
424957
424399
423702
422850
421848
420753
419703
418637
426022
426243
426219
426178
426118
426035
425923
425774
425577
425318
424981
424541
423970
423229
422270
421038
419477
417569
415423
412979
425589
425789
425759
425709
425637
425537
425403
425225
424991
424684
424282
423754
423059
422139
420911
419258
417004
413902
409611
403406
114989
116016
116466
116995
117861
119449
122352
125960
119480
106712
102082
100767
100315
99939.5
99671.8
99172.7
99684.9
99536.4
98371.8
97301.6
98809.7
98817.7
98874.6
180093
260793
210447
159489
118703
88292
67010.5
52853.8
43814.5
38206.9
34768.9
32719.4
31493.9
30754.4
30314
30051.7
29891.4
29789.1
29715.3
29651.3
29591.3
29544.1
29520.8
29516.8
29524.6
29542.1
29570
29607.9
29650.2
29691
29731.6
29772.6
29809
29834.8
29846.3
29840.4
29820.6
114530
115321
115821
116499
117370
118887
121423
124856
121212
104115
99609.9
97703.6
97523.4
97478.1
97455
97439.4
97383.3
97159.3
96572.5
96294.5
96267.3
96476.1
96683.4
129222
210498
186002
147643
112324
84700.3
64993
51781.2
43312.5
38081.5
34792.7
32795.5
31573.7
30821.7
30365.1
30096.4
29939
29842.4
29774.4
29714.4
29655.7
29605.7
29574.6
29560.5
29559.7
29570.6
29593.4
29628.8
29672.6
29718.7
29765.4
29811.1
29851.7
29880.7
29894.9
29892.7
29870.7
113825
115003
114587
114956
116129
118574
120621
122672
121536
111683
102776
97799.7
97568.9
97500.7
97462.8
97435.8
97381.4
97189.5
96723.5
96378.1
96271
96382.8
96471.5
150720
180863
165131
135271
104753
79878.9
61928.3
49903.7
42223.6
37453.7
34520.7
32707.2
31574.7
30862.7
30420.5
30159.5
30007.5
29914.5
29850.6
29791.9
29728.3
29671.2
29636.8
29618
29610.7
29614.8
29631.7
29664.6
29708.4
29755.5
29805.5
29856.2
29902.2
29934.2
29950.3
29949
29920.9
113127
114299
114454
115907
116765
118016
119541
121036
120954
117013
114480
107048
97567.3
97509
97472.2
97444.5
97411.5
99579.6
97754.6
96388.6
96198.9
96273.5
98624.9
147850
156086
145083
121129
94876.2
72912.4
57128
46719.8
40198.7
36228.8
33811.4
32309
31362.7
30756.7
30371.5
30147.6
30017.4
29934.1
29881.1
29828.9
29757.1
29686.5
29656
29641.2
29633.1
29632.9
29645.6
29680.6
29727.1
29773.1
29825.1
29882.6
29938
29974.1
29992.6
29994.4
29963.7
112533
110667
111489
115237
116290
117289
118490
118947
119420
119103
116862
117525
102540
97503.6
97475
97453.3
97415.4
116252
115463
98106.6
96052.1
96279.4
121270
131754
134395
124923
104941
82381.6
63545.9
50457.8
42173.2
37209.6
34335.4
32654
31603
30935.1
30500.9
30212.1
30061.5
29972.8
29905.5
29874.9
29840.5
29756.9
29657.4
29641.9
29641.5
29637.6
29633.1
29641.4
29684.1
29738.3
29779
29831.3
29898.4
29970
30009.1
30029.9
30039
30009.4
108382
109818
114322
114939
115588
116502
117736
119074
120013
120022
119436
120010
121177
101610
97476.1
97467.1
101867
119758
121673
101934
95667.6
105444
119342
117486
115277
105130
87190.4
67483.6
51608.3
41510.7
35847.8
32999
31660.8
30997.5
30603.2
30349.2
30163.1
29978.5
29899.2
29845.1
29755
29763.3
29801.8
29790.7
29620.4
29641.1
29659.2
29483.4
29143.5
28722.7
28476.8
28533.7
28599.5
28882.8
29393.5
29989.3
30035.8
30052.6
30088.4
30054.6
112030
113000
112711
112728
114939
115747
116866
118180
119459
120312
120892
119171
122849
126263
104575
103950
124159
123174
121528
91027.9
92877.2
119993
111032
104980
98203.9
86147.6
68390.8
49260.3
32527.4
18328.9
7318.28
1611.25
28.3858
21.7637
17.3204
14.2755
12.0393
10.5437
9.15428
7.71362
6.93327
6.23516
5.69285
5.41254
6.18747
6.20598
6.32864
6.38689
6.39435
6.51978
6.34516
6.16357
6.30669
6.50702
6.82719
6.99622
7.45291
8.02455
8.33699
8.87864
111570
111260
106444
113737
112661
110445
112291
116997
118828
117136
118668
123253
124911
126827
128499
127186
126048
125477
117424
88087.6
118317
113334
103124
93532.4
82926.9
67975.1
41245.4
108.745
82.5578
67.5758
55.0528
46.5346
34.7714
27.5544
22.6063
18.8895
16.054
13.8694
12.0868
10.5514
9.34749
8.3952
7.62712
7.0342
7.05741
6.91853
6.75594
6.60015
6.47729
6.39999
6.29264
6.16586
6.20181
6.32917
6.52789
6.7637
7.12503
7.5859
8.04435
8.5078
111203
103740
112897
110915
107032
111980
113515
110611
114635
120320
122312
123612
125459
127503
128746
128637
128153
128011
81846
88998
118419
107327
95400.9
83100.3
69177.4
33474.3
120.006
89.0736
74.765
59.0894
47.1127
38.7175
31.4157
25.6264
21.3641
18.1064
15.5626
13.542
11.8706
10.4372
9.27664
8.35539
7.6269
7.11627
6.8778
6.71066
6.54659
6.38588
6.25539
6.16511
6.06084
5.96843
5.99176
6.11569
6.3206
6.58531
6.95534
7.4158
7.90227
8.41301
110950
102721
112279
112503
112298
111429
113106
116377
117976
119872
121065
123892
126621
128127
129382
129815
126751
119864
81230.8
123632
113775
101485
88094.8
73638.6
44918.1
119.806
80.3109
75.8557
62.3778
50.5203
41.0358
33.9462
28.3508
23.7668
20.2139
17.4045
15.1489
13.3033
11.7442
10.3965
9.27406
8.36424
7.63424
7.09297
6.77673
6.55619
6.3587
6.17808
6.03405
5.92625
5.82741
5.75573
5.77553
5.89236
6.09244
6.37025
6.74599
7.21236
7.73625
8.30355
101718
111853
111720
99556.2
112746
113117
113003
109288
113021
119099
121955
124012
125308
129009
130073
125236
127927
80650.1
104060
120479
109207
95947.4
81317.2
63705.5
82.8725
72.0196
69.1694
59.7719
50.7468
42.1111
34.8511
29.2471
24.9575
21.489
18.682
16.3784
14.4627
12.8377
11.4243
10.1854
9.12935
8.25308
7.53804
6.99357
6.62481
6.35739
6.13117
5.93733
5.78622
5.67068
5.57547
5.518
5.5396
5.65252
5.85061
6.13578
6.51976
7.00064
7.55997
8.18679
102629
112108
90163.1
112816
112887
113192
113839
114954
112587
107405
121440
123685
127610
130081
123635
127974
114219
81863.1
129582
117607
105018
90790.4
74556.9
5548.78
69.6245
62.2095
54.379
47.3305
40.7228
34.3763
28.9816
24.7825
21.6128
19.071
16.952
15.148
13.5824
12.1979
10.9555
9.84297
8.87302
8.05045
7.36721
6.82633
6.42806
6.12634
5.87784
5.67682
5.52146
5.40135
5.30945
5.26138
5.28535
5.39493
5.59148
5.88146
6.27499
6.77313
7.36635
8.05103
111974
112440
88540.9
112675
112470
112521
113007
113910
115581
118167
120879
124246
119363
127996
131720
118396
75847.5
120958
127984
115010
101196
85858.5
31778.4
58.4434
54.4336
48.7629
42.9723
37.4953
32.4259
27.7015
23.7582
20.7369
18.4778
16.6768
15.1464
13.7918
12.5601
11.4208
10.3622
9.39002
8.52116
7.76603
7.12478
6.60112
6.19048
5.86723
5.60703
5.40369
5.24561
5.12139
5.03069
4.98828
5.01429
5.12016
5.31473
5.6086
6.01118
6.52632
7.15081
7.89022
112128
112577
92686.3
112383
112134
112103
112122
113013
114324
116608
119850
113645
115773
131530
112573
127081
72659.5
138265
126113
112447
97641.7
80730.1
66.0019
49.0508
43.4251
38.4966
33.959
29.6991
25.6823
22.1374
19.3108
17.2031
15.6511
14.4257
13.3677
12.3929
11.4613
10.5578
9.68482
8.85834
8.09805
7.41785
6.82586
6.32708
5.91867
5.58947
5.32699
5.12261
4.96126
4.83361
4.74305
4.70248
4.72764
4.82979
5.02214
5.3184
5.72836
6.25788
6.9102
7.69828
112545
99999.9
110748
89692.8
110271
90226.8
103647
112523
98712.4
92644.8
103814
122969
127352
131814
129077
56681.5
123556
136629
124035
109913
93961.7
11400.8
43.7155
39.875
34.56
30.4583
26.869
23.4058
20.2376
17.6225
15.6331
14.2023
13.1781
12.3849
11.6924
11.0262
10.353
9.6636
8.9661
8.28106
7.62913
7.02667
6.48837
6.02168
5.62778
5.30417
5.04341
4.83694
4.67086
4.53983
4.44757
4.40556
4.42748
4.52546
4.7151
5.0116
5.42612
5.96651
6.64316
7.47252
113257
111539
113183
59410.2
112936
30949.1
106678
103068
46690.3
50743.6
102833
121469
118607
130417
135556
61797
142804
134457
121933
107446
75368.3
44.4648
36.9834
31.8738
27.5202
24.142
21.1272
18.3162
15.9013
14.0141
12.6417
11.699
11.0574
10.5823
10.1665
9.74429
9.28497
8.78073
8.24121
7.68662
7.13678
6.6121
6.12964
5.70003
5.3285
5.01659
4.75869
4.54876
4.37775
4.24234
4.14693
4.10073
4.11731
4.21055
4.39576
4.68985
5.10521
5.65325
6.34912
7.21197
113014
84653.4
53696.4
106099
114154
23518.8
109949
20649.5
99241.4
116865
118021
120216
119276
126860
75527.7
97996.7
142802
132610
120073
104810
5110.59
35.6193
30.3835
25.3899
21.8343
18.9724
16.4488
14.2534
12.4745
11.1457
10.2232
9.62919
9.26305
9.02044
8.81123
8.57764
8.28915
7.93867
7.53518
7.09553
6.6395
6.18929
5.76254
5.3726
5.02682
4.72817
4.474
4.26157
4.08574
3.94516
3.84448
3.79197
3.80205
3.88849
4.06713
4.35589
4.76838
5.31989
6.02897
6.91646
14475.5
29900.1
70685.5
109790
27888.1
37212.9
27856.6
20789.4
34875.6
41926.7
74166.9
47909.2
121857
121752
57660.6
148067
141885
131381
118580
73865.7
30.5838
28.9473
24.0809
20.0622
17.0973
14.6907
12.6749
11.0316
9.76523
8.8588
8.26643
7.92669
7.7613
7.68712
7.63036
7.5382
7.3819
7.15507
6.86381
6.52288
6.15053
5.76957
5.39641
5.04525
4.72504
4.44036
4.19211
3.97898
3.79873
3.65197
3.54431
3.48477
3.48625
3.56324
3.73305
4.01267
4.41887
4.96976
5.68443
6.58831
14506.7
28156.1
20059.1
12118.2
12782.5
30898.4
12334.8
12381.6
12432.8
12472
12510.2
12878.7
15254.2
17652
55082.6
150998
141181
130702
117309
4981.68
27.3976
22.9548
18.7529
15.5473
13.1011
11.1744
9.64814
8.47203
7.60867
7.02432
6.68196
6.53263
6.51499
6.56233
6.61547
6.6267
6.56976
6.43862
6.23766
5.97909
5.67996
5.36104
5.037
4.72179
4.42609
4.15672
3.91604
3.70351
3.51948
3.36662
3.2516
3.18339
3.17441
3.23945
3.39708
3.66414
4.0603
4.60553
5.31924
6.22964
14598.1
14467
12971.7
12330.9
12822
12273.6
12320.9
12356.2
12419.1
12477.2
12575.1
12805.6
13212.1
15154.4
129579
149587
140605
130483
94672.9
17.7176
21.1911
17.5178
14.2329
11.6815
9.76158
8.30968
7.21869
6.42465
5.87834
5.54698
5.39945
5.39581
5.48697
5.62198
5.75233
5.83595
5.85165
5.79299
5.66266
5.47148
5.23423
4.96909
4.68828
4.406
4.13407
3.88069
3.64822
3.43729
3.25064
3.09252
2.97004
2.8923
2.8711
2.9218
3.06378
3.31476
3.69672
4.23078
4.93661
5.84447
36399.8
34529.7
44759.7
13092.7
12188.5
12233.3
12283.2
12334.1
12395.3
12836.2
12519.9
12666.8
12874.6
12553.7
143248
146212
140258
130682
12192.9
18.4834
15.8809
12.9031
10.3589
8.41515
7.0084
5.98594
5.26278
4.77799
4.48629
4.35662
4.36208
4.47001
4.64212
4.83962
5.02145
5.15487
5.22229
5.21662
5.14062
5.00299
4.81684
4.59632
4.35312
4.10101
3.85226
3.61483
3.39092
3.18259
2.99492
2.83273
2.70308
2.61496
2.5804
2.61488
2.73798
2.9696
3.33257
3.84913
4.54037
5.43605
35094
36784.5
12218.7
12211.7
12194.9
12209.4
12265.1
12611.7
13115.1
12378.7
12448.6
12542.8
12637.3
90465.3
143861
145081
140803
131704
22.7266
13.3466
11.4258
9.02766
7.09313
5.72254
4.76808
4.10925
3.68765
3.45321
3.36574
3.3966
3.52202
3.71563
3.94801
4.18838
4.40384
4.57001
4.6725
4.70491
4.66975
4.57362
4.42848
4.2449
4.03427
3.81018
3.58365
3.36159
3.14672
2.94248
2.75517
2.58988
2.45333
2.35442
2.30573
2.32251
2.42441
2.63355
2.97262
3.4652
4.13498
5.0095
33854.7
12167.4
12218
12211.7
12234
13311.4
13329.7
12533.8
12287.3
12328.3
12385.7
12450.9
12550.8
145884
147301
146749
142747
31645.8
10.65
10.1005
7.61779
5.77636
4.42853
3.55304
2.96917
2.60491
2.42528
2.39029
2.4645
2.62136
2.83954
3.09805
3.37435
3.64286
3.87959
4.06613
4.19203
4.25166
4.24599
4.18152
4.06897
3.91631
3.7345
3.53603
3.33016
3.12294
2.91793
2.71953
2.53377
2.3659
2.22293
2.11329
2.0496
2.04776
2.12686
2.31023
2.62082
3.08438
3.72588
4.57107
33816
12173.6
12216.3
12214.7
12969
12306.4
12200
12226.5
12256.7
12290.8
12331.4
12387.3
52186.8
152653
152138
150382
146537
39.7655
5.10082
5.93348
4.41099
3.13042
2.3242
1.84297
1.5487
1.41537
1.42421
1.54363
1.74125
1.99376
2.28179
2.58806
2.89446
3.18154
3.43118
3.62998
3.77103
3.84872
3.86413
3.82421
3.7378
3.61135
3.45512
3.27962
3.09266
2.90014
2.70644
2.51511
2.33181
2.16227
2.01363
1.89348
1.81456
1.79318
1.84818
2.00296
2.2816
2.71213
3.3195
4.12819
18516.1
14328
12212.6
12216.5
12183.1
12176.8
12188.2
12206.9
12230.1
12255.8
12288.8
12400.3
150612
159222
157815
155219
79734.6
-7.88816
2.97401
2.62136
1.79809
1.08465
0.719523
0.529005
0.449682
0.490111
0.640607
0.87359
1.16206
1.48458
1.82249
2.16219
2.4886
2.78699
3.04321
3.24853
3.39827
3.4876
3.51877
3.49828
3.43313
3.32925
3.19538
3.04026
2.87132
2.69395
2.51233
2.32902
2.1493
1.97949
1.82637
1.69651
1.60279
1.56146
1.59128
1.71569
1.9602
2.35415
2.92142
3.68736
12129.5
14371.7
12191.7
12192.5
12181.9
12175.5
12178.8
12189.8
12204.8
12226.1
12261.2
31873.2
167402
166099
163988
160951
7409.92
4.3463
0.23939
0.190352
-0.189921
-0.414144
-0.460684
-0.450914
-0.376669
-0.212113
0.0373828
0.349358
0.700731
1.07085
1.44216
1.80194
2.13981
2.44336
2.70176
2.90996
3.06387
3.16071
3.20384
3.19891
3.15195
3.06778
2.95337
2.81685
2.66553
2.50382
2.33449
2.15982
1.98537
1.81733
1.66149
1.52345
1.41608
1.3553
1.36017
1.45388
1.66242
2.01568
2.53695
3.2536
15150.2
12137.8
12161.6
12174.1
12171.3
12171.2
12171
12173.6
12184.7
12204.5
12273.4
161566
174808
173084
170427
157510
-18.5473
-2.41199
-1.75401
-1.54667
-1.55973
-1.44206
-1.29237
-1.15617
-0.979458
-0.732504
-0.418567
-0.0561775
0.334815
0.733299
1.12322
1.49329
1.83543
2.13862
2.39574
2.60345
2.75807
2.85989
2.91299
2.92181
2.89085
2.82379
2.72703
2.60824
2.47405
2.3278
2.17072
2.00588
1.83916
1.67525
1.51864
1.3746
1.25589
1.17766
1.15937
1.22321
1.3941
1.70231
2.17101
2.83059
15390.2
12147.4
12149.8
12159.1
12162.9
12222.5
12165.8
12161.2
12169.9
12194.5
30343.7
183824
182366
180130
177097
28836.8
1.09411
-3.95613
-2.88714
-2.63072
-2.4008
-2.09539
-1.84938
-1.64175
-1.40308
-1.10713
-0.756915
-0.366058
0.0457499
0.458164
0.85505
1.22674
1.5653
1.86246
2.11402
2.31795
2.47218
2.57894
2.64159
2.66296
2.64613
2.59457
2.51461
2.41294
2.29515
2.16376
2.01945
1.86642
1.70991
1.55218
1.39688
1.24986
1.12341
1.03162
0.993436
1.02886
1.16101
1.41987
1.82829
2.42057
12146.4
12149.6
12146.7
12152.4
12157.6
12221.7
12181.2
12166.1
12161.4
12209.5
177145
191687
189844
187174
184663
0.297828
-4.38562
-4.07062
-3.48894
-3.22132
-2.8418
-2.4698
-2.19709
-1.95693
-1.6872
-1.36709
-0.999836
-0.597681
-0.179987
0.234203
0.627936
0.992868
1.32039
1.60619
1.84918
2.04807
2.20234
2.31403
2.3856
2.41867
2.41507
2.3783
2.31453
2.22947
2.12759
2.01092
1.88067
1.74129
1.59643
1.44653
1.29539
1.14923
1.01953
0.919431
0.865624
0.875299
0.969411
1.17524
1.51401
2.02505
12146.1
12144.8
12145.3
12148.6
12159.3
12179.4
12342.7
12144
12160.4
44002.3
201178
199573
197244
194239
66034
-11.9704
-5.17498
-4.24375
-3.8134
-3.45318
-3.00867
-2.65069
-2.38892
-2.14274
-1.86375
-1.53845
-1.16948
-0.76949
-0.35652
0.0484424
0.429732
0.778895
1.09218
1.36656
1.6014
1.79594
1.94949
2.06451
2.14379
2.18753
2.19623
2.17384
2.12598
2.05706
1.97083
1.86943
1.75454
1.62957
1.49696
1.35716
1.21392
1.07288
0.944686
0.841718
0.777365
0.766219
0.825881
0.976865
1.23557
1.64458
12150.1
12147.5
12146.1
12146.5
12152.1
12746.3
12212.5
12145.3
12174.8
199918
209292
207280
204586
201803
21.566
-7.30893
-5.22001
-4.19862
-3.84214
-3.42322
-3.00197
-2.70038
-2.46904
-2.23436
-1.9618
-1.64357
-1.28396
-0.896459
-0.499426
-0.116594
0.243583
0.575408
0.874669
1.13887
1.36808
1.56112
1.71613
1.83579
1.92132
1.97239
1.99123
1.98221
1.94929
1.89569
1.82511
1.73937
1.63994
1.52949
1.41028
1.28354
1.15213
1.02038
0.898462
0.798044
0.729106
0.704244
0.736578
0.835489
1.00584
1.28125
12153.3
12151.4
12148.9
12150.1
12147.6
12870.4
12141.9
12152.2
84127
219044
217304
214877
211929
121879
-15.4281
-3.89935
-4.39179
-3.94416
-3.64187
-3.23297
-2.89246
-2.6635
-2.47162
-2.25847
-2.00285
-1.70126
-1.35998
-0.99336
-0.623407
-0.266
0.0720375
0.386269
0.671805
0.926367
1.15095
1.34289
1.49979
1.6239
1.71565
1.77549
1.80547
1.80783
1.78685
1.74684
1.69111
1.62012
1.53537
1.4399
1.3361
1.22511
1.1086
0.990219
0.879513
0.786891
0.720051
0.690465
0.706373
0.764986
0.849806
0.94499
12160.2
12155.2
12153
12149.2
12545.7
12255.1
12147.8
12096
229069
227307
225149
222435
219566
8161.36
-0.414892
-3.82599
-3.78642
-3.60542
-3.30729
-2.96672
-2.73105
-2.57545
-2.42511
-2.23867
-2.00575
-1.72627
-1.40822
-1.06834
-0.727103
-0.395958
-0.0798189
0.216721
0.487736
0.732578
0.952012
1.1417
1.30003
1.42793
1.52574
1.59356
1.63301
1.64727
1.6405
1.61444
1.57134
1.51251
1.44126
1.36132
1.27438
1.18073
1.08139
0.980078
0.885056
0.805186
0.747671
0.723242
0.73715
0.780136
0.811899
0.688592
12163.6
12158.8
12157.5
12154.7
12169.1
12154.8
12164
170791
237301
235414
232920
230012
176971
-17.084
-3.44352
-3.60176
-3.36871
-3.20556
-2.92639
-2.68658
-2.55376
-2.46217
-2.34956
-2.1913
-1.98416
-1.72865
-1.43479
-1.12277
-0.811149
-0.506372
-0.211707
0.0663224
0.322755
0.55866
0.771845
0.958098
1.11524
1.24523
1.34826
1.42341
1.47271
1.49911
1.50453
1.49139
1.46322
1.41897
1.3611
1.29552
1.22496
1.14928
1.06896
0.987297
0.910965
0.848063
0.8063
0.79574
0.82234
0.882818
0.955014
0.97311
12161.3
12162.4
12160.6
12166.4
12161.5
12149.5
31846.6
247353
245640
243393
240692
237851
16667.3
-1.26102
-4.21487
-3.38434
-3.04994
-2.81134
-2.57065
-2.43481
-2.38554
-2.34336
-2.26267
-2.13089
-1.94721
-1.71155
-1.44268
-1.16145
-0.879095
-0.599033
-0.325988
-0.0664805
0.176074
0.402864
0.608471
0.789484
0.944455
1.07633
1.18252
1.26294
1.32148
1.35897
1.37619
1.37617
1.36128
1.3309
1.29
1.24258
1.18854
1.13015
1.06944
1.00846
0.952713
0.910045
0.887775
0.895527
0.94287
1.03831
1.18833
1.42412
12361.6
12165.8
12196
12164.6
12170.1
12135.7
253469
255834
253819
251338
248515
200175
-15.5946
-3.82146
-3.8839
-3.15062
-2.77016
-2.4733
-2.28683
-2.2347
-2.24133
-2.23231
-2.17558
-2.06529
-1.89645
-1.68068
-1.43966
-1.18874
-0.932746
-0.6764
-0.424296
-0.183039
0.0469012
0.262761
0.459273
0.633723
0.786583
0.918799
1.02639
1.11233
1.17929
1.22529
1.25234
1.26391
1.26216
1.24702
1.22173
1.19041
1.15628
1.11962
1.0791
1.03857
1.00501
0.984521
0.981956
1.00739
1.0742
1.19777
1.39919
1.72762
12213.3
12330.2
12161.9
12166.8
12161.7
231852
265995
264176
261941
259324
256678
15519.4
-0.698515
-4.17881
-3.44464
-2.90583
-2.50728
-2.2179
-2.09271
-2.09219
-2.12726
-2.13662
-2.09514
-1.99503
-1.83654
-1.64245
-1.43012
-1.2054
-0.973875
-0.739873
-0.508397
-0.284022
-0.067493
0.135872
0.322368
0.489684
0.639861
0.770537
0.8795
0.970768
1.04343
1.09611
1.13197
1.154
1.1647
1.16357
1.15267
1.13686
1.11889
1.10049
1.08395
1.06921
1.0599
1.06134
1.07688
1.11704
1.1953
1.32447
1.52347
1.81944
12133.2
12151
12160
12160.5
218860
276066
274451
272461
270095
267429
179743
-14.8086
-3.55537
-3.77766
-3.09377
-2.64891
-2.28404
-2.05379
-1.97955
-2.00054
-2.04226
-2.05596
-2.01732
-1.91757
-1.77286
-1.60432
-1.41594
-1.21429
-1.00518
-0.792838
-0.580802
-0.371995
-0.169789
0.0206404
0.196479
0.357133
0.503283
0.631248
0.74148
0.836136
0.91274
0.970988
1.01412
1.04601
1.06826
1.07914
1.08089
1.07841
1.07437
1.07121
1.07124
1.07856
1.09746
1.12412
1.15837
1.21102
1.29118
1.40237
1.54764
1.71438
12098.4
12140.1
12148.4
244639
286155
284629
282880
280767
278340
276159
40.5757
-7.89256
-4.72797
-3.41537
-2.7837
-2.39461
-2.11228
-1.95984
-1.92216
-1.94513
-1.97911
-1.98386
-1.93619
-1.84094
-1.71692
-1.56836
-1.40045
-1.21937
-1.03107
-0.838264
-0.64358
-0.449758
-0.262249
-0.0849535
0.0805725
0.234689
0.375581
0.500177
0.610757
0.707267
0.787086
0.84954
0.899377
0.940427
0.971599
0.992126
1.00508
1.01368
1.02154
1.03212
1.04639
1.06727
1.09868
1.14236
1.19875
1.26711
1.34677
1.43533
1.52836
1.60708
71973.5
46579
297394
296353
294915
293355
291496
289291
286785
81683.3
-6.92126
-4.91366
-3.8695
-2.96644
-2.50712
-2.20092
-2.00983
-1.92136
-1.90173
-1.91512
-1.93002
-1.91401
-1.85965
-1.77588
-1.66752
-1.53596
-1.38562
-1.22287
-1.05329
-0.878321
-0.699226
-0.519694
-0.346415
-0.182143
-0.0262875
0.120609
0.255036
0.376101
0.486181
0.583458
0.664873
0.731248
0.788
0.835794
0.873525
0.90256
0.924854
0.942775
0.961295
0.983819
1.00959
1.03996
1.0785
1.1275
1.18799
1.25878
1.33584
1.41528
1.49291
1.55944
425195
425373
425339
425281
425198
425084
424930
424728
424463
424117
423661
423062
422265
421197
419742
417718
414808
410412
403151
389765
424830
424993
424955
424891
424799
424673
424505
424283
423995
423618
423124
422474
421610
420447
418854
416616
413358
408347
400131
385378
424493
424641
424599
424531
424431
424296
424116
423881
423575
423179
422662
421986
421092
419896
418272
416026
412840
408196
401248
390477
424186
424318
424274
424201
424097
423954
423767
423523
423208
422803
422279
421600
420711
419540
417979
415876
413010
409058
403561
395959
423911
424026
423980
423905
423797
423651
423460
423212
422895
422490
421973
421309
420454
419346
417902
416013
413530
410263
405983
400521
423668
423766
423720
423643
423534
423387
423194
422948
422634
422237
421736
421101
420295
419271
417966
416303
414188
411512
408166
404086
423458
423540
423493
423417
423308
423161
422971
422728
422422
422039
421559
420961
420212
419277
418111
416658
414861
412658
409992
406839
423280
423346
423300
423225
423117
422973
422787
422551
422256
421889
421436
420875
420185
419335
418294
417024
415488
413649
411479
408967
423134
423185
423141
423068
422963
422823
422643
422415
422133
421784
421357
420835
420198
419425
418492
417372
416043
414482
412676
410618
423018
423056
423014
422945
422844
422709
422535
422317
422048
421718
421317
420831
420243
419536
418691
417691
416523
415175
413639
411911
422928
422957
422921
422856
422759
422629
422463
422256
422001
421690
421315
420862
420319
419669
418897
417990
416946
415762
414434
412949
422850
422888
422863
422802
422708
422585
422428
422232
421993
421701
421350
420929
420425
419817
419088
418234
417258
416172
414972
413633
422719
422850
422844
422781
422689
422569
422413
422219
421982
421693
421347
420935
420449
419860
419119
415331
403025
378028
336819
265745
-2.47438
128805
128110
121537
113393
103578
92371.3
79831.9
65962.5
51015.3
35487.8
20013.4
3296.55
-4.33588
-4.55715
-4.95596
-4.99305
-4.02144
2.50955
3.35674
-0.661076
0.392298
0.356795
0.312839
0.29052
0.283821
0.282743
0.278506
0.261534
0.220683
0.13601
-0.0152471
-0.234263
-0.851794
-1.14957
-1.22527
-1.1661
-0.926965
-0.407631
-0.306691
-0.263137
0.000211443
-0.0277306
-0.0462249
-0.0549035
-0.0624207
-0.0759946
-0.0982076
-0.127735
-0.160487
-0.18911
-0.192203
-0.138937
-0.172827
-0.255753
-0.327748
-0.377122
-0.395243
-0.37201
-0.388331
-0.179381
-0.114148
-0.117539
-0.121093
-0.123578
-0.128188
-0.13717
-0.150475
-0.166342
-0.182002
-0.193417
-0.194609
-0.181454
-0.178741
-0.204902
-0.244841
-0.283938
-0.314115
-0.334673
-0.360156
-0.168846
-0.142512
-0.139943
-0.140821
-0.143135
-0.147448
-0.154351
-0.163239
-0.17285
-0.181992
-0.188949
-0.191452
-0.189686
-0.19143
-0.204077
-0.226414
-0.253653
-0.281726
-0.309438
-0.339518
-0.178955
-0.157964
-0.156193
-0.155644
-0.156833
-0.159881
-0.164841
-0.170922
-0.177143
-0.18289
-0.187558
-0.190608
-0.192876
-0.197531
-0.207858
-0.224692
-0.246847
-0.27259
-0.300889
-0.331875
-0.1986
-0.178154
-0.171523
-0.168285
-0.167634
-0.16913
-0.172305
-0.17646
-0.180949
-0.185299
-0.189236
-0.192939
-0.19729
-0.203912
-0.21452
-0.230015
-0.25034
-0.274836
-0.302744
-0.333712
-0.209966
-0.191546
-0.181584
-0.177065
-0.175578
-0.176187
-0.178189
-0.181225
-0.184998
-0.189136
-0.193464
-0.198284
-0.204386
-0.212808
-0.224525
-0.24022
-0.260054
-0.283641
-0.310516
-0.340512
-0.195733
-0.190713
-0.183139
-0.180535
-0.179876
-0.180596
-0.182337
-0.185119
-0.18887
-0.193333
-0.198489
-0.204635
-0.212268
-0.222051
-0.234715
-0.250791
-0.270343
-0.293102
-0.318884
-0.347601
-0.154649
-0.17517
-0.17773
-0.179822
-0.1814
-0.183032
-0.185129
-0.188109
-0.192027
-0.196749
-0.20249
-0.209617
-0.218343
-0.22908
-0.242513
-0.25901
-0.278525
-0.300997
-0.326328
-0.354303
-0.0806576
-0.152695
-0.170049
-0.17797
-0.182087
-0.184792
-0.187344
-0.190472
-0.194375
-0.199153
-0.205195
-0.212874
-0.222354
-0.23396
-0.248162
-0.265157
-0.284951
-0.307572
-0.332926
-0.360844
337710
337308
336416
336270
338952
344046
350633
357567
363675
367980
369802
368776
364551
356246
340974
355894
340957
336386
336020
338234
342688
348689
355129
360846
364856
366505
365445
361430
354116
343303
374904
356077
345232
341143
341485
344867
350025
355667
360605
363939
365151
364039
360587
354917
347484
386443
374317
364110
357554
354775
355093
357529
360738
363593
365348
365602
364214
361219
356796
351328
393795
385829
378430
372664
368958
367222
367032
367616
368221
368312
367548
365765
362946
359204
354801
399184
393435
387848
383022
379287
376687
375043
373982
373079
371968
370387
368191
365343
361909
358051
403135
398779
394388
390311
386777
383877
381525
379548
377708
375777
373583
371014
368022
364632
361010
406060
402631
399080
395604
392363
389422
386757
384285
381882
379414
376766
373853
370685
363400
183625
408257
405467
402518
399523
396569
393702
390928
388207
385466
382623
379720
365285
161232
-33.2563
5.41207
409937
407593
405074
402434
399711
396940
394141
391301
388518
341383
87353.9
-10.6762
1.63746
-1.55152
-1.97432
411238
409173
406920
404488
401925
399320
387967
250350
479.529
-0.680966
3.40761
-1.37888
-1.96105
-1.60423
-1.44574
412078
410206
407883
373880
239266
19704.1
-21.4767
5.91768
0.201462
-1.99071
-1.35919
-1.22108
-1.27137
-1.30498
-1.32683
156112
35072.2
-19.2154
-1.1899
3.51471
0.770507
-2.23521
-1.42274
-1.11506
-1.10385
-1.06192
-1.10202
-1.15661
-1.2045
-1.25177
2.03632
0.846012
-1.83133
-1.39498
-1.14513
-1.0284
-0.97849
-0.940467
-0.949456
-0.977046
-1.00121
-1.04451
-1.09722
-1.15193
-1.20807
-0.591992
-0.588555
-0.602245
-0.69074
-0.725959
-0.783266
-0.811847
-0.841846
-0.87595
-0.915199
-0.959165
-1.01045
-1.06668
-1.12557
-1.18482
-0.459937
-0.499196
-0.535948
-0.587151
-0.633491
-0.684783
-0.732861
-0.781728
-0.831534
-0.882886
-0.936412
-0.992245
-1.04885
-1.10537
-1.16245
-0.399429
-0.442475
-0.486301
-0.535258
-0.586533
-0.640611
-0.695823
-0.751958
-0.808202
-0.863938
-0.919099
-0.974825
-1.03143
-1.08757
-1.14284
-0.375306
-0.417839
-0.46352
-0.51284
-0.565325
-0.620577
-0.677299
-0.734338
-0.79131
-0.848061
-0.904245
-0.959755
-1.01486
-1.06969
-1.12391
-0.367133
-0.409329
-0.45532
-0.504564
-0.55655
-0.610772
-0.666402
-0.722574
-0.778555
-0.83423
-0.889781
-0.944987
-0.999606
-1.0535
-1.10659
-0.36875
-0.41022
-0.455043
-0.502949
-0.553302
-0.605245
-0.658462
-0.712669
-0.767335
-0.822156
-0.876894
-0.931261
-0.98511
-1.03831
-1.09062
-0.374391
-0.414173
-0.457081
-0.502955
-0.551178
-0.601149
-0.652519
-0.704918
-0.758025
-0.81151
-0.865147
-0.918647
-0.971692
-1.02415
-1.07587
-0.379977
-0.418229
-0.459757
-0.504065
-0.550611
-0.59902
-0.648703
-0.699281
-0.750766
-0.802872
-0.855279
-0.907901
-0.960281
-1.01197
-1.06301
-0.385845
-0.42329
-0.463779
-0.506735
-0.551862
-0.598821
-0.647116
-0.696368
-0.746438
-0.797261
-0.848508
-0.89994
-0.951295
-1.00218
-1.05231
-0.392247
-0.429307
-0.469103
-0.51114
-0.555176
-0.60089
-0.648069
-0.696441
-0.7454
-0.794888
-0.844977
-0.895089
-0.945111
-0.994994
-1.04425
311215
309643
307889
305678
303906
301998
299820
297414
219761
-3.46952
-2.60919
-3.05106
-2.70828
-2.34242
-2.10617
-1.96027
-1.88982
-1.8721
-1.87833
-1.88933
-1.88469
-1.85106
-1.79502
-1.71882
-1.62122
-1.50219
-1.36631
-1.21915
-1.06604
-0.906589
-0.741548
-0.575506
-0.416389
-0.264582
-0.118623
0.019706
0.146832
0.263884
0.371735
0.467412
0.548288
0.618464
0.680641