/*--------------------------------*- C++ -*----------------------------------*\
| =========                 |                                                 |
| \\      /  F ield         | OpenFOAM: The Open Source CFD Toolbox           |
|  \\    /   O peration     | Version:  v1912                                 |
|   \\  /    A nd           | Website:  www.openfoam.com                      |
|    \\/     M anipulation  |                                                 |
\*---------------------------------------------------------------------------*/
FoamFile
{
    version     2.0;
    format      ascii;
    class       surfaceScalarField;
    location    "28";
    object      phi;
}
// * * * * * * * * * * * * * * * * * * * * * * * * * * * * * * * * * * * * * //

dimensions      [0 3 -1 0 0 0 0];
oriented        oriented;


internalField   nonuniform List<scalar> 
40282
(
0.0027815
0.00264291
1.91921
-1.92582
1.92024
0.00558006
-1.9112
1.89906
0.0121377
-1.88389
1.86579
0.0181009
-1.84476
1.82093
0.0238324
-1.7943
1.76494
0.0293547
-1.73292
1.6983
0.0346167
-1.66118
1.62152
0.0396617
-1.57948
1.535
0.044473
-1.48834
1.43936
0.0489731
-1.38833
1.33513
0.0532031
-1.28003
1.22291
0.0571268
-1.16404
1.10328
0.0607592
-1.041
0.977045
0.0639527
-0.911634
0.844899
0.0667343
-0.77662
0.707431
0.0691892
-0.63637
0.564801
0.0715697
-0.490916
0.416385
0.0745316
-0.338575
0.259103
0.0794723
-0.176445
0.0787344
0.0977108
-0.00422544
0.00559866
1.85432
-1.84983
1.8429
-0.0140881
0.0210245
-1.83325
1.82083
-0.0256068
0.0380263
-1.80563
1.78767
-0.0368881
0.0548471
-1.76698
1.74361
-0.04793
0.0713061
-1.71759
1.68897
-0.0587261
0.0873468
-1.65779
1.62408
-0.0691895
0.102898
-1.58789
1.54927
-0.079261
0.117879
-1.50827
1.46496
-0.0888929
0.132207
-1.41937
1.3716
-0.0980371
0.145814
-1.32166
1.26966
-0.106655
0.15866
-1.2156
1.15959
-0.114691
0.170706
-1.10164
1.04185
-0.122111
0.1819
-0.980251
0.916928
-0.128834
0.192158
-0.851955
0.7854
-0.134826
0.201381
-0.717402
0.648023
-0.140108
0.209486
-0.577469
0.505785
-0.144795
0.21648
-0.433293
0.36004
-0.149255
0.222507
-0.286825
0.213358
-0.154025
0.227492
-0.139903
0.0690513
-0.17001
0.240862
-0.00700578
0.00835502
1.78786
-1.78368
1.77688
-0.0281564
0.0349644
-1.76741
1.75531
-0.0506377
0.0627385
-1.74059
1.72326
-0.0728696
0.0902021
-1.70333
1.68082
-0.0946902
0.117199
-1.65575
1.62816
-0.115971
0.143563
-1.59808
1.56554
-0.136612
0.169148
-1.53059
1.49329
-0.156505
0.193815
-1.45367
1.4118
-0.175527
0.217398
-1.36774
1.32156
-0.19358
0.23976
-1.27333
1.22312
-0.210614
0.260819
-1.17101
1.11707
-0.226612
0.280551
-1.06137
1.00396
-0.241538
0.298947
-0.944902
0.884245
-0.255317
0.315974
-0.822038
0.758321
-0.267808
0.331525
-0.693152
0.62658
-0.278769
0.345341
-0.558685
0.489547
-0.287854
0.356992
-0.419291
0.348139
-0.294648
0.3658
-0.276325
0.203922
-0.298967
0.37137
-0.131636
0.0614643
-0.311044
0.381216
-0.00963889
0.0109145
1.72384
-1.71998
1.71356
-0.0416744
0.0480912
-1.70459
1.69307
-0.0747577
0.0862768
-1.67902
1.66245
-0.107478
0.124047
-1.64338
1.62183
-0.13966
0.161213
-1.59781
1.57136
-0.17111
0.19756
-1.54251
1.51127
-0.201658
0.232896
-1.47769
1.4418
-0.231132
0.267021
-1.40364
1.36328
-0.259324
0.299692
-1.32075
1.27612
-0.286049
0.330677
-1.22946
1.18084
-0.311175
0.359795
-1.13034
1.07805
-0.334643
0.386931
-1.02407
0.968476
-0.356439
0.412028
-0.911375
0.852848
-0.376568
0.435095
-0.792969
0.731801
-0.394985
0.456154
-0.66939
0.605773
-0.411435
0.475052
-0.540978
0.475024
-0.425238
0.491192
-0.407939
0.339749
-0.435086
0.503276
-0.270416
0.199991
-0.440528
0.510953
-0.129036
0.0593411
-0.450118
0.519812
-0.0121343
0.0133402
1.6621
-1.65845
1.65237
-0.0544593
0.0605423
-1.64386
1.63294
-0.097712
0.108637
-1.6196
1.60387
-0.140505
0.156238
-1.58575
1.56526
-0.182633
0.203125
-1.54241
1.51723
-0.223864
0.249048
-1.48973
1.45994
-0.263983
0.293774
-1.42788
1.3936
-0.302767
0.337054
-1.35711
1.31847
-0.339938
0.378581
-1.27771
1.23489
-0.375223
0.418044
-1.19006
1.14328
-0.408395
0.455175
-1.09462
1.04415
-0.439281
0.48975
-0.991957
0.938136
-0.467759
0.52158
-0.882789
0.826021
-0.493798
0.550566
-0.767938
0.70864
-0.517447
0.576744
-0.648217
0.586737
-0.538627
0.600107
-0.524256
0.460807
-0.556703
0.620152
-0.396395
0.330949
-0.569999
0.635445
-0.264294
0.196337
-0.577942
0.645899
-0.127272
0.058825
-0.587008
0.655456
-0.0144869
0.015614
1.60269
-1.59909
1.59338
-0.0665551
0.0722703
-1.58538
1.57511
-0.119438
0.129709
-1.56257
1.54775
-0.171804
0.186617
-1.53068
1.51135
-0.223418
0.242748
-1.48977
1.46596
-0.274012
0.29782
-1.43994
1.4117
-0.323336
0.351569
-1.38128
1.3487
-0.37112
0.403701
-1.31399
1.27716
-0.417022
0.453845
-1.23827
1.19735
-0.460699
0.501623
-1.15444
1.10959
-0.501841
0.546689
-1.06286
1.01431
-0.540178
0.588728
-0.964011
0.912043
-0.575455
0.627423
-0.858495
0.803469
-0.607495
0.662521
-0.747075
0.68943
-0.636282
0.693927
-0.630649
0.570841
-0.661828
0.721636
-0.510102
0.448509
-0.683668
0.745261
-0.386097
0.322806
-0.700259
0.76355
-0.258448
0.192824
-0.711205
0.776828
-0.125715
0.0590796
-0.720966
0.787601
-0.0166787
0.0177175
1.54509
-1.54206
1.53676
-0.0778886
0.0831946
-1.52933
1.51978
-0.139812
0.149358
-1.50811
1.49432
-0.2012
0.214996
-1.47839
1.46034
-0.261801
0.279851
-1.44017
1.41786
-0.321321
0.343623
-1.39344
1.3669
-0.379481
0.406021
-1.33825
1.3075
-0.435969
0.466716
-1.27467
1.23978
-0.490384
0.525278
-1.20284
1.1639
-0.542311
0.581258
-1.12297
1.0801
-0.591366
0.634233
-1.03534
0.988731
-0.63719
0.6838
-0.940333
0.890214
-0.67941
0.729529
-0.838449
0.78513
-0.71769
0.77101
-0.730356
0.674245
-0.75185
0.807961
-0.616922
0.558519
-0.781828
0.840231
-0.499164
0.438973
-0.807257
0.867449
-0.378018
0.316292
-0.826941
0.888667
-0.25366
0.189902
-0.840886
0.904644
-0.124417
0.0601488
-0.852046
0.916315
-0.0186905
0.0196303
1.48991
-1.48715
1.4823
-0.0883714
0.09322
-1.47551
1.46677
-0.15868
0.167418
-1.45608
1.44342
-0.228483
0.241147
-1.42877
1.41215
-0.297528
0.314157
-1.39352
1.37288
-0.365507
0.386144
-1.35022
1.32554
-0.432124
0.456807
-1.29883
1.27008
-0.497033
0.525784
-1.23929
1.20647
-0.559776
0.592596
-1.17162
1.13477
-0.619869
0.656723
-1.09592
1.05511
-0.67685
0.71766
-1.01237
0.967725
-0.730266
0.774909
-0.92123
0.872937
-0.779633
0.827926
-0.822911
0.771229
-0.824463
0.876145
-0.717981
0.663277
-0.864373
0.919077
-0.607244
0.550024
-0.899115
0.956335
-0.491771
0.432632
-0.92829
0.987429
-0.372725
0.312103
-0.951077
1.0117
-0.250709
0.188398
-0.967975
1.03029
-0.123961
0.0625557
-0.981
1.04241
-0.0205
0.0213288
1.4366
-1.43396
1.42962
-0.0979036
0.102239
-1.42354
1.41571
-0.175869
0.183701
-1.40611
1.39471
-0.253414
0.264809
-1.38151
1.36647
-0.330305
0.345345
-1.34957
1.33079
-0.406241
0.42502
-1.31011
1.28749
-0.480919
0.503536
-1.26292
1.23637
-0.553971
0.580519
-1.20783
1.17728
-0.624892
0.655441
-1.14471
1.11012
-0.693126
0.727716
-1.07351
1.03489
-0.758129
0.796755
-0.99426
0.951654
-0.819347
0.861952
-0.907101
0.860639
-0.876176
0.922638
-0.81232
0.762207
-0.92797
0.978083
-0.71038
0.656939
-0.974134
1.02758
-0.602006
0.54573
-1.01415
1.07043
-0.488279
0.429833
-1.04748
1.10592
-0.370557
0.310579
-1.07359
1.13357
-0.249926
0.188575
-1.09345
1.1548
-0.124378
0.0655433
-1.10858
1.16741
-0.0220833
0.0227885
1.38534
-1.38303
1.37927
-0.10637
0.110134
-1.37399
1.36716
-0.191177
0.198
-1.35878
1.34879
-0.275713
0.285693
-1.33719
1.32392
-0.359784
0.373052
-1.30895
1.29224
-0.44312
0.459828
-1.27375
1.25344
-0.525432
0.545748
-1.23125
1.20715
-0.606343
0.63044
-1.18111
1.15307
-0.685309
0.713346
-1.12301
1.0909
-0.761712
0.79382
-1.05673
1.02046
-0.834919
0.871185
-0.982099
0.941643
-0.904269
0.944724
-0.899103
0.8545
-0.969018
1.01362
-0.807867
0.759253
-1.02835
1.07697
-0.708723
0.656365
-1.08144
1.1338
-0.602294
0.546659
-1.12745
1.18308
-0.489643
0.431452
-1.16557
1.22376
-0.372307
0.312426
-1.19547
1.25535
-0.251945
0.191069
-1.21856
1.27944
-0.126042
0.0696687
-1.23573
1.29211
-0.0234156
0.023985
1.33576
-1.33383
1.3307
-0.113653
0.116785
-1.32629
1.32058
-0.204393
0.210098
-1.31355
1.30513
-0.295079
0.30349
-1.29531
1.28401
-0.385587
0.396882
-1.2712
1.2568
-0.475698
0.490091
-1.24077
1.22304
-0.565164
0.582899
-1.20353
1.18219
-0.65362
0.67496
-1.15895
1.13374
-0.740504
0.76571
-1.10651
1.0772
-0.825144
0.854459
-1.04575
1.01212
-0.906821
0.940451
-0.97627
0.938179
-0.984758
1.02285
-0.897824
0.855202
-1.05806
1.10068
-0.810321
0.763206
-1.12572
1.17284
-0.713902
0.662481
-1.18664
1.23806
-0.609047
0.553742
-1.23961
1.29492
-0.49676
0.438341
-1.28346
1.34188
-0.378768
0.318376
-1.3179
1.37829
-0.257453
0.196587
-1.34471
1.40558
-0.129594
0.0760025
-1.36437
1.41796
-0.0244732
0.0248962
1.28805
-1.28634
1.28389
-0.119631
0.122075
-1.28044
1.27596
-0.2153
0.219786
-1.27039
1.2637
-0.3112
0.317891
-1.25583
1.24671
-0.407303
0.416422
-1.23628
1.22446
-0.503474
0.515295
-1.21117
1.19632
-0.599533
0.614379
-1.17983
1.1616
-0.69516
0.713388
-1.14154
1.11955
-0.789799
0.811786
-1.09555
1.06943
-0.882749
0.908868
-1.04111
1.01051
-0.973221
1.00382
-0.977544
0.942158
-1.06032
1.09571
-0.904289
0.863894
-1.14301
1.1834
-0.820944
0.775431
-1.22003
1.26555
-0.727368
0.676799
-1.29
1.34057
-0.623803
0.568514
-1.35128
1.40657
-0.511124
0.451905
-1.40216
1.46138
-0.391216
0.329543
-1.44226
1.50393
-0.267388
0.205965
-1.4737
1.53512
-0.135675
0.0852268
-1.49651
1.54695
-0.0252365
0.0255053
1.2422
-1.24092
1.23921
-0.124196
0.125908
-1.23678
1.2336
-0.2237
0.22688
-1.22962
1.22478
-0.323778
0.328617
-1.21902
1.21227
-0.424529
0.431284
-1.20443
1.19543
-0.52593
0.53493
-1.18517
1.17353
-0.627908
0.639546
-1.16041
1.14568
-0.730225
0.744952
-1.12922
1.11091
-0.832373
0.850685
-1.09061
1.06819
-0.933661
0.956079
-1.04353
1.01648
-1.03326
1.06031
-0.986927
0.954751
-1.1302
1.16238
-0.919841
0.882098
-1.22327
1.26101
-0.841438
0.797798
-1.311
1.35464
-0.751139
0.701455
-1.39166
1.44134
-0.648786
0.59323
-1.46306
1.51862
-0.534968
0.474289
-1.52285
1.58353
-0.411626
0.347646
-1.57022
1.6342
-0.283148
0.22026
-1.60761
1.6705
-0.144854
0.0977847
-1.63459
1.68166
-0.0256917
0.0258024
1.19765
-1.19702
1.19607
-0.127265
0.128213
-1.19471
1.19289
-0.229431
0.231246
-1.19057
1.18769
-0.332561
0.335445
-1.18417
1.17993
-0.436899
0.441134
-1.17489
1.16894
-0.54257
0.54852
-1.16197
1.15386
-0.649644
0.657758
-1.14447
1.13366
-0.758011
0.768821
-1.12128
1.10716
-0.86727
0.881384
-1.09115
1.07306
-0.976797
0.994887
-1.05271
1.02993
-1.08579
1.10858
-1.00452
0.976307
-1.19325
1.22146
-0.945102
0.910731
-1.29786
1.33223
-0.87303
0.83185
-1.39795
1.43913
-0.787067
0.738592
-1.49141
1.53988
-0.686382
0.630469
-1.57546
1.63137
-0.570982
0.508203
-1.64683
1.70961
-0.44262
0.375112
-1.70394
1.77145
-0.306882
0.241349
-1.74944
1.81497
-0.158726
0.1157
-1.78239
1.82542
-0.0258335
0.0257872
1.15496
-1.15478
1.15461
-0.128786
0.128963
-1.15432
1.1539
-0.232388
0.232815
-1.15328
1.1524
-0.337364
0.338242
-1.15119
1.14958
-0.444122
0.445736
-1.14746
1.14473
-0.552956
0.555684
-1.14128
1.13696
-0.664119
0.668437
-1.13163
1.12514
-0.777681
0.784176
-1.1173
1.10793
-0.893412
0.902781
-1.09683
1.08378
-1.01084
1.02389
-1.06856
1.05092
-1.12928
1.14692
-1.03061
1.00738
-1.24781
1.27105
-0.980942
0.951034
-1.36513
1.39504
-0.917374
0.879693
-1.47946
1.51714
-0.837732
0.79126
-1.58838
1.63486
-0.740089
0.684107
-1.68848
1.74446
-0.623319
0.55792
-1.77532
1.84071
-0.488392
0.415803
-1.84595
1.91854
-0.341875
0.271669
-1.90289
1.97309
-0.178841
0.140573
-1.94507
1.98334
-0.0256668
0.0254701
1.11374
-1.11384
1.11441
-0.128755
0.128178
-1.11519
1.11613
-0.232548
0.231607
-1.11719
1.11831
-0.338114
0.336995
-1.11942
1.12045
-0.446032
0.445001
-1.12131
1.12189
-0.556781
0.556198
-1.12208
1.12175
-0.670823
0.671157
-1.12074
1.11889
-0.78846
0.790309
-1.11602
1.11192
-0.909703
0.913806
-1.10636
1.09911
-1.03432
1.04158
-1.08989
1.07841
-1.16189
1.17336
-1.06437
1.04742
-1.2917
1.30865
-1.02719
1.00331
-1.42267
1.44655
-0.97534
0.942862
-1.55314
1.58562
-0.905421
0.862566
-1.68063
1.72348
-0.813866
0.75894
-1.8012
1.85613
-0.69752
0.629552
-1.90911
1.97708
-0.55534
0.475997
-1.99929
2.07864
-0.393818
0.315591
-2.07313
2.15136
-0.209297
0.175141
-2.12994
2.1641
-0.0252069
0.0248715
1.074
-1.07471
1.076
-0.12722
0.125931
-1.07778
1.08002
-0.229975
0.227734
-1.08268
1.08572
-0.334865
0.331829
-1.08907
1.09268
-0.442625
0.439018
-1.09646
1.10033
-0.55392
0.550051
-1.10418
1.10789
-0.669436
0.665724
-1.11133
1.11433
-0.789738
0.786739
-1.11671
1.11828
-0.915138
0.913568
-1.11881
1.11804
-1.04575
1.04652
-1.11569
1.11143
-1.18151
1.18576
-1.10492
1.09575
-1.32215
1.33132
-1.08348
1.06762
-1.46708
1.48295
-1.04761
1.02282
-1.61516
1.63994
-0.992593
0.956168
-1.76432
1.80075
-0.912752
0.861524
-1.91069
1.96192
-0.801704
0.732672
-2.04752
2.11656
-0.654177
0.566965
-2.16702
2.25423
-0.473574
0.382236
-2.2674
2.35873
-0.259659
0.227617
-2.34875
2.38079
-0.0244797
0.0240218
1.03554
-1.03664
1.03857
-0.124279
0.122345
-1.04126
1.04469
-0.224832
0.221406
-1.04882
1.05363
-0.327813
0.323009
-1.05906
1.06508
-0.434088
0.42807
-1.07162
1.07862
-0.544487
0.537487
-1.086
1.09366
-0.659911
0.652255
-1.10148
1.10934
-0.781197
0.77334
-1.11708
1.12452
-0.908987
0.901544
-1.13146
1.13767
-1.04379
1.03758
-1.14287
1.14676
-1.18605
1.18216
-1.14898
1.14911
-1.3361
1.33597
-1.14668
1.14115
-1.49415
1.49968
-1.13186
1.11806
-1.66005
1.67385
-1.09886
1.07323
-1.83301
1.85864
-1.03995
0.997627
-2.01044
2.05277
-0.944685
0.879485
-2.18607
2.25127
-0.800512
0.707099
-2.35014
2.44355
-0.600534
0.489199
-2.49501
2.60634
-0.344558
0.306982
-2.62212
2.6597
-0.0235188
0.0229579
0.998542
-1.00017
1.00266
-0.120078
0.117585
-1.00614
1.0106
-0.217371
0.212912
-1.01602
1.02238
-0.317293
0.310932
-1.02967
1.03784
-0.420807
0.412635
-1.04687
1.05672
-0.528864
0.519015
-1.06733
1.07865
-0.642545
0.631223
-1.09061
1.1031
-0.762933
0.75044
-1.11602
1.12925
-0.890987
0.877761
-1.14262
1.15596
-1.02762
1.01429
-1.16905
1.18163
-1.17381
1.16123
-1.1934
1.20402
-1.33061
1.31999
-1.21306
1.22
-1.49921
1.49226
-1.22424
1.22502
-1.68093
1.68016
-1.2214
1.21223
-1.87714
1.88631
-1.19603
1.17096
-2.08837
2.11344
-1.13467
1.08431
-2.3121
2.36246
-1.01644
0.927359
-2.54127
2.63035
-0.814119
0.679821
-2.76484
2.89914
-0.507566
0.441411
-2.98484
3.051
-0.0223641
0.0217214
0.963008
-0.964732
0.967683
-0.1148
0.111848
-0.971816
0.977129
-0.207913
0.2026
-0.983618
0.991278
-0.303757
0.296097
-1.00011
1.0101
-0.403341
0.393349
-1.02125
1.03354
-0.507685
0.495391
-1.04697
1.0615
-0.617992
0.603458
-1.07711
1.09377
-0.735525
0.718872
-1.11141
1.12998
-0.861497
0.84293
-1.14938
1.16953
-0.997167
0.97702
-1.19029
1.21152
-1.14397
1.12275
-1.23301
1.25456
-1.30361
1.28206
-1.27589
1.29665
-1.47824
1.45748
-1.31642
1.33468
-1.67073
1.65248
-1.35072
1.36366
-1.88502
1.87209
-1.37227
1.37489
-2.12621
2.1236
-1.36921
1.35204
-2.39958
2.41676
-1.31894
1.26373
-2.71025
2.76547
-1.17863
1.05022
-3.06614
3.19455
-0.879681
0.802281
-3.4965
3.5739
0.0303802
-0.141206
0.110826
-0.13226
0.222458
-0.0901983
-0.287504
0.333394
-0.0458897
-0.367106
0.390527
-0.0234212
-0.400935
0.398791
0.00214417
-0.379075
0.330805
0.0482699
-0.241333
0.0857124
0.155621
0.175367
-0.577837
0.40247
1.07182
-1.57731
0.505489
1.98642
-2.25992
0.2735
2.41272
-2.48994
0.0772205
2.51164
-2.54061
0.0289637
2.53103
-2.54206
0.0110338
2.54947
-2.52976
-0.0197114
2.51594
-2.49567
-0.0202724
2.50869
-2.57948
0.0707931
2.65823
-2.70809
0.0498621
2.74198
-2.79143
0.0494498
2.87244
-2.95579
0.0833459
3.0311
-3.16437
0.133272
3.16938
-2.87214
-0.297245
2.58826
-2.46621
-0.12205
2.33785
-2.04805
-0.289796
1.50733
0.225295
-1.73262
-1.96817
3.184
-1.21583
-3.99807
4.58682
-0.588748
-5.0371
5.39008
-0.352977
-5.66997
5.89261
-0.22264
-6.0688
6.20649
-0.137693
-6.31216
6.3912
-0.0790409
-6.44834
6.48768
-0.0393408
-6.51285
6.52674
-0.0138965
-6.53229
6.53149
0.000792681
-6.52521
6.51604
0.00916854
-6.50501
6.49306
0.0119482
-6.48089
6.46892
0.0119757
-6.4574
6.44645
0.010947
-6.43605
6.42606
0.00999365
-6.41629
6.40656
0.00973077
-6.3967
6.38661
0.0100925
-6.37625
6.36566
0.0105882
-6.3549
6.34403
0.0108754
-6.33306
6.322
0.0110575
-6.31084
6.29962
0.0112163
-6.28847
6.27758
0.0108857
-6.26714
6.25728
0.00986079
-6.24804
6.23945
0.008596
-6.23142
6.22389
0.00752854
-6.2168
6.21009
0.00670447
-6.20378
6.19787
0.00591638
-6.19233
6.1871
0.00522907
-6.18206
6.17711
0.00494595
-6.17217
6.16722
0.00495017
-6.16227
6.1574
0.0048689
-6.15264
6.1481
0.00453565
-6.14373
6.13963
0.00409865
-6.13568
6.13193
0.00374984
-6.12833
6.12484
0.00349366
-6.1215
6.11819
0.00331256
-6.11509
6.11197
0.00311949
0.259326
-0.367398
0.108072
-0.18128
0.231044
0.149013
-0.198778
-0.276494
0.316471
0.0882677
-0.128244
-0.350164
0.377393
0.0486855
-0.0759145
-0.396252
0.405832
0.00201105
-0.011591
-0.405655
0.392975
-0.0747793
0.0874597
-0.366461
0.32592
-0.241146
0.281688
-0.269619
0.197356
-0.606027
0.67829
-0.0677935
-0.179674
-0.922198
1.16967
0.390749
-0.562225
-0.690359
0.861835
1.01445
-1.56128
-0.351848
0.898677
2.17262
-2.54686
-0.126424
0.500669
2.63786
-2.65152
-0.0195253
0.0331866
2.61541
-2.56968
-0.00236454
-0.0433738
2.55299
-2.56209
0.035678
-0.026576
2.58377
-2.60554
-0.0640547
0.0858275
2.63576
-2.67924
-0.0970121
0.140486
2.7155
-2.73582
-0.0897669
0.110081
2.70837
-2.49984
-0.121005
-0.0875273
2.12791
-1.93491
-0.045319
-0.147684
2.19299
-2.71492
0.227273
0.294657
2.92525
-2.83763
0.337264
-0.424885
2.59818
-0.984411
1.35474
-2.96851
-0.848309
2.08635
3.08047
-4.31851
-2.81777
3.50227
2.13756
-2.82205
-4.1244
4.65085
1.15666
-1.6831
-5.08621
5.44486
0.711996
-1.07064
-5.73948
5.97978
0.456552
-0.696858
-6.17331
6.32705
0.285648
-0.439386
-6.44694
6.53828
0.166173
-0.257514
-6.6061
6.65471
0.084885
-0.133497
-6.68787
6.70883
0.0327692
-0.053732
-6.72027
6.72553
0.000778229
-0.00603259
-6.72507
6.7212
-0.0148621
0.0187276
-6.71505
6.70759
-0.0211125
0.028576
-6.69957
6.69154
-0.0216176
0.0296564
-6.6838
6.67654
-0.0197699
0.0270259
-6.66981
6.66359
-0.0178171
0.0240358
-6.65781
6.65229
-0.0170296
0.0225433
-6.64689
6.64145
-0.017483
0.0229138
-6.63591
6.63024
-0.018304
0.0239691
-6.62448
6.61862
-0.0188264
0.0246893
-6.61265
6.60653
-0.0192521
0.0253703
-6.60018
6.59355
-0.0197478
0.0263692
-6.58672
6.57982
-0.019416
0.0263121
-6.57307
6.56659
-0.0177277
0.0242086
-6.56049
6.55479
-0.0154826
0.021175
-6.54948
6.54449
-0.0135446
0.0185279
-6.53979
6.53533
-0.0120504
0.0165081
-6.53113
6.52723
-0.0106109
0.014513
-6.52363
6.5203
-0.00931891
0.0126492
-6.51714
6.51403
-0.00879421
0.0119064
-6.51087
6.50761
-0.00889723
0.0121573
-6.50424
6.5008
-0.00892057
0.0123676
-6.49734
6.4939
-0.00848345
0.0119239
-6.49053
6.48719
-0.00783851
0.0111735
-6.48391
6.48065
-0.00731172
0.0105717
-6.47743
6.47426
-0.00689875
0.010063
-6.47116
6.4681
-0.00660233
0.00965954
-6.46517
6.46225
-0.00626459
0.00918404
0.462554
-0.544658
0.0821036
-0.161359
0.210623
0.24672
-0.295984
-0.251353
0.289669
0.165805
-0.204121
-0.325358
0.35648
0.103865
-0.134987
-0.384058
0.404764
0.0261143
-0.0468203
-0.418329
0.426384
-0.0875143
0.0794598
-0.429248
0.430661
-0.295148
0.293734
-0.437584
0.460573
-0.684257
0.661268
-0.512388
0.578407
-1.21705
1.15103
-0.52188
0.423983
-0.833443
0.93134
-0.423428
0.4609
-0.30159
0.264117
-0.639555
1.38408
-0.962875
0.218349
-1.55949
0.904598
-0.82519
1.48008
-0.31587
-0.0943031
-0.174389
0.584562
0.352542
-0.469686
-0.00332134
0.120466
0.463947
-0.322456
0.0720626
-0.213553
0.0418796
0.343862
0.250866
-0.636607
-0.825821
1.39375
0.419514
-0.987443
-1.92191
2.08583
-0.0828688
-0.0810501
-1.71806
1.0698
-0.427865
1.07613
-0.213194
-0.509589
-0.924172
1.64696
0.597531
-0.0582516
0.800589
-1.33987
-2.12655
2.85315
4.06876
-4.79537
-3.09255
3.31814
4.84669
-5.07228
-3.62769
4.00986
3.325
-3.70717
-4.42393
4.82633
2.14432
-2.54671
-5.19351
5.51677
1.412
-1.73526
-5.79268
6.02287
0.932672
-1.16286
-6.21075
6.36041
0.591724
-0.741388
-6.47717
6.56619
0.348261
-0.437278
-6.63213
6.67969
0.182013
-0.229566
-6.71269
6.73435
0.0753317
-0.0969952
-6.74747
6.75429
0.0119781
-0.0187969
-6.75664
6.75595
-0.0210364
0.0217203
-6.75335
6.74967
-0.0342343
0.037916
-6.74554
6.74141
-0.0358435
0.0399734
-6.73757
6.73415
-0.0324813
0.0359013
-6.7312
6.72877
-0.0284451
0.0308798
-6.72681
6.7252
-0.026152
0.0277585
-6.72379
6.7224
-0.0263557
0.0277469
-6.72092
6.71933
-0.0275895
0.0291809
-6.71765
6.71589
-0.0284668
0.0302215
-6.71405
6.712
-0.0294405
0.0314909
-6.70958
6.70665
-0.0311109
0.0340353
-6.70322
6.69946
-0.0315723
0.0353384
-6.6956
6.69183
-0.0292837
0.0330586
-6.68824
6.68487
-0.0256696
0.029034
-6.68172
6.67872
-0.0224735
0.0254697
-6.67584
6.67305
-0.0200903
0.0228837
-6.67036
6.66787
-0.0176667
0.0201555
-6.66566
6.6637
-0.0152519
0.0172068
-6.66191
6.66014
-0.014314
0.016083
-6.65828
6.65625
-0.0147632
0.0167856
-6.65406
6.65174
-0.0152107
0.0175344
-6.64935
6.64695
-0.0148162
0.0172161
-6.64457
6.64218
-0.0140193
0.0164072
-6.63975
6.63727
-0.0134312
0.0159137
-6.63476
6.63228
-0.012876
0.0153551
-6.62984
6.62746
-0.0123677
0.0147382
-6.62513
6.62288
-0.0117551
0.0140063
0.616471
-0.676224
0.0597524
-0.127873
0.17433
0.34389
-0.390347
-0.219427
0.263104
0.244967
-0.288644
-0.303782
0.340442
0.16931
-0.20597
-0.372052
0.398985
0.0706793
-0.0976116
-0.420538
0.438492
-0.0660841
0.0481301
-0.454938
0.4731
-0.28222
0.264058
-0.498477
0.53809
-0.62662
0.587007
-0.599253
0.688744
-1.05637
0.966874
-0.76841
0.737686
-1.02247
1.0532
-0.61821
0.483029
-0.341288
0.476468
-0.397601
0.374379
-0.0972673
0.12049
-0.511387
1.14208
-1.25507
0.624373
-1.37423
1.22318
-0.981078
1.13213
-0.91685
0.678332
-0.321917
0.560434
-0.535627
0.484845
0.261901
-0.211119
-0.507118
0.516154
0.838307
-0.847343
-0.496826
0.504987
0.968732
-0.976893
-0.580101
0.752364
0.669187
-0.841449
-1.23168
1.74865
-1.04964
0.532673
-1.82585
1.40935
-2.35507
2.77156
-1.70558
3.25579
2.11532
-3.66552
-3.76495
3.99623
5.56637
-5.79764
-4.01416
4.09124
5.19023
-5.26732
-4.25547
4.49456
4.00028
-4.23937
-4.77845
5.08074
2.89061
-3.19289
-5.37631
5.64953
2.03076
-2.30397
-5.88966
6.09326
1.37922
-1.58282
-6.25954
6.39154
0.882355
-1.01436
-6.49349
6.57088
0.520532
-0.597921
-6.62809
6.66973
0.274045
-0.315682
-6.69937
6.72
0.117878
-0.138504
-6.73396
6.74329
0.0265377
-0.0358653
-6.74942
6.75342
-0.0203941
0.0163877
-6.75611
6.75803
-0.0391017
0.037177
-6.75962
6.76117
-0.0414991
0.0399459
-6.76288
6.76477
-0.0368501
0.0349594
-6.76688
6.76926
-0.0310246
0.0286436
-6.77199
6.77501
-0.0271242
0.0241011
-6.77817
6.78125
-0.026946
0.023864
-6.78413
6.78676
-0.0286653
0.0260366
-6.78924
6.79163
-0.0298855
0.0274972
-6.79392
6.796
-0.0314653
0.0293903
-6.79759
6.79836
-0.0350875
0.0343139
-6.79823
6.79744
-0.0375584
0.0383525
-6.79634
6.79515
-0.0354898
0.0366811
-6.79399
6.79288
-0.0312263
0.0323414
-6.79181
6.79072
-0.0274656
0.0285543
-6.78956
6.7883
-0.0248662
0.026128
-6.78697
6.78569
-0.0219857
0.0232667
-6.78465
6.78391
-0.0185062
0.0192419
-6.78336
6.7828
-0.0172179
0.0177856
-6.78207
6.78111
-0.0182298
0.0191836
-6.77994
6.77859
-0.019326
0.0206811
-6.77713
6.77567
-0.0191052
0.0205703
-6.77424
6.77278
-0.0182975
0.019756
-6.77122
6.76952
-0.0179682
0.0196631
-6.76774
6.76597
-0.017456
0.0192321
-6.76424
6.7626
-0.0167201
0.0183626
-6.76094
6.75932
-0.0159058
0.0175203
0.724286
-0.758616
0.0343301
-0.0912789
0.137048
0.435195
-0.480964
-0.184367
0.231507
0.333103
-0.380243
-0.275794
0.316107
0.244457
-0.28477
-0.352307
0.384306
0.127031
-0.15903
-0.412136
0.436965
-0.0267119
0.00188216
-0.460557
0.485764
-0.2419
0.216692
-0.517152
0.558772
-0.545908
0.504288
-0.613598
0.682804
-0.888615
0.819409
-0.757542
0.798345
-1.03336
0.992553
-0.7659
0.651726
-0.619207
0.73338
-0.510474
0.403575
-0.194811
0.301709
-0.348759
0.333768
-0.298913
0.313905
-0.503994
0.911909
-1.01277
0.604855
-1.05381
1.02259
-0.743903
0.775131
-0.914727
0.783964
0.0952047
0.035558
-0.634871
0.52917
0.784841
-0.679141
-0.484396
0.471705
0.974132
-0.961441
-0.485616
0.535189
0.928156
-0.977729
-0.633601
0.822177
-0.010802
-0.177773
-1.52407
2.15871
-2.78099
2.14635
-3.69187
4.42069
4.99055
-5.71937
-4.46799
4.47251
5.82411
-5.82863
-4.4928
4.56095
5.32917
-5.39732
-4.68919
4.87039
4.43993
-4.62112
-5.08939
5.32927
3.45716
-3.69704
-5.56944
5.79514
2.55026
-2.77595
-5.99419
6.16205
1.76744
-1.9353
-6.2973
6.40282
1.13258
-1.2381
-6.48411
6.54623
0.666926
-0.729047
-6.59351
6.63006
0.353803
-0.390348
-6.65871
6.68147
0.159245
-0.182005
-6.69992
6.71556
0.0475593
-0.063192
-6.72916
6.74131
-0.00887798
-0.0032727
-6.7524
6.76265
-0.0314816
0.0212295
-6.77223
6.78138
-0.0348274
0.0256775
-6.79019
6.79866
-0.0299184
0.0214482
-6.80672
6.81447
-0.0236189
0.0158669
-6.82217
6.82995
-0.0186888
0.0109077
-6.8377
6.84518
-0.0185573
0.0110779
-6.85218
6.85867
-0.0214111
0.0149204
-6.86484
6.87085
-0.0232144
0.017203
-6.87675
6.88249
-0.0254012
0.0196642
-6.88774
6.89192
-0.0317888
0.0276122
-6.89467
6.89639
-0.0378089
0.036089
-6.89763
6.89863
-0.0366992
0.035699
-6.89949
6.90024
-0.0324463
0.0317038
-6.90085
6.9013
-0.0287994
0.0283554
-6.90153
6.90149
-0.0267166
0.0267564
-6.90118
6.90072
-0.0240672
0.0245256
-6.90042
6.90052
-0.0194908
0.0193902
-6.90088
6.90118
-0.0178639
0.0175675
-6.90125
6.90106
-0.0197018
0.0198898
-6.90061
6.89996
-0.0216393
0.0222976
-6.89916
6.89836
-0.0216491
0.0224502
-6.89763
6.89691
-0.0208012
0.0215269
-6.89602
6.89493
-0.0210081
0.0220924
-6.8937
6.89245
-0.0206964
0.0219467
-6.8913
6.89029
-0.0196587
0.0206752
-6.88922
6.88811
-0.0188536
0.0199691
0.782292
-0.801963
0.0196715
-0.0661045
0.113989
0.528791
-0.576675
-0.158357
0.200933
0.425798
-0.468374
-0.243756
0.28576
0.325271
-0.367274
-0.325246
0.361659
0.193049
-0.229463
-0.394857
0.425296
0.0255954
-0.0560337
-0.454101
0.483273
-0.189432
0.160259
-0.515637
0.554423
-0.463894
0.425107
-0.601386
0.655899
-0.758603
0.70409
-0.712619
0.756104
-0.947999
0.904514
-0.766302
0.722947
-0.807422
0.850777
-0.627208
0.511723
-0.420664
0.536149
-0.420845
0.371261
-0.346485
0.396069
-0.34168
0.324828
-0.435739
0.452591
-0.525358
0.699332
-0.659879
0.485905
-0.755595
0.714367
-0.155142
0.196371
-0.611034
0.54876
0.537387
-0.475114
-0.510294
0.48048
0.937367
-0.907553
-0.457229
0.440241
0.991478
-0.97449
-0.434646
0.574335
0.286212
-0.425901
-0.197579
3.03948
-0.954063
-1.88784
-4.61458
4.62155
6.0119
-6.01886
-4.66386
4.7093
5.84722
-5.89266
-4.77024
4.86063
5.47453
-5.56492
-4.98629
5.14755
4.78735
-4.9486
-5.33466
5.53406
3.91254
-4.11194
-5.73052
5.91064
2.97676
-3.15688
-6.06542
6.1915
2.08181
-2.20789
-6.29188
6.36915
1.32814
-1.40542
-6.43207
6.48528
0.78445
-0.837653
-6.53152
6.57269
0.426909
-0.468079
-6.61002
6.64387
0.208539
-0.242389
-6.6747
6.7031
0.0841117
-0.112514
-6.72918
6.75316
0.0207808
-0.0447602
-6.77514
6.79534
-0.00612447
-0.0140723
-6.81397
6.83113
-0.012529
-0.00462848
-6.84706
6.86185
-0.00973799
-0.00505738
-6.8754
6.88771
-0.00572286
-0.00658501
-6.89923
6.91033
-0.00122564
-0.00987581
-6.92119
6.93177
-0.00187704
-0.00870629
-6.94174
6.95084
-0.00698414
-0.0021199
-6.95936
6.96761
-0.00992467
0.00167831
-6.97557
6.98338
-0.0126568
0.00484274
-6.99101
6.9978
-0.0220404
0.0152445
-7.00277
7.00635
-0.0333934
0.0298163
-7.00931
7.01181
-0.0338589
0.031358
-7.01392
7.01567
-0.030322
0.0285647
-7.01712
7.0183
-0.0274132
0.0262338
-7.01924
7.0199
-0.0263618
0.0257004
-7.02022
7.02016
-0.0247369
0.0248054
-7.01999
7.02032
-0.0190887
0.018754
-7.02102
7.02161
-0.0170407
0.0164454
-7.02201
7.02221
-0.0198473
0.0196518
-7.02221
7.02201
-0.0227149
0.0229175
-7.02161
7.02111
-0.0230602
0.0235583
-7.02069
7.0203
-0.0220177
0.0224082
-7.01975
7.019
-0.0229721
0.0237233
-7.01807
7.01708
-0.0230246
0.0240191
-7.01626
7.01564
-0.0214569
0.0220721
-7.01508
7.01428
-0.0208901
0.0216929
0.825958
-0.847245
0.0212865
-0.0587882
0.0925962
0.617714
-0.651522
-0.127335
0.165348
0.508508
-0.546521
-0.207211
0.250408
0.409587
-0.452783
-0.292052
0.331556
0.267419
-0.306924
-0.369
0.40433
0.0886796
-0.124009
-0.437852
0.47031
-0.12983
0.0973729
-0.502689
0.537065
-0.389003
0.354627
-0.575123
0.618238
-0.655847
0.612732
-0.663505
0.701837
-0.863793
0.825461
-0.722869
0.71394
-0.872234
0.881163
-0.666126
0.587259
-0.634921
0.713788
-0.504277
0.439544
-0.457207
0.52194
-0.401225
0.390574
-0.472948
0.483599
-0.400861
0.433273
-0.443611
0.411199
-0.494911
0.557854
-0.111687
0.0487447
-0.578346
0.579103
0.461225
-0.461982
-0.56526
0.545132
0.88011
-0.859982
-0.525991
0.526387
0.956026
-0.956421
-0.596705
0.188264
0.147758
0.260683
-3.45252
4.55395
5.171
-6.27243
-4.61179
4.67909
6.07495
-6.14225
-4.75943
4.84977
5.96013
-6.05047
-4.94797
5.06262
5.66746
-5.78212
-5.19643
5.34871
5.10382
-5.2561
-5.51346
5.67699
4.29225
-4.45578
-5.82718
5.95595
3.31146
-3.44023
-6.05777
6.13568
2.31026
-2.38816
-6.2073
6.26621
1.4702
-1.52912
-6.33346
6.40373
0.894032
-0.964296
-6.4736
6.53976
0.518543
-0.584708
-6.60067
6.65694
0.285952
-0.342218
-6.70869
6.75212
0.148776
-0.192207
-6.7896
6.82299
0.0742474
-0.107632
-6.85281
6.87951
0.0382504
-0.0649506
-6.90338
6.92469
0.0244951
-0.0458066
-6.94372
6.9609
0.0216422
-0.0388227
-6.97659
6.99082
0.0200813
-0.0343095
-7.00357
7.01523
0.0215108
-0.0331702
-7.02632
7.03725
0.0197159
-0.0306409
-7.048
7.05832
0.0118305
-0.0221453
-7.06793
7.07688
0.00695756
-0.0159067
-7.08514
7.09261
0.00300754
-0.0104743
-7.09959
7.1064
-0.00784309
0.00103472
-7.11279
7.11831
-0.0256975
0.0201777
-7.12277
7.12637
-0.0283413
0.0247439
-7.12916
7.1313
-0.0266179
0.0244852
-7.13294
7.13425
-0.02497
0.0236526
-7.1354
7.13649
-0.0248201
0.0237295
-7.13754
7.13844
-0.0246028
0.0237053
-7.13908
7.13953
-0.0183764
0.0179241
-7.13991
7.14031
-0.0158849
0.0154782
-7.14077
7.14127
-0.0193176
0.0188142
-7.14177
7.14221
-0.0228452
0.0224021
-7.1425
7.14253
-0.0239029
0.0238766
-7.1423
7.14195
-0.0227128
0.0230631
-7.14159
7.14124
-0.0242947
0.0246501
-7.14083
7.14034
-0.0248709
0.0253553
-7.13985
7.13936
-0.0225418
0.0230249
-7.13932
7.13913
-0.0222951
0.0224855
0.863821
-0.875634
0.0118128
-0.0415938
0.0646408
0.679862
-0.702909
-0.0962197
0.134623
0.583911
-0.622315
-0.173424
0.212649
0.494464
-0.533689
-0.252737
0.293132
0.346714