/*--------------------------------*- C++ -*----------------------------------*\
| =========                 |                                                 |
| \\      /  F ield         | OpenFOAM: The Open Source CFD Toolbox           |
|  \\    /   O peration     | Version:  v1912                                 |
|   \\  /    A nd           | Website:  www.openfoam.com                      |
|    \\/     M anipulation  |                                                 |
\*---------------------------------------------------------------------------*/
FoamFile
{
    version     2.0;
    format      ascii;
    class       volVectorField;
    location    "28";
    object      U;
}
// * * * * * * * * * * * * * * * * * * * * * * * * * * * * * * * * * * * * * //

dimensions      [0 1 -1 0 0 0 0];


internalField   nonuniform List<vector> 
20320
(
(1.85489 0.00628839 0)
(1.85352 -0.00535065 0)
(1.83806 0.00417522 0)
(1.80865 0.0120973 0)
(1.76769 0.0193309 0)
(1.71634 0.0262155 0)
(1.65477 0.0326481 0)
(1.58322 0.0387341 0)
(1.50216 0.0444926 0)
(1.41214 0.0498766 0)
(1.31372 0.0548955 0)
(1.20747 0.0595904 0)
(1.09394 0.0640942 0)
(0.973812 0.0679318 0)
(0.847628 0.0711802 0)
(0.715944 0.0739761 0)
(0.579065 0.0769409 0)
(0.436887 0.0813775 0)
(0.286609 0.0915654 0)
(0.126888 0.136784 0)
(1.85503 0.0112679 0)
(1.84646 0.0356274 0)
(1.82708 0.0666399 0)
(1.79684 0.0977486 0)
(1.7556 0.128287 0)
(1.7036 0.158149 0)
(1.64129 0.187185 0)
(1.56895 0.215213 0)
(1.48701 0.242064 0)
(1.3959 0.267607 0)
(1.29608 0.291748 0)
(1.18802 0.314367 0)
(1.07218 0.335346 0)
(0.949017 0.354508 0)
(0.819078 0.371684 0)
(0.683043 0.386804 0)
(0.54185 0.400062 0)
(0.396724 0.412175 0)
(0.249597 0.423739 0)
(0.101421 0.459473 0)
(1.85502 0.0170433 0)
(1.84654 0.0698261 0)
(1.82694 0.125367 0)
(1.79646 0.180378 0)
(1.75517 0.234538 0)
(1.70324 0.287477 0)
(1.6409 0.33888 0)
(1.56844 0.38846 0)
(1.48629 0.435892 0)
(1.39492 0.480907 0)
(1.2949 0.52335 0)
(1.18683 0.563181 0)
(1.0713 0.600356 0)
(0.94883 0.634741 0)
(0.819825 0.666038 0)
(0.684661 0.693661 0)
(0.543818 0.716712 0)
(0.398138 0.733946 0)
(0.24859 0.745056 0)
(0.0975684 0.77679 0)
(1.85502 0.0228254 0)
(1.84678 0.0997153 0)
(1.82755 0.17895 0)
(1.7974 0.257309 0)
(1.75642 0.334385 0)
(1.7048 0.409733 0)
(1.64278 0.482953 0)
(1.57056 0.553625 0)
(1.48851 0.621246 0)
(1.39704 0.685346 0)
(1.29666 0.745578 0)
(1.18803 0.80175 0)
(1.0719 0.853803 0)
(0.949065 0.901777 0)
(0.820266 0.945667 0)
(0.686016 0.985012 0)
(0.546627 1.01836 0)
(0.402415 1.04269 0)
(0.252732 1.05748 0)
(0.0991512 1.09171 0)
(1.85502 0.0282891 0)
(1.84691 0.127732 0)
(1.82799 0.229249 0)
(1.79832 0.329711 0)
(1.75793 0.428641 0)
(1.707 0.5255 0)
(1.6457 0.619793 0)
(1.57421 0.710993 0)
(1.49283 0.798445 0)
(1.40192 0.881502 0)
(1.3019 0.959609 0)
(1.19333 1.03232 0)
(1.07688 1.09929 0)
(0.953381 1.16039 0)
(0.823788 1.21573 0)
(0.688973 1.26523 0)
(0.549586 1.30763 0)
(0.406011 1.33938 0)
(0.256746 1.36021 0)
(0.101555 1.40061 0)
(1.85502 0.0334245 0)
(1.84712 0.154189 0)
(1.82867 0.276797 0)
(1.79971 0.398247 0)
(1.76023 0.518001 0)
(1.71035 0.635443 0)
(1.65017 0.749999 0)
(1.5798 0.86104 0)
(1.49949 0.967773 0)
(1.4095 1.06939 0)
(1.31022 1.16517 0)
(1.20208 1.25445 0)
(1.08568 1.33661 0)
(0.961751 1.41115 0)
(0.831234 1.47798 0)
(0.695193 1.53711 0)
(0.554665 1.58763 0)
(0.410391 1.62638 0)
(0.260876 1.65381 0)
(0.10372 1.70071 0)
(1.85502 0.0381919 0)
(1.84741 0.178908 0)
(1.82963 0.321264 0)
(1.80168 0.462451 0)
(1.76351 0.601896 0)
(1.71512 0.738932 0)
(1.65655 0.872925 0)
(1.58782 1.00316 0)
(1.50906 1.12871 0)
(1.42044 1.24861 0)
(1.32223 1.36196 0)
(1.21481 1.46792 0)
(1.09866 1.5656 0)
(0.974413 1.65417 0)
(0.842936 1.73311 0)
(0.705339 1.80221 0)
(0.562927 1.86065 0)
(0.4168 1.90604 0)
(0.265897 1.93969 0)
(0.10557 1.99148 0)
(1.85502 0.0425469 0)
(1.84781 0.201684 0)
(1.83094 0.362296 0)
(1.80438 0.521836 0)
(1.76797 0.679736 0)
(1.72164 0.835312 0)
(1.6653 0.987893 0)
(1.59883 1.13669 0)
(1.52223 1.28066 0)
(1.43553 1.41869 0)
(1.33886 1.5497 0)
(1.23248 1.67262 0)
(1.11677 1.78633 0)
(0.992245 1.88965 0)
(0.859688 1.98161 0)
(0.720193 2.06152 0)
(0.575247 2.12841 0)
(0.426302 2.18059 0)
(0.272768 2.22017 0)
(0.107875 2.2739 0)
(1.85502 0.046439 0)
(1.84834 0.222287 0)
(1.83267 0.39949 0)
(1.80792 0.575847 0)
(1.77386 0.750841 0)
(1.73027 0.923811 0)
(1.6769 1.09409 0)
(1.61349 1.26083 0)
(1.53983 1.42291 0)
(1.45577 1.57904 0)
(1.36127 1.72795 0)
(1.2564 1.86838 0)
(1.14138 1.99888 0)
(1.01662 2.11795 0)
(0.882791 2.22413 0)
(0.740931 2.31611 0)
(0.592655 2.39246 0)
(0.439768 2.45203 0)
(0.282172 2.49747 0)
(0.109863 2.5504 0)
(1.85502 0.0498146 0)
(1.84901 0.240459 0)
(1.83488 0.432393 0)
(1.81246 0.623849 0)
(1.78142 0.814419 0)
(1.74137 1.00351 0)
(1.69189 1.19051 0)
(1.63251 1.37456 0)
(1.56279 1.55445 0)
(1.48234 1.72877 0)
(1.39084 1.89606 0)
(1.28815 2.05477 0)
(1.17426 2.2032 0)
(1.0494 2.3394 0)
(0.914075 2.46141 0)
(0.769263 2.56715 0)
(0.616654 2.65456 0)
(0.458436 2.72267 0)
(0.294962 2.77439 0)
(0.111623 2.82417 0)
(1.85502 0.0526192 0)
(1.84984 0.255934 0)
(1.83761 0.460528 0)
(1.81811 0.665167 0)
(1.79084 0.869607 0)
(1.75527 1.07339 0)
(1.71078 1.276 0)
(1.65663 1.47664 0)
(1.59211 1.67405 0)
(1.5165 1.86672 0)
(1.42918 2.053 0)
(1.32964 2.2311 0)
(1.21758 2.39895 0)
(1.09294 2.55417 0)
(0.955991 2.69418 0)
(0.807558 2.81604 0)
(0.64937 2.91676 0)
(0.484065 2.9952 0)
(0.312564 3.05411 0)
(0.113794 3.0988 0)
(1.85503 0.0548025 0)
(1.85085 0.268451 0)
(1.84091 0.483421 0)
(1.82492 0.699106 0)
(1.80226 0.91549 0)
(1.77223 1.13232 0)
(1.73397 1.34925 0)
(1.68648 1.56558 0)
(1.62871 1.78012 0)
(1.55956 1.99129 0)
(1.47799 2.19731 0)
(1.38305 2.39613 0)
(1.27396 2.58534 0)
(1.15023 2.76206 0)
(1.01175 2.92299 0)
(0.859042 3.06418 0)
(0.69378 3.18141 0)
(0.51909 3.2729 0)
(0.33665 3.34085 0)
(0.116753 3.37883 0)
(1.85503 0.0563242 0)
(1.85201 0.27778 0)
(1.84476 0.500648 0)
(1.8329 0.725025 0)
(1.81571 0.951185 0)
(1.79233 1.17915 0)
(1.76169 1.40882 0)
(1.7225 1.63971 0)
(1.67335 1.87076 0)
(1.61271 2.10044 0)
(1.53901 2.32692 0)
(1.45073 2.54799 0)
(1.34643 2.76089 0)
(1.22494 2.96225 0)
(1.08551 3.14798 0)
(0.928116 3.31292 0)
(0.75412 3.45119 0)
(0.567078 3.55971 0)
(0.369538 3.6395 0)
(0.12055 3.66972 0)
(1.85503 0.0571583 0)
(1.85333 0.283751 0)
(1.84911 0.511876 0)
(1.84196 0.742391 0)
(1.83108 0.97591 0)
(1.81547 1.21279 0)
(1.7939 1.45328 0)
(1.76481 1.69721 0)
(1.72645 1.94377 0)
(1.67683 2.19164 0)
(1.61378 2.43908 0)
(1.53504 2.68387 0)
(1.43832 2.92308 0)
(1.32147 3.1529 0)
(1.18264 3.36845 0)
(1.02079 3.56317 0)
(0.836508 3.72905 0)
(0.633496 3.86073 0)
(0.415289 3.95719 0)
(0.126861 3.97996 0)
(1.85504 0.0572988 0)
(1.85477 0.286276 0)
(1.85386 0.516913 0)
(1.8519 0.750852 0)
(1.84805 0.989077 0)
(1.84127 1.23234 0)
(1.83018 1.48129 0)
(1.81308 1.73622 0)
(1.7879 1.99672 0)
(1.75222 2.26185 0)
(1.70327 2.53021 0)
(1.63798 2.79981 0)
(1.55299 3.06786 0)
(1.44475 3.33039 0)
(1.30979 3.58194 0)
(1.14521 3.81455 0)
(0.949839 4.01752 0)
(0.726645 4.18192 0)
(0.479826 4.30311 0)
(0.136862 4.32267 0)
(1.85504 0.0567626 0)
(1.85628 0.285373 0)
(1.85887 0.515752 0)
(1.86244 0.750309 0)
(1.86619 0.990399 0)
(1.86907 1.23719 0)
(1.86973 1.49182 0)
(1.86639 1.75509 0)
(1.85682 2.02719 0)
(1.83829 2.30777 0)
(1.80754 2.59604 0)
(1.76069 2.89064 0)
(1.6932 3.18936 0)
(1.59986 3.48871 0)
(1.47487 3.78326 0)
(1.31226 4.06415 0)
(1.10733 4.31784 0)
(0.860132 4.5302 0)
(0.574391 4.69012 0)
(0.158456 4.71687 0)
(1.85505 0.0555895 0)
(1.85781 0.281175 0)
(1.86397 0.508592 0)
(1.87323 0.740957 0)
(1.88487 0.979967 0)
(1.89798 1.22719 0)
(1.91132 1.48427 0)
(1.92321 1.75261 0)
(1.93148 2.03308 0)
(1.93331 2.32612 0)
(1.92517 2.63186 0)
(1.90262 2.95 0)
(1.86015 3.27958 0)
(1.79084 3.6185 0)
(1.68609 3.96267 0)
(1.53558 4.30389 0)
(1.3283 4.62695 0)
(1.05674 4.91175 0)
(0.720155 5.13635 0)
(0.210821 5.19041 0)
(1.85505 0.0538416 0)
(1.85931 0.273928 0)
(1.86897 0.495845 0)
(1.88385 0.723312 0)
(1.90339 0.958305 0)
(1.92689 1.20274 0)
(1.95338 1.45872 0)
(1.98147 1.72826 0)
(2.00925 2.01295 0)
(2.03418 2.31416 0)
(2.05286 2.63314 0)
(2.06081 2.97103 0)
(2.0521 3.32876 0)
(2.01871 3.70676 0)
(1.94966 4.10423 0)
(1.82981 4.51669 0)
(1.63909 4.93142 0)
(1.35463 5.3258 0)
(0.958359 5.66464 0)
(0.319421 5.79809 0)
(1.85505 0.0515973 0)
(1.86072 0.26398 0)
(1.87369 0.478112 0)
(1.89391 0.698188 0)
(1.92104 0.92637 0)
(1.95467 1.16482 0)
(1.9942 1.41603 0)
(2.03869 1.68251 0)
(2.0868 1.96655 0)
(2.13658 2.27039 0)
(2.18531 2.59647 0)
(2.22917 2.9475 0)
(2.26284 3.32668 0)
(2.27865 3.73782 0)
(2.2652 4.18528 0)
(2.20471 4.67248 0)
(2.06896 5.19715 0)
(1.81426 5.74712 0)
(1.37897 6.29011 0)
(0.568528 6.63163 0)
(1.85506 0.0489465 0)
(1.86199 0.251749 0)
(1.87796 0.456141 0)
(1.90306 0.666644 0)
(1.93717 0.885497 0)
(1.98023 1.11499 0)
(2.03207 1.35783 0)
(2.09235 1.61691 0)
(2.16046 1.89503 0)
(2.2354 2.19513 0)
(2.31557 2.52061 0)
(2.39862 2.87555 0)
(2.48105 3.26516 0)
(2.55757 3.69652 0)
(2.61981 4.17964 0)
(2.65342 4.72829 0)
(2.63196 5.35886 0)
(2.50496 6.09102 0)
(2.16224 6.95508 0)
(1.2989 7.8134 0)
(0.417848 -0.142558 0)
(0.767584 -0.139378 0)
(1.23393 -0.0591573 0)
(1.47908 -0.0283922 -2.38446e-21)
(1.54507 0.00438611 0)
(1.3588 0.0675783 0)
(0.614529 0.226177 0)
(-1.51357 0.598923 0)
(-5.4545 0.470919 0)
(-8.31914 0.222876 2.19043e-20)
(-9.5155 -0.0372289 0)
(-9.78875 0.0515462 0)
(-9.68704 0.00044322 -2.94761e-21)
(-9.72561 -0.0743003 -2.39749e-21)
(-9.69058 0.0888762 0)
(-9.80791 0.140681 7.05571e-22)
(-10.2916 -0.154865 -1.54046e-21)
(-10.6363 0.0342942 7.94352e-21)
(-11.3509 0.255659 0)
(-11.6318 -0.712782 1.50373e-21)
(-10.7082 -2.9212 -2.74006e-21)
(-9.301 -1.18632 -1.7502e-21)
(-8.7098 -1.88851 -2.0942e-20)
(-0.945846 -3.35994 3.47574e-19)
(10.4931 -2.0202 0)
(16.9309 -0.923781 -1.3962e-19)
(20.3163 -0.549298 0)
(22.4172 -0.349517 8.48846e-20)
(23.7434 -0.222604 1.21261e-19)
(24.5339 -0.136009 0)
(24.9565 -0.0769188 2.66422e-20)
(25.1374 -0.037437 -1.6701e-20)
(25.1693 -0.0103279 5.14091e-21)
(25.1197 -0.00192732 -3.0576e-21)
(25.0324 0.000896728 0)
(24.9369 0.0013508 0)
(24.8478 0.000912512 -6.65685e-22)
(24.7673 0.000510536 0)
(24.6918 0.00086217 2.47346e-22)
(24.6156 0.00182312 0)
(24.5355 0.00283024 0)
(24.4525 0.00359576 8.2279e-23)
(24.3679 0.00422046 0)
(24.2819 0.00471798 0)
(24.196 0.00463212 -4.22321e-23)
(24.1159 0.00378622 -1.62305e-23)
(24.0449 0.00277303 0)
(23.9832 0.00203772 -5.45427e-24)
(23.9288 0.00156883 1.11023e-23)
(23.8803 0.00117231 -1.72027e-23)
(23.8379 0.00092491 0)
(23.7992 0.00107454 2.25874e-23)
(23.7613 0.00152515 0)
(23.7234 0.00187754 -1.16163e-23)
(23.6869 0.00192568 0)
(23.6535 0.00189733 0)
(23.6234 0.00201629 2.69661e-26)
(23.596 0.00237663 -1.69906e-26)
(23.5708 0.0027999 0)
(23.5476 0.00298261 0)
(0.594153 -0.633867 0)
(0.94908 -0.344242 0)
(1.23143 -0.217141 5.09354e-22)
(1.44087 -0.123807 0)
(1.53034 -0.0111023 0)
(1.44592 0.166189 -7.40942e-21)
(1.09032 0.533606 1.16996e-20)
(0.356039 1.30623 0)
(-1.01517 2.14475 1.54747e-23)
(-2.4682 1.62703 9.63415e-20)
(-5.48618 1.60183 -1.27791e-21)
(-9.13322 0.21199 6.483e-19)
(-10.0044 -0.0123952 4.45149e-20)
(-9.77574 -0.027926 0)
(-9.62766 -0.0663595 0)
(-9.87038 0.139095 9.49495e-21)
(-10.1203 0.209671 0)
(-10.3853 0.162744 0)
(-10.2616 0.140773 -2.12864e-22)
(-6.91786 -0.266054 0)
(-9.79598 0.473897 0)
(-10.4855 -0.503104 0)
(-13.2356 -4.62319 -2.8605e-18)
(9.79436 -7.46028 3.17955e-19)
(13.3508 -4.99247 2.63985e-20)
(17.5026 -2.84947 8.84768e-20)
(20.4827 -1.77832 0)
(22.5283 -1.14685 0)
(23.8726 -0.719789 5.01835e-20)
(24.6973 -0.420314 -2.92169e-23)
(25.1564 -0.216496 0)
(25.374 -0.0860546 8.05982e-24)
(25.4434 -0.00971324 -8.55582e-21)
(25.4315 0.0333891 0)
(25.3813 0.0500022 0)
(25.3205 0.0516787 -1.86302e-21)
(25.2632 0.0472113 0)
(25.2136 0.0422749 0)
(25.1705 0.0400555 0)
(25.1297 0.0409686 -8.40998e-23)
(25.0878 0.0428936 -4.28275e-23)
(25.0443 0.0441724 5.31558e-23)
(24.9994 0.0452903 -2.66572e-23)
(24.9514 0.046726 0)
(24.9002 0.0462211 1.48127e-23)
(24.8499 0.0423179 0)
(24.8047 0.0369377 1.29738e-23)
(24.7653 0.0322656 -1.142e-23)
(24.7303 0.0286844 -1.59791e-23)
(24.6991 0.0252008 2.10768e-23)
(24.6724 0.0220468 -2.61591e-23)
(24.6488 0.0208097 -2.79443e-23)
(24.6251 0.0211937 5.59524e-23)
(24.5998 0.0214398 0)
(24.5738 0.0205668 0)
(24.5485 0.0191738 0)
(24.5239 0.0180349 0)
(24.4998 0.0171026 -1.08464e-24)
(24.477 0.0164027 -2.55543e-24)
(24.4559 0.0155836 0)
(0.68989 -1.00315 0)
(0.960551 -0.537758 5.57185e-22)
(1.18268 -0.364451 0)
(1.38226 -0.234756 2.97662e-21)
(1.50447 -0.0703955 3.63771e-21)
(1.49786 0.168449 4.84617e-21)
(1.33511 0.5881 0)
(1.06722 1.34069 -5.03399e-22)
(1.04459 2.37183 0)
(0.915435 1.77552 0)
(1.35278 0.555469 0)
(2.5443 0.840025 0)
(3.87555 2.50102 0)
(0.0123625 0.69399 0)
(-1.66025 0.0705257 0)
(-1.44896 -0.321297 0)
(0.860286 -0.941625 0)
(4.64236 -1.65309 -4.96692e-19)
(7.21521 0.771753 0)
(5.01199 1.66967 0)
(-1.89745 2.49267 0)
(-0.324983 -2.08949 0)
(14.9901 -8.33404 0)
(15.0196 -9.90687 0)
(16.2088 -7.01524 0)
(18.5582 -4.67493 0)
(20.8227 -3.12967 0)
(22.5648 -2.08092 0)
(23.7445 -1.32365 4.35504e-20)
(24.463 -0.780394 0)
(24.8553 -0.409036 -1.99105e-20)
(25.0399 -0.171176 0)
(25.1031 -0.0300473 0)
(25.1038 0.0431436 0)
(25.0783 0.0724686 0)
(25.0474 0.0761784 0)
(25.0208 0.068784 -5.5459e-22)
(25.0013 0.0597653 0)
(24.9881 0.0543989 0)
(24.978 0.0545732 0)
(24.967 0.0571891 6.10417e-23)
(24.9547 0.0590857 -4.35178e-23)
(24.9411 0.0612897 4.55562e-23)
(24.9231 0.0653713 0)
(24.8979 0.0669824 3.60369e-23)
(24.8704 0.0623571 0)
(24.8451 0.054713 0)
(24.8228 0.0479434 0)
(24.8022 0.0429355 0)
(24.7831 0.0377707 1.39524e-23)
(24.7674 0.032455 0)
(24.7545 0.0304014 4.81272e-23)
(24.7408 0.0315152 0)
(24.7248 0.0326795 0)
(24.7073 0.0319594 1.28216e-23)
(24.6899 0.0303585 -1.03568e-23)
(24.6722 0.029257 1.27334e-23)
(24.6539 0.0281294 -1.04724e-24)
(24.6362 0.0270146 0)
(24.6199 0.025671 1.78048e-24)
(0.768108 -1.27825 0)
(0.908033 -0.725118 0)
(1.13631 -0.526615 0)
(1.35416 -0.369265 0)
(1.48876 -0.164521 -2.26072e-21)
(1.51862 0.114389 0)
(1.449 0.541002 0)
(1.35215 1.19764 -3.45726e-23)
(1.46891 1.98896 0)
(1.96319 2.07588 -8.09488e-23)
(1.67073 0.791965 4.37314e-21)
(1.28924 0.207538 0)
(1.87243 1.81321 0)
(4.06483 2.25325 2.29065e-23)
(2.49262 0.884086 -8.95954e-23)
(1.96483 -0.503703 1.06245e-22)
(2.64747 -1.66286 -9.23956e-20)
(2.43218 -1.94115 0)
(2.8714 -1.62138 2.55446e-21)
(5.14019 1.77759 0)
(4.125 5.19303 -1.08384e-21)
(9.26645 -5.55895 3.72756e-22)
(18.5237 -11.2556 4.07563e-22)
(17.8395 -10.3422 -3.30505e-20)
(18.3449 -8.14547 -2.25721e-20)
(19.7305 -6.01867 0)
(21.3556 -4.28736 0)
(22.7066 -2.92931 -1.34869e-22)
(23.6206 -1.87644 1.00295e-22)
(24.1543 -1.10684 0)
(24.4336 -0.583419 1.75785e-20)
(24.566 -0.25304 0)
(24.6214 -0.0606734 0)
(24.6435 0.037732 0)
(24.6549 0.0768766 -5.09315e-21)
(24.666 0.0819658 0)
(24.681 0.0723173 0)
(24.6993 0.0601502 -3.04681e-22)
(24.7212 0.0517203 3.40048e-22)
(24.7447 0.051249 -9.99819e-23)
(24.7655 0.0549822 -1.20937e-22)
(24.7836 0.057579 0)
(24.8003 0.0610025 -1.00085e-22)
(24.8113 0.0693372 0)
(24.8101 0.0755579 -4.6386e-23)
(24.8032 0.0717719 1.81968e-23)
(24.7962 0.063203 0)
(24.7897 0.0556755 1.07245e-24)
(24.7822 0.0506303 0)
(24.7734 0.0448756 1.09459e-23)
(24.7668 0.0374776 2.17309e-23)
(24.7633 0.0347678 -2.20519e-23)
(24.7581 0.037117 2.3404e-23)
(24.7497 0.0396498 2.6391e-23)
(24.7394 0.0393146 0)
(24.7294 0.0377222 -1.13133e-23)
(24.7183 0.0372747 -6.58683e-24)
(24.7056 0.0363224 1.32594e-24)
(24.6935 0.0347563 0)
(24.6822 0.0330923 0)
(0.781546 -1.46066 9.51194e-22)
(0.846318 -0.898609 -2.66413e-21)
(1.08429 -0.699499 0)
(1.3101 -0.5191 1.17053e-21)
(1.45469 -0.27985 -1.59621e-21)
(1.51137 0.0294133 0)
(1.49212 0.451155 0)
(1.46666 1.03032 -2.70833e-23)
(1.59016 1.67204 1.63817e-23)
(1.9903 1.98983 4.53878e-21)
(2.04585 1.34935 -3.54724e-21)
(1.39714 0.477735 -6.7424e-23)
(0.983171 0.603415 1.4407e-20)
(1.73801 1.45901 0)
(3.25532 1.54553 -1.23699e-25)
(3.05785 -0.0680451 -3.07046e-20)
(2.35718 -1.48554 0)
(2.37949 -1.90237 -3.68194e-21)
(2.43833 -1.87201 5.80281e-21)
(2.65346 -0.218197 0)
(5.03724 5.09078 1.52259e-19)
(19.6902 -11.0051 -1.09895e-21)
(19.6628 -11.4412 0)
(19.4075 -10.5263 0)
(19.7513 -8.90045 2.11185e-20)
(20.7071 -7.03402 2.23913e-22)
(21.8698 -5.23973 0)
(22.8228 -3.64464 0)
(23.4186 -2.33413 1.23392e-22)
(23.7357 -1.37314 0)
(23.9049 -0.730136 -2.99894e-20)
(24.0091 -0.333019 -4.36784e-23)
(24.0863 -0.106134 5.44933e-21)
(24.1575 0.00824275 -6.59645e-21)
(24.2271 0.0541381 4.17662e-21)
(24.2948 0.0613188 2.625e-21)
(24.3604 0.0519672 0)
(24.4209 0.0399001 -1.40714e-24)
(24.4783 0.0299301 0)
(24.5341 0.0298548 9.27873e-23)
(24.5834 0.036372 5.96133e-23)
(24.6274 0.0402493 3.03146e-23)
(24.6694 0.0447475 4.90465e-23)
(24.7054 0.0588279 -1.01477e-22)
(24.724 0.0729373 5.8581e-23)
(24.7336 0.0713754 8.65755e-24)
(24.7413 0.0632099 -5.29992e-24)
(24.747 0.0562996 1.18442e-27)
(24.7494 0.0526786 6.02018e-25)
(24.7481 0.0478387 8.68458e-24)
(24.7472 0.0382331 -2.67238e-23)
(24.7502 0.0348724 0)
(24.7508 0.0389886 -2.03134e-23)
(24.7477 0.0432746 2.67427e-23)
(24.7424 0.0434142 0)
(24.7376 0.041674 -1.31055e-23)
(24.7315 0.0424436 -6.58484e-24)
(24.7231 0.0419819 -3.14124e-26)
(24.7153 0.0397141 0)
(24.7084 0.0382313 -3.60956e-24)
(0.765652 -1.53646 1.74362e-21)
(0.849807 -1.08229 0)
(1.05291 -0.87508 -1.64809e-23)
(1.25462 -0.676579 0)
(1.40435 -0.411963 0)
(1.48281 -0.0786055 2.14758e-21)
(1.49675 0.342275 0)
(1.49719 0.867481 -2.50392e-21)
(1.59361 1.42586 5.58668e-22)
(1.84031 1.80784 -1.12896e-21)
(2.00096 1.6322 4.42471e-21)
(1.61982 0.943215 9.71926e-21)
(1.07648 0.721836 -3.12252e-20)
(0.86867 0.869491 -1.76655e-20)
(1.83201 1.25013 0)
(2.90117 0.755884 3.40643e-19)
(2.27758 -0.994451 0)
(2.39104 -1.80185 0)
(2.26657 -1.92694 -1.67604e-20)
(1.6975 -0.666035 0)
(1.64351 1.9094 0)
(19.9764 -11.7205 -1.46229e-20)
(20.109 -11.4642 -2.47555e-20)
(20.2421 -10.778 0)
(20.6629 -9.51459 -2.39305e-20)
(21.4152 -7.84944 0)
(22.2138 -6.00493 4.70522e-20)
(22.763 -4.19937 0)
(23.0316 -2.67485 6.39603e-20)
(23.1734 -1.59125 0)
(23.311 -0.881697 -1.17112e-20)
(23.462 -0.447306 6.36473e-21)
(23.6181 -0.197381 0)
(23.771 -0.0674558 -1.81614e-21)
(23.913 -0.00937805 1.05846e-21)
(24.0408 0.00605552 -7.072e-22)
(24.1536 0.00342041 2.65335e-24)
(24.25 -0.00140043 2.31975e-22)
(24.3324 -0.00833095 -1.41434e-22)
(24.4086 -0.0067304 -2.28237e-24)
(24.4769 0.00404119 0)
(24.536 0.0109306 -1.02532e-22)
(24.5915 0.0172516 -1.45494e-22)
(24.6421 0.0371809 0)
(24.6751 0.0621614 5.97207e-25)
(24.6958 0.0643615 -1.80408e-22)
(24.7119 0.058084 1.8078e-22)
(24.7232 0.0528004 1.81581e-22)
(24.7303 0.051067 -1.72826e-22)
(24.7332 0.0483057 -6.34089e-23)
(24.7338 0.0371596 5.30195e-24)
(24.7389 0.0329163 4.16344e-23)
(24.7417 0.0386364 -3.92797e-23)
(24.7417 0.0445768 0)
(24.7393 0.0455602 3.29761e-24)
(24.7367 0.0436078 0)
(24.7331 0.0457129 8.62129e-24)
(24.727 0.0460183 0)
(24.7216 0.0427701 0)
(24.7181 0.041761 0)
(0.842274 -1.62799 -6.80173e-22)
(0.865614 -1.23696 0)
(0.997241 -1.02644 0)
(1.18912 -0.83889 -9.21052e-22)
(1.34019 -0.558469 0)
(1.43416 -0.206226 0)
(1.47311 0.221465 0)
(1.47944 0.722075 0)
(1.53054 1.23089 0)
(1.6774 1.64095 0)
(1.81035 1.71029 0)
(1.65012 1.32122 9.03388e-21)
(1.2312 0.953005 0)
(0.996683 0.932148 0)
(1.12586 0.776543 -1.24754e-22)
(1.81469 0.061769 0)
(2.3458 -0.886466 2.00125e-24)
(2.52566 -1.68734 0)
(2.45329 -1.85196 1.82575e-23)
(1.37145 0.405696 0)
(19.8063 -12.2415 0)
(19.8979 -11.8705 -2.4568e-20)
(20.2953 -11.6705 -1.85625e-20)
(20.7219 -11.129 1.96089e-20)
(21.2403 -10.0769 -2.83418e-20)
(21.8361 -8.51591 0)
(22.2619 -6.57468 2.13618e-22)
(22.3702 -4.6059 2.29074e-22)
(22.388 -2.99733 0)
(22.5089 -1.81197 -7.87776e-21)
(22.7841 -1.03177 0)
(23.0799 -0.546542 1.24477e-20)
(23.3642 -0.260645 -1.28009e-22)
(23.5896 -0.117548 2.67828e-20)
(23.781 -0.0514993 0)
(23.9412 -0.0288668 -2.49286e-20)
(24.0723 -0.0263719 2.33217e-20)
(24.1802 -0.0261947 2.2059e-20)
(24.2694 -0.0304708 1.02037e-20)
(24.3458 -0.0283881 9.64801e-21)
(24.4175 -0.015375 0)
(24.483 -0.00755067 -8.70038e-21)
(24.5393 -0.00150683 -8.2137e-21)
(24.5852 0.0199012 2.57277e-23)
(24.6234 0.0534387 0)
(24.6555 0.0580936 -5.97791e-21)
(24.6758 0.0538518 5.45691e-21)
(24.688 0.0499392 -4.9394e-21)
(24.6964 0.0492444 0)
(24.7041 0.0483208 -2.01309e-21)
(24.71 0.0366031 0)
(24.7134 0.0315241 0)
(24.7163 0.0379162 0)
(24.7198 0.044559 0)
(24.722 0.046297 0)
(24.721 0.0438806 0)
(24.7187 0.0466828 0)
(24.7163 0.0476124 2.32781e-22)
(24.7134 0.0434113 7.20192e-23)
(24.7135 0.0427945 -1.67217e-23)
(0.84615 -1.68118 0)
(0.830157 -1.3402 2.02017e-23)
(0.954504 -1.16991 -1.59832e-21)
(1.12614 -0.996652 6.52149e-22)
(1.25728 -0.709489 0)
(1.36435 -0.349277 0)
(1.42807 0.0882905 0)
(1.43724 0.59201 -2.50421e-21)
(1.4421 1.08073 0)
(1.50187 1.49834 0)
(1.57985 1.70343 0)
(1.53319 1.54131 7.67182e-21)
(1.30962 1.18579 0)
(1.14661 0.962082 0)
(1.36048 0.705965 -1.49387e-21)
(1.88182 -0.000874005 0)
(2.40002 -0.927552 0)
(2.73174 -1.64459 0)
(2.7538 -1.81017 -1.04867e-20)
(7.25629 -3.26444 -9.54818e-20)
(19.097 -12.2233 0)
(19.772 -12.1834 -2.26855e-20)
(20.4259 -12.0289 -2.3037e-20)
(21.0202 -11.5522 -2.55297e-20)
(21.5508 -10.5949 -3.2397e-20)
(21.9277 -9.02334 0)
(21.8549 -7.01304 0)
(21.5675 -4.89623 0)
(21.5068 -3.10001 0)
(21.8087 -2.19171 0)
(22.0351 -1.49914 0)
(22.2527 -0.829282 1.55904e-20)
(22.3011 -0.438018 0)
(22.3613 -0.272505 0)
(22.4202 -0.175622 -8.63995e-21)
(22.4722 -0.126431 -6.53866e-21)
(22.5129 -0.103896 -1.58456e-23)
(22.5441 -0.0903652 0)
(22.57 -0.0832439 0)
(22.5887 -0.0757324 0)
(22.6055 -0.0591363 0)
(22.6241 -0.044195 0)
(22.6387 -0.0297023 0)
(22.647 -0.00462772 0)
(22.6641 0.0257996 0)
(22.6868 0.0381628 0)
(22.7031 0.0410488 0)
(22.7152 0.0412591 0)
(22.7261 0.041616 0)
(22.7388 0.0412831 8.775e-23)
(22.7522 0.031913 0)
(22.7583 0.0281005 0)
(22.7656 0.0335892 0)
(22.7752 0.0403575 0)
(22.7851 0.0440794 -8.05076e-23)
(22.7921 0.0442719 0)
(22.7974 0.0471575 0)
(22.8045 0.0480334 0)
(22.8123 0.043302 0)
(22.822 0.0396609 -1.10974e-23)
(0.878496 -1.71642 -1.3556e-22)
(0.82227 -1.4187 0)
(0.947605 -1.29346 -6.00533e-23)
(1.05425 -1.13097 0)
(1.18721 -0.868816 0)
(1.31212 -0.512354 0)
(1.38428 -0.0592481 1.81245e-21)
(1.39239 0.469906 0)
(1.36441 0.970054 -9.50488e-21)
(1.33874 1.38984 0)
(1.34886 1.66758 7.47793e-21)
(1.32699 1.64928 -8.2366e-21)
(1.22754 1.35858 0)
(1.1729 1.00547 0)
(1.39776 0.585553 -6.81495e-21)
(1.89517 -0.142264 5.8015e-22)
(2.45758 -1.02971 -5.93503e-21)
(2.95421 -1.72213 -1.56325e-21)
(3.20402 -2.16983 3.31412e-21)
(18.0763 -12.2741 0)
(18.9972 -12.5966 2.21529e-20)
(19.7992 -12.6193 -2.42694e-20)
(20.5587 -12.468 0)
(21.1805 -11.9918 2.99687e-20)
(21.5959 -11.0288 0)
(21.5926 -9.43617 -5.4028e-20)
(21.1263 -7.14857 2.32738e-19)
(21.0611 -4.89553 0)
(20.863 -3.42431 0)
(20.7988 -2.28513 0)
(20.7931 -1.48171 2.23139e-20)
(20.8095 -0.873767 1.56856e-20)
(20.8802 -0.486959 -2.64757e-20)
(20.9075 -0.298834 0)
(20.9158 -0.19501 6.76483e-21)
(20.9165 -0.139392 -1.01634e-20)
(20.9105 -0.110783 -3.92539e-21)
(20.9003 -0.0944296 6.22378e-21)
(20.8888 -0.084633 -2.60886e-21)
(20.8754 -0.0757442 -2.14684e-21)
(20.8635 -0.0621131 8.28158e-22)
(20.8565 -0.0482123 3.753e-25)
(20.8509 -0.0337382 -4.90531e-22)
(20.847 -0.0125312 -2.82331e-22)
(20.8548 0.0139002 -1.55431e-22)
(20.8721 0.0281207 1.629e-22)
(20.89 0.0330632 0)
(20.9072 0.0340278 1.46908e-22)
(20.925 0.0337062 -1.24758e-24)
(20.9451 0.0317419 0)
(20.965 0.02537 0)
(20.98 0.0226994 0)
(20.9953 0.0265929 0)
(21.0127 0.0322987 1.14596e-22)
(21.0309 0.0363019 0)
(21.0472 0.0382804 0)
(21.0623 0.0406199 1.59264e-22)
(21.0786 0.0405474 9.04467e-23)
(21.095 0.03596 4.71394e-23)
(21.1119 0.0292898 2.63039e-23)
(0.890633 -1.7613 0)
(0.893671 -1.51679 0)
(0.968407 -1.37695 0)
(1.02135 -1.23954 0)
(1.12925 -1.02401 0)
(1.23318 -0.673677 0)
(1.29728 -0.211961 0)
(1.30073 0.341196 0)
(1.24912 0.884705 0)
(1.15314 1.32686 0)
(1.08525 1.63683 0)
(1.04164 1.70509 0)
(1.01148 1.46765 0)
(1.05696 1.04472 0)
(1.31563 0.496115 0)
(1.83266 -0.287688 0)
(2.49517 -1.1909 0)
(3.1722 -1.95389 0)
(14.9479 -11.0467 0)
(18.1425 -12.9279 0)
(19.0245 -13.0606 0)
(19.8988 -13.1031 0)
(20.654 -12.922 0)
(21.1796 -12.3843 0)
(21.3171 -11.3791 0)
(21.2243 -9.74907 0)
(20.5115 -6.98118 2.13195e-20)
(19.7036 -5.09758 0)
(19.3952 -3.51302 0)
(19.2379 -2.37872 0)
(19.1604 -1.56452 0)
(19.1263 -0.968287 0)
(19.1639 -0.555179 0)
(19.2002 -0.32919 0)
(19.2144 -0.206673 0)
(19.2142 -0.140442 0)
(19.2047 -0.105443 0)
(19.1898 -0.0864686 0)
(19.1731 -0.0755648 0)
(19.1562 -0.0668582 0)
(19.1421 -0.0561072 0)
(19.1334 -0.0445694 0)
(19.129 -0.0318817 0)
(19.13 -0.0150101 0)
(19.1423 0.0037319 0)
(19.1645 0.0155711 0)
(19.1905 0.0203547 0)
(19.218 0.0211335 0)
(19.2467 0.019993 -1.29768e-22)
(19.277 0.0172782 -1.07138e-22)
(19.3065 0.0127799 0)
(19.3328 0.0111131 0)
(19.3588 0.0140706 0)
(19.3861 0.0190195 0)
(19.4137 0.0233917 8.3724e-23)
(19.4398 0.0265297 -5.94008e-23)
(19.4648 0.0289099 7.8737e-23)
(19.4896 0.0286861 0)
(19.5134 0.0244151 5.13833e-23)
(19.5358 0.0170343 0)
(0.957068 -1.82969 -3.54441e-21)
(1.02238 -1.62189 0)
(1.01734 -1.42265 -4.74868e-21)
(1.02929 -1.31785 -3.24006e-21)
(1.11134 -1.15412 0)
(1.16588 -0.823666 0)
(1.19527 -0.362861 0)
(1.17222 0.214324 -3.25203e-21)
(1.08309 0.811568 -3.36087e-21)
(0.930173 1.29966 0)
(0.798736 1.62845 9.50094e-21)
(0.712364 1.74633 0)
(0.69147 1.53666 0)
(0.814 1.05939 -6.72015e-21)
(1.13314 0.417482 -6.97469e-21)
(1.69013 -0.471964 3.50319e-21)
(2.4744 -1.46274 4.5048e-23)
(3.48537 -2.53816 0)
(17.1578 -12.9184 -9.08947e-20)
(18.1689 -13.3806 3.60438e-20)
(19.1246 -13.5774 8.55301e-23)
(19.9972 -13.595 -5.68461e-20)
(20.6527 -13.3351 3.23784e-20)
(20.9489 -12.7133 3.35695e-20)
(20.9575 -11.6932 0)
(19.5884 -9.26754 9.87365e-23)
(18.5018 -6.99506 2.45722e-20)
(17.8587 -5.06819 0)
(17.4916 -3.57404 2.31069e-20)
(17.3153 -2.45421 1.89534e-20)
(17.2412 -1.63467 -1.46701e-20)
(17.2238 -1.0419 1.08974e-20)
(17.2635 -0.626349 0)
(17.321 -0.374189 0)
(17.3661 -0.23036 0)
(17.3955 -0.150307 0)
(17.4125 -0.106912 3.31818e-21)
(17.4214 -0.0837589 -2.75684e-21)
(17.4263 -0.071184 4.68261e-24)
(17.4298 -0.0627537 -1.98756e-21)
(17.4349 -0.0544803 -1.6359e-21)
(17.444 -0.0457964 0)
(17.4574 -0.0361167 5.30402e-22)
(17.4765 -0.0241093 0)
(17.5044 -0.0114666 0)
(17.5405 -0.00297396 0)
(17.5808 0.000580126 0)
(17.623 0.000736719 0)
(17.666 -0.00100717 0)
(17.7093 -0.00384276 1.09819e-22)
(17.7513 -0.00695992 0)
(17.7908 -0.00772123 1.93803e-23)
(17.8292 -0.00502499 -1.50069e-23)
(17.8675 -0.000347124 5.02504e-23)
(17.9053 0.00452044 8.36949e-23)
(17.9414 0.00869477 0)
(17.9757 0.0117403 7.91984e-23)
(18.0082 0.0122772 9.5943e-23)
(18.0382 0.00919216 0)
(18.0645 0.00304673 1.64565e-23)
(1.1554 -2.01741 2.28724e-21)
(1.17405 -1.70824 0)
(1.09062 -1.43278 0)
(1.12537 -1.37924 2.35688e-22)
(1.1296 -1.23438 0)
(1.10381 -0.933702 -6.90263e-23)
(1.07222 -0.492962 -1.19209e-21)
(1.01085 0.0942155 0)
(0.882332 0.749494 -9.95593e-21)
(0.681269 1.30422 7.62502e-21)
(0.497003 1.64618 -2.00864e-20)
(0.352719 1.80015 0)
(0.311024 1.5955 0)
(0.473488 1.05098 0)
(0.871151 0.315381 4.15809e-21)
(1.49056 -0.646407 1.01381e-23)
(2.32023 -1.80912 0)
(15.6631 -13.631 0)
(17.3013 -13.4594 5.14073e-20)
(18.2969 -13.8963 0)
(19.2546 -14.101 -5.30724e-20)
(20.0342 -14.0486 0)
(20.4844 -13.6714 3.42134e-20)
(20.5911 -13.0002 6.39185e-20)
(19.7215 -10.9498 4.99037e-20)
(17.9126 -8.83881 2.00844e-20)
(16.6675 -6.78761 0)
(15.9289 -5.02534 0)
(15.5164 -3.61227 -1.73006e-20)
(15.3148 -2.52691 0)
(15.2412 -1.71645 1.14266e-20)
(15.244 -1.12656 8.61589e-21)
(15.301 -0.710659 0)
(15.384 -0.441743 5.2013e-21)
(15.4654 -0.278709 4.19341e-21)
(15.5353 -0.18356 -1.36802e-23)
(15.593 -0.129849 2.89834e-21)
(15.6413 -0.100489 2.47988e-21)
(15.6833 -0.0846419 0)
(15.7216 -0.0752181 1.85018e-21)
(15.7591 -0.0679503 -1.55529e-21)
(15.798 -0.0611679 1.28143e-21)
(15.8392 -0.0539415 -5.16422e-22)
(15.8843 -0.0456349 3.95317e-22)
(15.9351 -0.0373753 -2.93969e-22)
(15.9911 -0.0316706 -2.34564e-22)
(16.05 -0.029265 0)
(16.1098 -0.029448 -1.67553e-22)
(16.1694 -0.0311562 1.37707e-22)
(16.2279 -0.0334099 1.12335e-22)
(16.2843 -0.0351444 0)
(16.3378 -0.0347533 0)
(16.3893 -0.0315703 0)
(16.4393 -0.026433 0)
(16.4876 -0.0205998 0)
(16.5333 -0.0150189 6.04345e-23)
(16.5761 -0.010492 8.00878e-23)
(16.6154 -0.0081715 0)
(16.6505 -0.00896423 1.39092e-25)
(16.6798 -0.0122985 1.79421e-23)
(1.30659 -2.29116 0)
(1.30728 -1.80143 0)
(1.22822 -1.45235 -9.19628e-22)
(1.23922 -1.39838 0)
(1.1782 -1.26164 0)
(1.06151 -0.985483 -5.17807e-22)
(0.943998 -0.586043 -1.89775e-21)
(0.829235 -0.00515761 0)
(0.643568 0.68926 0)
(0.417282 1.31273 2.57407e-23)
(0.19017 1.69664 0)
(-0.00915514 1.87639 0)
(-0.105058 1.67889 1.51261e-20)
(0.04719 1.02601 7.66074e-21)
(0.551488 0.170323 8.11115e-21)
(1.30447 -0.878571 -1.05584e-21)
(2.52239 -2.41808 3.76603e-19)
(16.0452 -13.3806 -1.03906e-23)
(17.3072 -14.0313 -4.51098e-20)
(18.4196 -14.4441 0)
(19.3313 -14.5961 0)
(19.9396 -14.4235 -6.66738e-20)
(20.1495 -13.9357 -6.93802e-20)
(19.9256 -12.4028 2.41612e-19)
(17.6106 -10.3969 7.00566e-21)
(16.1123 -8.31546 0)
(14.9277 -6.5014 -1.68972e-20)
(14.1337 -4.91777 1.49216e-20)
(13.6599 -3.61124 -1.32084e-20)
(13.4143 -2.58247 0)
(13.3205 -1.79902 8.70402e-21)
(13.3244 -1.22052 -6.56903e-21)
(13.3917 -0.807772 0)
(13.4938 -0.529862 4.06157e-21)
(13.6054 -0.352591 -3.35441e-21)
(13.7132 -0.243945 -2.82503e-21)
(13.8125 -0.179663 4.90526e-21)
(13.9031 -0.142893 0)
(13.9864 -0.122249 1.92347e-21)
(14.0643 -0.110186 0)
(14.1388 -0.102095 -1.44944e-21)
(14.2119 -0.0955904 -3.33645e-24)
(14.2849 -0.0894296 -5.01027e-22)
(14.359 -0.083107 3.93782e-22)
(14.4355 -0.0772289 0)
(14.5142 -0.073023 2.50036e-22)
(14.5936 -0.0709879 2.0734e-22)
(14.6724 -0.0707858 -1.40403e-24)
(14.7495 -0.0716244 -1.41754e-22)
(14.8241 -0.0725429 0)
(14.8954 -0.0725157 0)
(14.9632 -0.0704735 0)
(15.0278 -0.0659888 1.26809e-23)