/*--------------------------------*- C++ -*----------------------------------*\
| =========                 |                                                 |
| \\      /  F ield         | OpenFOAM: The Open Source CFD Toolbox           |
|  \\    /   O peration     | Version:  v1912                                 |
|   \\  /    A nd           | Website:  www.openfoam.com                      |
|    \\/     M anipulation  |                                                 |
\*---------------------------------------------------------------------------*/
FoamFile
{
    version     2.0;
    format      ascii;
    class       surfaceScalarField;
    location    "46";
    object      alphaPhi0.water;
}
// * * * * * * * * * * * * * * * * * * * * * * * * * * * * * * * * * * * * * //

dimensions      [0 3 -1 0 0 0 0];
oriented        oriented;


internalField   nonuniform List<scalar> 
40282
(
0.0027848
0.00265987
1.9201
-1.92675
1.92116
0.00559083
-1.91211
1.8999
0.0122157
-1.88472
1.86657
0.0181429
-1.84556
1.82168
0.023875
-1.79506
1.76566
0.0293958
-1.73363
1.69896
0.0346682
-1.66177
1.62208
0.0396952
-1.58003
1.5356
0.0444267
-1.48893
1.44
0.0489355
-1.38893
1.33571
0.0532212
-1.28051
1.2233
0.0572011
-1.16431
1.10349
0.0608165
-1.041
0.976863
0.0641399
-0.911267
0.84415
0.0671171
-0.775598
0.705546
0.0700517
-0.633797
0.56038
0.0734166
-0.484921
0.407471
0.0774503
-0.326753
0.243381
0.0833714
-0.154476
0.063193
0.0912825
-0.00422313
0.00560267
1.85518
-1.85074
1.8438
-0.0141096
0.0210563
-1.83411
1.82165
-0.02563
0.038089
-1.80641
1.78842
-0.0369332
0.0549249
-1.76771
1.74433
-0.0480069
0.0713936
-1.71829
1.68965
-0.0588045
0.0874475
-1.65843
1.62468
-0.0692525
0.103
-1.58845
1.54981
-0.0793223
0.117962
-1.5088
1.46549
-0.0889546
0.132274
-1.4199
1.37211
-0.0980959
0.145888
-1.32216
1.27012
-0.106714
0.158755
-1.21603
1.15997
-0.114776
0.170836
-1.10198
1.04214
-0.122223
0.182069
-0.980496
0.917126
-0.129015
0.192384
-0.852088
0.785488
-0.135069
0.201668
-0.717422
0.64802
-0.140412
0.209814
-0.577422
0.505812
-0.145238
0.216848
-0.433415
0.360528
-0.150153
0.22304
-0.287458
0.214723
-0.156725
0.22946
-0.142246
0.0772389
-0.171306
0.236313
-0.00701814
0.00836328
1.78871
-1.78451
1.77769
-0.0281961
0.0350116
-1.76823
1.75612
-0.050721
0.0628267
-1.74139
1.72403
-0.0729807
0.0903352
-1.70407
1.68152
-0.0948087
0.117358
-1.65641
1.62879
-0.116099
0.143727
-1.59867
1.56611
-0.136745
0.169305
-1.53115
1.49381
-0.156615
0.193949
-1.45416
1.41226
-0.175607
0.217507
-1.36818
1.32198
-0.193663
0.239865
-1.27373
1.22351
-0.210734
0.260952
-1.17139
1.11744
-0.226778
0.280732
-1.06171
1.00428
-0.241753
0.299186
-0.945192
0.884503
-0.255592
0.316281
-0.822259
0.758513
-0.268143
0.33189
-0.693315
0.626728
-0.279131
0.345718
-0.558825
0.489698
-0.288224
0.35735
-0.419476
0.348353
-0.295334
0.366457
-0.276616
0.204746
-0.301341
0.373211
-0.133297
0.0641538
-0.308598
0.37774
-0.00964869
0.0109259
1.72465
-1.72079
1.71436
-0.0417347
0.0481606
-1.70538
1.69384
-0.0748742
0.0864088
-1.67977
1.66318
-0.107633
0.124225
-1.64408
1.62251
-0.139835
0.161413
-1.59847
1.572
-0.171299
0.197773
-1.54311
1.51185
-0.201842
0.233101
-1.47825
1.44235
-0.231283
0.267186
-1.40419
1.36381
-0.259445
0.299819
-1.32128
1.27664
-0.286168
0.330805
-1.22997
1.18134
-0.311326
0.359959
-1.13083
1.07852
-0.334844
0.387148
-1.02452
0.968907
-0.356701
0.412311
-0.911782
0.853225
-0.376907
0.435463
-0.793312
0.732101
-0.395402
0.456613
-0.669641
0.605971
-0.411926
0.475596
-0.541129
0.475148
-0.425889
0.49187
-0.40807
0.339965
-0.436449
0.504554
-0.27096
0.201326
-0.443282
0.512916
-0.13145
0.0628918
-0.447433
0.515991
-0.0121465
0.0133537
1.66289
-1.65923
1.65314
-0.0545364
0.0606277
-1.64462
1.63368
-0.0978614
0.108802
-1.62033
1.60457
-0.140706
0.15646
-1.58643
1.56592
-0.182857
0.20337
-1.54305
1.51785
-0.2241
0.249304
-1.49033
1.46052
-0.264209
0.294016
-1.42845
1.39416
-0.302945
0.33724
-1.35767
1.31903
-0.340069
0.378712
-1.27827
1.23545
-0.375352
0.41817
-1.19062
1.14384
-0.408565
0.455346
-1.09518
1.0447
-0.439509
0.489984
-0.992505
0.938675
-0.468058
0.521888
-0.883316
0.826534
-0.494189
0.550971
-0.768434
0.709116
-0.517942
0.57726
-0.648664
0.587148
-0.539247
0.600764
-0.524615
0.461098
-0.557616
0.621134
-0.396618
0.331197
-0.571942
0.637363
-0.264872
0.197739
-0.580896
0.648029
-0.129867
0.0628912
-0.584089
0.651065
-0.0145011
0.0156292
1.60345
-1.59984
1.59412
-0.0666489
0.0723717
-1.58611
1.57583
-0.11962
0.129906
-1.56327
1.54844
-0.172046
0.186877
-1.53134
1.512
-0.223682
0.243028
-1.49041
1.46658
-0.274285
0.298108
-1.44054
1.4123
-0.323592
0.351834
-1.38187
1.34929
-0.371312
0.403894
-1.31458
1.27776
-0.417152
0.453969
-1.23887
1.19796
-0.460819
0.501733
-1.15506
1.11022
-0.502007
0.546846
-1.0635
1.01495
-0.540411
0.588955
-0.964658
0.912691
-0.575766
0.627733
-0.859143
0.804115
-0.607907
0.662935
-0.747717
0.690062
-0.636811
0.694465
-0.631264
0.571422
-0.662526
0.722368
-0.510619
0.448916
-0.68481
0.746513
-0.386352
0.322946
-0.702637
0.766042
-0.258703
0.193617
-0.714123
0.779208
-0.127523
0.0625143
-0.717801
0.78281
-0.0166946
0.017734
1.54582
-1.54279
1.53748
-0.0779975
0.0833105
-1.53004
1.52048
-0.140023
0.149584
-1.50879
1.49498
-0.201476
0.215288
-1.47904
1.46098
-0.262096
0.280159
-1.44079
1.41848
-0.32162
0.343931
-1.39405
1.36751
-0.379754
0.406298
-1.33886
1.30812
-0.436161
0.466903
-1.2753
1.24042
-0.490497
0.525378
-1.2035
1.16457
-0.542407
0.581337
-1.12366
1.08081
-0.59151
0.634361
-1.03606
0.989466
-0.637408
0.684004
-0.941079
0.890968
-0.679714
0.729824
-0.839211
0.785895
-0.718102
0.771418
-0.731123
0.675008
-0.752392
0.808506
-0.617672
0.559235
-0.782587
0.841023
-0.49981
0.439492
-0.808623
0.86894
-0.378352
0.316434
-0.829698
0.891616
-0.253746
0.190243
-0.843734
0.907237
-0.125507
0.0625748
-0.848641
0.911573
-0.0187074
0.0196476
1.49061
-1.48785
1.483
-0.0884941
0.0933488
-1.4762
1.46745
-0.158919
0.16767
-1.45674
1.44406
-0.22879
0.241465
-1.42941
1.41277
-0.297845
0.314482
-1.39414
1.3735
-0.365821
0.38646
-1.35085
1.32617
-0.4324
0.457079
-1.29946
1.27072
-0.49721
0.525949
-1.23995
1.20715
-0.559857
0.592656
-1.17233
1.13551
-0.619926
0.656753
-1.09669
1.0559
-0.676956
0.717742
-1.01318
0.968555
-0.730454
0.775077
-0.922077
0.873798
-0.779916
0.828195
-0.823783
0.772107
-0.824864
0.87654
-0.718861
0.664151
-0.864919
0.919629
-0.608097
0.550831
-0.899928
0.957194
-0.492484
0.433181
-0.929862
0.989165
-0.373026
0.312095
-0.954129
1.01506
-0.250412
0.187914
-0.97064
1.03314
-0.123828
0.0629242
-0.977235
1.03814
-0.0205175
0.0213463
1.43728
-1.43463
1.43029
-0.0980384
0.102379
-1.42421
1.41636
-0.176133
0.183976
-1.40675
1.39534
-0.253744
0.265148
-1.38213
1.36709
-0.330635
0.345677
-1.35019
1.33142
-0.406556
0.42533
-1.31074
1.28814
-0.481184
0.503789
-1.26358
1.23706
-0.554118
0.580644
-1.20854
1.17802
-0.624925
0.655443
-1.14549
1.11094
-0.693126
0.72768
-1.07436
1.03577
-0.758181
0.796774
-0.995171
0.952593
-0.819491
0.862069
-0.908063
0.861621
-0.876428
0.92287
-0.813317
0.763214
-0.928357
0.97846
-0.71139
0.657943
-0.97469
1.02814
-0.60299
0.546668
-1.01504
1.07136
-0.489128
0.430525
-1.04928
1.10788
-0.371013
0.310726
-1.07696
1.13725
-0.249748
0.188067
-1.09609
1.15778
-0.124424
0.0657527
-1.10468
1.16335
-0.0221008
0.0228057
1.38599
-1.38369
1.37992
-0.106516
0.110284
-1.37463
1.36779
-0.191463
0.198295
-1.3594
1.34941
-0.276059
0.286045
-1.3378
1.32454
-0.360115
0.37338
-1.30958
1.29289
-0.443421
0.460116
-1.27441
1.25412
-0.525667
0.545962
-1.23196
1.20789
-0.606441
0.630506
-1.18188
1.15389
-0.685274
0.713269
-1.12387
1.09181
-0.761636
0.793697
-1.05768
1.02146
-0.8349
0.871123
-0.983136
0.942717
-0.904353
0.944773
-0.900208
0.855631
-0.969228
1.0138
-0.809019
0.760417
-1.02872
1.07732
-0.709891
0.657526
-1.08201
1.13437
-0.603431
0.547746
-1.12842
1.1841
-0.490636
0.43229
-1.1676
1.22595
-0.372914
0.312721
-1.19915
1.25934
-0.251899
0.190575
-1.22123
1.28255
-0.126678
0.070162
-1.2319
1.28841
-0.0234324
0.0240012
1.33639
-1.33446
1.33132
-0.113807
0.116942
-1.32691
1.3212
-0.204697
0.21041
-1.31415
1.30574
-0.295435
0.303848
-1.29592
1.28463
-0.385907
0.397191
-1.27183
1.25746
-0.475968
0.490339
-1.24146
1.22376
-0.56535
0.583053
-1.20429
1.18299
-0.653648
0.674944
-1.1598
1.13465
-0.740379
0.765531
-1.10748
1.07822
-0.824968
0.854224
-1.04683
1.01326
-0.906707
0.940279
-0.977466
0.939423
-0.984764
1.02281
-0.899111
0.856524
-1.05822
1.1008
-0.81167
0.764572
-1.12606
1.17316
-0.715275
0.663845
-1.18722
1.23865
-0.61038
0.555014
-1.24068
1.29604
-0.497921
0.439314
-1.28573
1.34433
-0.37945
0.318624
-1.32183
1.38265
-0.257136
0.19532
-1.3473
1.40911
-0.129721
0.0754062
-1.3605
1.41481
-0.0244888
0.0249109
1.28866
-1.28695
1.2845
-0.119791
0.122237
-1.28105
1.27655
-0.215619
0.22011
-1.27099
1.2643
-0.311557
0.318246
-1.25644
1.24734
-0.407597
0.416698
-1.23693
1.22514
-0.503694
0.515483
-1.21189
1.19709
-0.599647
0.614448
-1.18065
1.16248
-0.695091
0.713261
-1.14248
1.12057
-0.789556
0.811471
-1.09664
1.07059
-0.882443
0.908485
-1.04235
1.01183
-0.972982
1.00351
-0.978938
0.943617
-1.06022
1.09554
-0.905806
0.86546
-1.14308
1.18343
-0.82255
0.777064
-1.22033
1.26582
-0.729014
0.678439
-1.2906
1.34118
-0.625414
0.570059
-1.35246
1.40781
-0.512552
0.453133
-1.40471
1.46413
-0.392111
0.329882
-1.44649
1.50872
-0.266897
0.203768
-1.47616
1.53929
-0.134866
0.0828593
-1.49267
1.54468
-0.0252503
0.0255179
1.24279
-1.24151
1.2398
-0.12436
0.126072
-1.23737
1.23418
-0.224029
0.227213
-1.2302
1.22537
-0.324128
0.328959
-1.21963
1.2129
-0.424782
0.431512
-1.2051
1.19614
-0.526079
0.535035
-1.18593
1.17435
-0.627924
0.639503
-1.1613
1.14664
-0.73003
0.744681
-1.13027
1.11205
-0.831976
0.850198
-1.09185
1.06953
-0.933187
0.955505
-1.04496
1.01802
-1.03286
1.05981
-0.988561
0.956474
-1.12996
1.16204
-0.921645
0.883972
-1.22323
1.26091
-0.843371
0.799775
-1.31124
1.35484
-0.753142
0.703464
-1.39226
1.44194
-0.650772
0.595158
-1.46437
1.51998
-0.536788
0.475924
-1.5257
1.58657
-0.412946
0.348399
-1.57486
1.6394
-0.282974
0.217778
-1.61005
1.67525
-0.144401
0.0949612
-1.6307
1.68014
-0.0257031
0.0258125
1.19822
-1.19758
1.19664
-0.12743
0.128378
-1.19527
1.19345
-0.229766
0.231583
-1.19114
1.18827
-0.332894
0.335766
-1.18477
1.18057
-0.437096
0.441297
-1.17557
1.16968
-0.542625
0.548518
-1.16277
1.15473
-0.649532
0.657571
-1.14543
1.13471
-0.757655
0.76837
-1.12244
1.10844
-0.866679
0.880679
-1.09254
1.07458
-0.976107
0.994069
-1.05437
1.03172
-1.08517
1.10782
-1.00644
0.978345
-1.19281
1.2209
-0.947252
0.912982
-1.29767
1.33194
-0.875366
0.834256
-1.39808
1.43919
-0.789522
0.741069
-1.492
1.54045
-0.688849
0.632881
-1.57688
1.63285
-0.573283
0.510306
-1.65003
1.713
-0.444382
0.376229
-1.70912
1.77727
-0.306867
0.238139
-1.75208
1.8208
-0.158426
0.111583
-1.77865
1.8255
-0.0258422
0.0257946
1.15551
-1.15533
1.15516
-0.12895
0.129126
-1.15487
1.15445
-0.232726
0.233153
-1.15383
1.15297
-0.337672
0.338534
-1.15179
1.15022
-0.444246
0.445819
-1.14816
1.1455
-0.552892
0.555552
-1.14212
1.13789
-0.663847
0.668074
-1.13267
1.12629
-0.777123
0.783503
-1.11858
1.10935
-0.892578
0.901806
-1.0984
1.08551
-1.00988
1.02276
-1.07046
1.05299
-1.12838
1.14585
-1.03285
1.00977
-1.24711
1.27018
-0.983495
0.953729
-1.36472
1.39448
-0.920197
0.882624
-1.47944
1.51701
-0.840748
0.794332
-1.58891
1.63533
-0.743178
0.687165
-1.69
1.74602
-0.626282
0.560695
-1.77887
1.84446
-0.490831
0.417559
-1.85177
1.92504
-0.342307
0.267868
-1.9057
1.98014
-0.179212
0.134388
-1.94062
1.98544
-0.0256727
0.0254745
1.11427
-1.11437
1.11495
-0.128916
0.128337
-1.11572
1.11667
-0.232884
0.231941
-1.11773
1.11887
-0.338389
0.337251
-1.12002
1.12109
-0.446069
0.444991
-1.12202
1.12268
-0.556574
0.555913
-1.12296
1.12273
-0.67036
0.670587
-1.12185
1.12013
-0.78766
0.789372
-1.11741
1.11348
-0.908572
0.912506
-1.10811
1.10105
-1.03302
1.04007
-1.09204
1.08078
-1.16062
1.17188
-1.06695
1.05021
-1.29064
1.30738
-1.0302
1.00651
-1.42194
1.44563
-0.978727
0.946412
-1.55287
1.58519
-0.909109
0.86636
-1.68102
1.72377
-0.817722
0.762802
-1.80278
1.8577
-0.701317
0.633186
-1.91307
1.9812
-0.558675
0.478708
-2.00603
2.086
-0.395148
0.312046
-2.07675
2.15985
-0.211485
0.168643
-2.12529
2.16813
-0.02521
0.0248732
1.07451
-1.07522
1.07651
-0.127376
0.126084
-1.07829
1.08054
-0.230307
0.228064
-1.08321
1.08627
-0.3351
0.332042
-1.08966
1.09332
-0.442563
0.438902
-1.09717
1.10113
-0.55355
0.549593
-1.10509
1.10892
-0.66875
0.664917
-1.11249
1.11565
-0.788653
0.785497
-1.11821
1.11997
-0.913653
0.911887
-1.12072
1.12018
-1.04402
1.04456
-1.11808
1.11409
-1.17978
1.18377
-1.10786
1.09897
-1.32063
1.32952
-1.08697
1.07138
-1.46592
1.48152
-1.05163
1.02709
-1.61453
1.63907
-0.997071
0.960828
-1.76447
1.80071
-0.917546
0.866387
-1.91224
1.9634
-0.806549
0.737386
-2.05185
2.12101
-0.658619
0.570845
-2.17482
2.2626
-0.476078
0.37984
-2.27244
2.36867
-0.262187
0.220798
-2.34466
2.38605
-0.0244801
0.024021
1.03603
-1.03713
1.03907
-0.124429
0.122491
-1.04176
1.04519
-0.225158
0.221728
-1.04933
1.05416
-0.328004
0.323177
-1.05964
1.06571
-0.433916
0.427841
-1.07233
1.07943
-0.543936
0.536841
-1.08692
1.09471
-0.658975
0.651186
-1.10268
1.11071
-0.779787
0.771755
-1.11865
1.12632
-0.907091
0.899425
-1.13351
1.13999
-1.04157
1.03509
-1.14549
1.1497
-1.18376
1.17955
-1.15225
1.15274
-1.33398
1.3335
-1.15067
1.14549
-1.4924
1.49757
-1.13656
1.1231
-1.65888
1.67234
-1.10423
1.0789
-1.83274
1.85807
-1.04587
1.00372
-2.01181
2.05396
-0.950839
0.885542
-2.19072
2.25601
-0.80627
0.712252
-2.35917
2.45319
-0.60438
0.488598
-2.50244
2.61823
-0.345625
0.297069
-2.61921
2.66777
-0.023517
0.0229551
0.999014
-1.00064
1.00314
-0.120221
0.117724
-1.00663
1.01109
-0.217688
0.213225
-1.01652
1.02291
-0.317437
0.311052
-1.03023
1.03846
-0.420518
0.412287
-1.04757
1.05752
-0.528118
0.51817
-1.06825
1.07972
-0.641335
0.629871
-1.09183
1.10452
-0.761163
0.748481
-1.11766
1.13113
-0.888628
0.875157
-1.14478
1.15842
-1.02483
1.01118
-1.17185
1.18481
-1.17085
1.1579
-1.19698
1.20802
-1.32775
1.31671
-1.2175
1.22491
-1.49668
1.48928
-1.22962
1.23088
-1.679
1.67774
-1.22774
1.21903
-1.87619
1.8849
-1.20327
1.17857
-2.08929
2.114
-1.14255
1.09225
-2.31694
2.36724
-1.02413
0.934432
-2.55188
2.64158
-0.82013
0.682948
-2.77602
2.91321
-0.510389
0.433613
-2.98253
3.05931
-0.0223605
0.0217171
0.963463
-0.96519
0.968145
-0.114935
0.11198
-0.972281
0.977598
-0.208222
0.202905
-0.984098
0.991782
-0.303854
0.29617
-1.00065
1.0107
-0.402933
0.392882
-1.02193
1.03433
-0.506736
0.49434
-1.04788
1.06256
-0.616492
0.60181
-1.07834
1.0952
-0.733367
0.716514
-1.11307
1.1319
-0.858633
0.839804
-1.1516
1.17209
-0.993733
0.97325
-1.19323
1.21486
-1.14023
1.11859
-1.23681
1.25885
-1.29986
1.27782
-1.2807
1.30203
-1.47474
1.45342
-1.3224
1.34128
-1.66776
1.64887
-1.35799
1.37162
-1.88302
1.86939
-1.38095
1.3843
-2.12623
2.12288
-1.37932
1.36271
-2.40415
2.42076
-1.32985
1.27439
-2.72264
2.7781
-1.18815
1.05943
-3.08267
3.21139
-0.883428
0.79693
-3.49692
3.58342
0.107251
-0.225063
0.117812
-0.251218
0.377659
-0.126913
-0.472794
0.536535
-0.0632692
-0.572942
0.58688
-0.0139623
-0.586039
0.569124
0.0169077
-0.507617
0.458149
0.0494676
-0.404384
0.36298
0.0506723
-0.325694
0.268042
0.0508159
-0.209359
0.150217
0.0622562
-0.0852365
0.0138002
0.0707179
0.085759
-0.289332
0.202809
0.69412
-0.800791
0.629424
1.29806
-1.77041
0.0962703
2.07703
-2.00749
0.125732
2.31117
-2.18286
0.143671
2.3044
-1.58596
0.0720866
1.51391
-2.19938
-1.20799e-13
2.13417
-1.6571
-0.165543
0.304714
1.84485
-2.15688
-3.25758
4.14534
-0.887761
-4.75203
5.19913
-0.447091
-5.54099
5.80588
-0.264888
-6.01192
6.17239
-0.160473
-6.29732
6.39439
-0.0970748
-6.46948
6.52723
-0.0577547
-6.57139
6.60536
-0.0339752
-6.63244
6.65549
-0.0230519
-6.5352
6.5186
-0.0146144
-6.52754
6.53126
-0.00364933
-6.62104
6.70115
0.00140087
-6.69563
6.68466
0.0109731
-6.67448
6.67649
-0.00200912
-6.59596
5.98857
-0.0158955
-5.90209
5.97984
0.0113166
-6.60318
6.60716
-0.00188526
-5.44616
3.80786
-0.0129745
-4.09703
3.85583
-0.00208519
-4.1595
3.85285
0.00230617
-4.1969
4.51274
0.00129974
-4.36627
3.57532
-0.005503
-3.2719
3.34976
0.00423192
-3.26378
3.3446
0.000633983
-3.20378
3.33318
0.00141276
-3.21315
3.29035
0.0284291
-6.40539
6.54267
0.0340114
-6.52213
6.51414
0.0079912
-6.51701
4.56319
-0.00192107
-4.31157
4.29844
0.0131252
-4.27793
5.04897
0.0266682
-6.43283
6.41961
0.0149985
-6.24998
6.24177
0.0120049
-6.22725
6.34587
0.00727255
-6.34525
6.35692
-0.0116668
-6.38388
5.23896
-0.0331376
-2.88243
2.8932
-0.00605311
-2.89002
2.88248
0.0116715
-2.86192
6.1743
0.0173655
-6.36062
6.38147
-0.0207168
-6.42109
4.3399
-0.0477099
-1.03486
1.0408
-0.00593723
0.300291
-0.290896
0.0490807
-0.205844
0.303555
0.230406
-0.313597
-0.39008
0.458422
0.128138
-0.193964
-0.50631
0.529221
0.0328637
-0.0550204
-0.531976
0.522208
-0.0309795
0.0444401
-0.496174
0.455388
-0.0958633
0.137644
-0.406066
0.35478
-0.102473
0.153758
-0.303942
0.250504
-0.0992226
0.149925
-0.201389
0.150283
-0.118815
0.172289
-0.0935411
0.0370439
-0.12994
0.186566
0.0113541
-0.0438063
-0.27895
0.31636
0.0344202
0.0331566
-0.93194
0.896392
-0.0551544
0.0193682
-0.27904
0.789188
2.0604e-20
-1.16418e-20
0
-9.06568e-20
4.21338e-20
-4.89313e-21
0
-2.29773e-30
-1.08519e-21
-1.91512e-21
0
-2.9124e-22
5.67051e-12
2.49099e-12
1.29844e-13
-9.56351e-13
-2.49099e-12
0.278518
0.00379098
-0.341977
-2.06211
2.82424
3.50979
-4.27192
-3.56534
4.23369
1.67367
-2.34203
-4.78847
5.23542
0.903093
-1.35004
-5.59461
5.88322
0.544369
-0.832975
-6.1148
6.29991
0.335978
-0.521091
-6.44687
6.56272
0.205858
-0.321699
-6.6536
6.72464
0.124164
-0.1952
-6.78003
6.82314
0.0745452
-0.11765
-6.8565
6.88205
0.0477818
-0.0733368
-6.90164
6.91678
0.0294568
-0.0446023
-6.92854
6.9375
0.0115109
-0.0204734
-6.94375
6.94789
0.000273916
-0.00441971
-6.95033
6.95253
-0.010478
0.00828082
-6.95414
6.95369
0.00198716
-0.00153244
-6.95087
6.94865
0.016197
-0.0139707
-6.94918
6.95135
-0.00738606
0.00521062
-6.95146
6.94995
-0.00121886
0.00273216
-6.94558
6.94108
0.0111937
-0.0066979
-6.93818
6.9364
0.00237988
-0.000593582
-6.93473
6.93379
-0.00443527
0.00537877
-6.93311
6.93138
-0.000610567
0.00234539
-6.92832
6.92558
0.00282829
-8.7973e-05
-6.92277
6.92083
-0.0081581
0.010096
-6.91779
6.9117
-0.00529202
0.0113864
-6.90215
6.89171
-0.0191597
0.0295993
-6.88403
6.87904
-0.0663027
0.0712948
-6.87099
6.85893
-0.051976
0.0641464
-6.84411
6.82932
-0.0222241
0.036909
-6.81487
6.80192
-0.0142971
0.027942
-6.79007
6.78015
-0.0343029
0.0442164
-6.77162
6.76245
-0.0443352
0.0535011
-6.751
6.73862
-0.030516
0.0428989
-6.72717
6.71784
-0.0236753
0.0330042
-6.71076
6.70569
-0.0114962
0.0165658
-6.70184
6.69753
0.014359
-0.0100485
-6.69202
6.68622
0.0306789
-0.024882
-6.68089
6.67816
0.00581428
-0.00308579
-6.67639
6.67858
-0.0285181
0.0263331
-6.68282
6.68364
-0.0171636
0.0163367
-6.68342
6.68026
0.0248415
-0.0216821
-6.67461
6.66717
0.0470175
-0.039582
-6.66249
6.66102
0.0147226
-0.013252
0.329719
-0.389613
0.0598942
-0.135433
0.218836
0.355767
-0.515707
-0.274259
0.344032
0.24592
-0.339957
-0.399668
0.4697
0.0737003
-0.129602
-0.521536
0.517598
-0.0499043
0.0543651
-0.497749
0.461976
-0.175741
0.211514
-0.414246
0.362103
-0.204788
0.256931
-0.310487
0.260052
-0.199756
0.250144
-0.211228
0.162901
-0.222189
0.270516
-0.0892744
0.0434295
-0.202454
0.20729
-0.0121224
-0.00703261
-0.335824
0.322539
-0.0112489
0.0935234
-0.800955
0.713962
-0.183106
0.253161
-1.05252
0.982466
-0.209136
0.000672125
-0.00875549
0.300716
-1.11144e-20
-1.51504e-08
2.29773e-30
1.51504e-08
4.01598e-07
-3.96775e-07
-8.6001e-08
1.75248e-07
-8.03031e-22
-1.83505e-20
-2.78986e-20
-1.89058e-18
-0.521222
3.24026
2.53228
-5.3467
-3.38829
3.67164
4.72015
-5.0035
-4.07506
4.51678
2.88117
-3.32289
-4.9445
5.3303
1.76516
-2.15096
-5.66318
5.943
1.11736
-1.39717
-6.17333
6.35995
0.707276
-0.893896
-6.50874
6.62582
0.438626
-0.555702
-6.71696
6.78749
0.266534
-0.337069
-6.84179
6.88327
0.160354
-0.201835
-6.91472
6.93839
0.0981554
-0.121825
-6.9561
6.9695
0.0589423
-0.0723464
-6.97989
6.98804
0.0291787
-0.0373353
-6.99425
6.99883
0.00879814
-0.0133755
-7.00252
7.00571
-0.00523152
0.00203936
-7.00769
7.00708
0.000846336
-0.000246052
-7.00394
7.00016
0.0104073
-0.00662573
-6.99791
6.9973
-0.00434682
0.00495709
-6.99637
6.99329
-0.00565833
0.00873272
-6.98833
6.98264
0.00114556
0.00454499
-6.97766
6.97359
-0.00280513
0.0068725
-6.9705
6.96807
-0.00720626
0.00963509
-6.96586
6.96311
-0.00456285
0.00731033
-6.95971
6.95637
-0.00365222
0.00698984
-6.95399
6.952
-0.0121972
0.014189
-6.94924
6.94489
-0.0168193
0.0211733
-6.93946
6.93478
-0.0369327
0.041608
-6.93282
6.9332
-0.0731881
0.0728121
-6.93268
6.92931
-0.0710816
0.0744605
-6.92313
6.91495
-0.0481332
0.0563214
-6.90576
6.89711
-0.0393284
0.0479778
-6.88998
6.88435
-0.051933
0.0575682
-6.87975
6.87502
-0.0602654
0.065002
-6.86915
6.86255
-0.052031
0.0586233
-6.85598
6.85003
-0.0405093
0.0464657
-6.84471
6.83959
-0.02192
0.0270432
-6.83426
6.82798
0.00426573
0.00201304
-6.82065
6.81318
0.0176371
-0.0101691
-6.80671
6.80254
-0.000816951
0.0049906
-6.80072
6.80105
-0.024993
0.0246594
-6.8023
6.80195
-0.0153007
0.0156492
-6.79918
6.79416
0.0172268
-0.0122136
-6.78707
6.7786
0.0311529
-0.0226877
-6.77213
6.76687
0.00928935
-0.00403404
0.460619
-0.710862
0.0834902
-0.143946
0.199342
0.587913
-0.640986
-0.262692
0.33067
0.411603
-0.475661
-0.395557
0.441003
0.178407
-0.231567
-0.464928
0.476684
-0.0485631
0.0296499
-0.459923
0.403845
-0.242621
0.199535
-0.366017
0.36062
-0.309805
0.310267
-0.324364
0.271348
-0.301498
0.354641
-0.217308
0.162188
-0.320347
0.375466
-0.0953858
0.045816
-0.238156
0.287961
-0.0206913
-0.00296657
-0.321346
0.339766
0.00404558
0.025177
-0.658866
0.632761
-0.0643777
0.0931638
-0.925227
0.896441
-0.147636
0.226955
-1.33813
1.47143
-0.0165777
-3.97938e-07
0.00194582
0.0128201
1.19008e-07
1.30196e-06
2.79644e-08
-1.03306e-17
-1.30195e-06
1.26571
0.179734
-1.52097
-4.02766
4.04432
6.29194
-6.3086
-4.0732
4.22891
5.19922
-5.35493
-4.487
4.80575
3.68823
-4.00697
-5.14409
5.47323
2.50244
-2.83158
-5.77215
6.03168
1.66501
-1.92455
-6.2477
6.42322
1.07463
-1.25016
-6.56149
6.66864
0.667944
-0.775092
-6.75052
6.81292
0.403634
-0.466039
-6.86011
6.89581
0.240283
-0.275982
-6.92273
6.94312
0.143496
-0.163889
-6.95867
6.97078
0.0846537
-0.0967666
-6.98046
6.98849
0.0449851
-0.0530163
-6.99523
7.00096
0.0181985
-0.0239254
-7.00594
7.01021
0.00139899
-0.00566981
-7.01324
7.01426
0.000173857
-0.00118997
-7.01322
7.01114
0.00340307
-0.0013304
-7.00935
7.00825
-0.00623732
0.00733731
-7.00716
7.00507
-0.0114678
0.0135616
-7.0017
6.99767
-0.00962832
0.0136537
-6.99383
6.99058
-0.0108171
0.0140615
-6.98801
6.98592
-0.0121479
0.0142374
-6.98403
6.98201
-0.00988714
0.0119064
-6.97987
6.97798
-0.00967339
0.0115607
-6.97669
6.97576
-0.0157571
0.0166884
-6.97467
6.97321
-0.0240819
0.0255407
-6.97191
6.9718
-0.0437873
0.0438972
-6.97372
6.97718
-0.0707613
0.0673061
-6.98041
6.98193
-0.0750851
0.0735665
-6.98133
6.97902
-0.0613577
0.0636747
-6.97589
6.9729
-0.0536413
0.0566289
-6.97068
6.96916
-0.0610276
0.0625456
-6.96804
6.96673
-0.0678912
0.0692016
-6.96481
6.96232
-0.062952
0.0654425
-6.95951
6.95649
-0.0508343
0.053853
-6.95314
6.94914
-0.031616
0.0356175
-6.94434
6.93864
-0.00808087
0.0137818
-6.93228
6.92595
0.00324898
0.00308237
-6.9203
6.916
-0.00922547
0.0135215
-6.91301
6.91093
-0.0255212
0.0275975
-6.90899
6.90616
-0.0172606
0.0200873
-6.9021
6.89679
0.00703162
-0.00172449
-6.89021
6.88264
0.0147478
-0.00718294
-6.87572
6.86903
-0.00198774
0.00868284
0.801059
-0.865277
0.0655613
-0.120579
0.151066
0.654275
-0.689932
-0.20208
0.250412
0.525836
-0.596546
-0.294972
0.347229
0.269468
-0.357449
-0.406991
0.421412
-0.00628177
-0.0256529
-0.400229
0.359343
-0.185327
0.243502
-0.325445
0.34627
-0.316836
0.396688
-0.334081
0.268815
-0.400361
0.415617
-0.225229
0.168447
-0.432294
0.492106
-0.095593
0.0430631
-0.349015
0.401786
-0.0126698
-0.0155531
-0.41731
0.45967
0.0305593
-0.0317168
-0.622789
0.623946
0.0283961
-0.0214834
-0.877547
0.747142
0.0550304
-0.0855634
-1.43587
0
0.00401277
-3.75714e-38
-0.0122597
-1.51788e-07
-8.89183e-38
0.132836
5.93626e-19
-0.132836
-2.82037
4.31235
5.00775
-6.52913
-4.34244
4.36836
6.29895
-6.32488
-4.43365
4.56765
5.49061
-5.6246
-4.77598
5.0372
4.28844
-4.54966
-5.32617
5.61496
3.1362
-3.42499
-5.8826
6.11438
2.16918
-2.40097
-6.30501
6.45692
1.41402
-1.56593
-6.57417
6.66254
0.872502
-0.960869
-6.72985
6.78187
0.52234
-0.574363
-6.82255
6.85508
0.308776
-0.341309
-6.88154
6.90359
0.183779
-0.205836
-6.92236
6.93865
0.109818
-0.12611
-6.9529
6.96568
0.0625316
-0.0753117
-6.97728
6.98781
0.0314187
-0.0419498
-6.9973
7.00567
0.0115112
-0.019874
-7.01256
7.01762
0.0039243
-0.00898102
-7.02081
7.02267
0.00103449
-0.00289116
-7.02395
7.02514
-0.00751514
0.00632712
-7.02621
7.02675
-0.0144878
0.0139549
-7.02646
7.02559
-0.0161524
0.0170127
-7.0247
7.02413
-0.0160594
0.0166295
-7.02386
7.02375
-0.0154278
0.015539
-7.02366
7.02348
-0.0130364
0.0132136
-7.02323
7.0231
-0.0125244
0.0126489
-7.0233
7.02378
-0.0168638
0.0163819
-7.02442
7.02527
-0.0256777
0.0248194
-7.02677
7.02954
-0.0423452
0.0395756
-7.03395
7.03951
-0.0627077
0.057143
-7.04508
7.04958
-0.0703723
0.0658777
-7.05256
7.0542
-0.0637218
0.0620758
-7.05526
7.05649
-0.0572512
0.0560165
-7.05812
7.05986
-0.062292
0.0605549
-7.06147
7.06271
-0.0691049
0.067862
-7.0635
7.06382
-0.0663553
0.0660286
-7.06371
7.063
-0.0556138
0.0563287
-7.06138
7.05853
-0.0389807
0.0418296
-7.05452
7.04967
-0.0189653
0.0238141
-7.04438
7.03918
-0.00873604
0.0139413
-7.03438
7.03015
-0.0177591
0.0219913
-7.02623
7.02221
-0.0307096
0.0347258
-7.01773
7.01266
-0.0240232
0.0290882
-7.00727
7.00174
-0.0036072
0.00913399
-6.99564
6.98857
1.21243e-06
0.00706466
-6.98109
6.97326
-0.0158722
0.0237009
0.883847
-0.839736
0.0208671
-0.0691505
0.11097
0.73391
-0.795134
-0.14847
0.193467
0.64552
-0.690531
-0.247551
0.309253
0.418863
-0.480564
-0.371572
0.421054
0.0691868
-0.118788
-0.447587
0.452257
-0.298878
0.294208
-0.436112
0.394054
-0.478011
0.520068
-0.317648
0.275117
-0.457185
0.50752
-0.240967
0.167477
-0.552216
0.44246
-0.064969
0.0518503
-0.51533
0.604008
-0.00227062
-0.0389814
-0.49287
0.534122
0.0698008
-0.0888957
-0.633211
0.652306
0.0930391
3.33924e-22
-0.465109
0.206367
1.10251e-26
-3.30204e-07
4.19729e-20
3.30204e-07
2.98973e-07
1.72974e-07
1.51788e-07
-4.69993e-13
-0.41558
3.83564
1.27094
-4.78662
-4.29437
4.36622
6.67617
-6.74802
-4.44198
4.52744
6.38316
-6.46862
-4.63681
4.78786
5.76462
-5.91567
-4.98671
5.22371
4.79525
-5.03226
-5.48122
5.73437
3.69555
-3.9487
-5.9619
6.1502
2.61229
-2.80059
-6.29662
6.41252
1.70005
-1.81596
-6.50296
6.57461
1.0383
-1.10996
-6.63639
6.69177
0.624037
-0.679423
-6.7401
6.763
0.376733
-0.401217
-6.76557
6.75601
0.232877
-0.228103
-6.74311
6.73215
0.147699
-0.136757
-6.72156
6.71411
0.0926071
-0.0835481
-6.7281
6.75033
0.0561849
-0.0547419
-6.78088
6.81765
0.0311316
-0.0348603
-6.85692
6.89523
0.0164725
-0.0211759
-6.93138
6.96506
0.00683443
-0.0106496
-6.99643
7.02921
-0.00377463
0.00014511
-7.06566
7.08873
-0.0120111
0.00746523
-7.09307
7.09481
-0.0163691
0.0146333
-7.09629
7.09797
-0.0158722
0.0141929
-7.09975
7.10138
-0.0146396
0.0130098
-7.10283
7.10404
-0.0125627
0.0113498
-7.10499
7.10582
-0.0121489
0.0113234
-7.10674
7.10783
-0.0154602
0.0143677
-7.10912
7.11077
-0.0233822
0.0217342
-7.11321
7.117
-0.0360924
0.0323065
-7.12245
7.12917
-0.0509333
0.044218
-7.13605
7.1422
-0.0604871
0.0543394
-7.14705
7.1506
-0.0592686
0.0557225
-7.15352
7.15686
-0.0534564
0.050123
-7.16071
7.16447
-0.0576503
0.0538871
-7.16786
7.17076
-0.0657026
0.0628046
-7.17323
7.17532
-0.0647084
0.0626186
-7.177
7.17798
-0.0561148
0.0551273
-7.1778
7.17586
-0.0441802
0.046119
-7.17223
7.16757
-0.0284203
0.0330732
-7.16247
7.15752
-0.0188226
0.0237742
-7.15304
7.14889
-0.0261367
0.0302815
-7.14469
7.13977
-0.0393356
0.0442547
-7.13374
7.12676
-0.0351225
0.0420953
-7.11969
7.11346
-0.0148737
0.0211057
-7.10728
7.10012
-0.014045
0.021206
-7.09172
7.08265
-0.0320697
0.0411368
0.848869
-0.865021
0.00121962
-0.0335801
0.0577915
0.826751
-0.851278
-0.086532
0.121948
0.730748
-0.757563
-0.168371
0.226646
0.541134
-0.59057
-0.296473
0.361965
0.17685
-0.238068
-0.41428
0.431203
-0.285334
0.268412
-0.41581
0.380863
-0.550771
0.584716
-0.341557
0.308145
-0.612996
0.64861
-0.263783
0.156839
-0.51076
0.566385
-0.120626
0.0591628
-0.640554
0.384449
-0.00351304
-0.0537338
-0.583405
0.640652
0.105511
-0.156732
-0.684717
0.735937
0.126106
-1.09874e-06
-0.127325
0.0913688
1.09874e-06
-6.78634e-07
-7.10492e-06
1.16274e-05
-7.38734e-06
0.595387
9.72218e-17
-0.59538
-3.9108
4.167
6.85487
-7.11106
-4.26893
4.37632
6.83881
-6.9462
-4.49195
4.61907
6.57472
-6.70185
-4.76405
4.93409
6.07598
-6.24602
-5.13218
5.35118
5.26102
-5.48002
-5.57238
5.76892
4.17748
-4.37402
-5.88874
5.40777
2.95555
-2.46602
-3.58416
1.73973
1.83657
-3.54956e-18
-0.627587
0.151227
0.443823
7.32057e-20
-3.89865e-19
-1.9954e-35
3.48402e-19
4.14631e-20
1.43155e-19
-1.93315e-19
0
1.90513e-20
2.10142e-19
-2.15446e-19
0
7.88133e-21
2.11847e-19
-2.02247e-19
0
3.68479e-21
1.89872e-19
-1.77228e-19
0
2.05492e-21
1.65702e-19
-1.55607e-19
0
1.31548e-21
1.46484e-19
-1.37507e-19
0
9.24675e-22
1.27735e-19
-1.15902e-19
0
6.57003e-22
9.77729e-20
-6.75771e-20
0
4.03568e-22
2.7126e-05
0.000130362
0.000760674
1.21385e-22
-0.00352828
0.0113572
-0.000611506
5.18808e-20
-0.0239362
0.040124
-0.00222367
6.77626e-21
-0.0591565
0.0814614
-0.00314473
1.35525e-20
-0.108016
0.139818
-0.0033931
0
-0.177616
0.221639
-0.00301248
0
-0.272111
0.329985
-0.00287419
-5.42101e-20
-0.397198
0.476245
-0.00358948
0
-0.570377
0.685508
-0.00552092
0
-0.836116
1.05134
-0.00963562
0
-1.34139
1.54913
-0.0173849
0
-1.55526
1.54745
-0.027689
0
-1.54858
1.58238
-0.0338438
0
-1.79826
2.36195
-0.0324574
0
-2.73801
2.71731
-0.0362698
0.000118109
-2.67369
2.67332
-0.0445613
0
-2.71003
2.83698
-0.0473915
-5.86698e-05
-2.95928
2.93678
-0.0535486
0.000649901
-2.77039
2.33281
-0.0476162
-9.0866e-05
-2.04024
2.06066
-0.0379092
0
-2.12003
2.27341
-0.0291716
0
-2.42779
2.42005
-0.0263812
0
-2.31941
2.02268
-0.0360326
0
-1.85072
1.9309