/*--------------------------------*- C++ -*----------------------------------*\
| =========                 |                                                 |
| \\      /  F ield         | OpenFOAM: The Open Source CFD Toolbox           |
|  \\    /   O peration     | Version:  v1912                                 |
|   \\  /    A nd           | Website:  www.openfoam.com                      |
|    \\/     M anipulation  |                                                 |
\*---------------------------------------------------------------------------*/
FoamFile
{
    version     2.0;
    format      ascii;
    class       volScalarField;
    location    "46";
    object      alpha.water;
}
// * * * * * * * * * * * * * * * * * * * * * * * * * * * * * * * * * * * * * //

dimensions      [0 0 0 0 0 0 0];


internalField   nonuniform List<scalar> 
20320
(
1
1
1
1
1
1
1
1
1
1
1
1
1
1
1
1
1
1
1
1
1
1
1
1
1
1
1
1
1
1
1
1
1
1
1
1
1
1
1
1
1
1
1
1
1
1
1
1
1
1
1
1
1
1
1
1
1
1
1
1
1
1
1
1
1
1
1
1
1
1
1
1
1
1
1
1
1
1
1
1
1
1
1
1
1
1
1
1
1
1
1
1
1
1
1
1
1
1
1
1
1
1
1
1
1
1
1
1
1
1
1
1
1
1
1
1
1
1
1
1
1
1
1
1
1
1
1
1
1
1
1
1
1
1
1
1
1
1
1
1
1
1
1
1
1
1
1
1
1
1
1
1
1
1
1
1
1
1
1
1
1
1
1
1
1
1
1
1
1
1
1
1
1
1
1
1
1
1
1
1
1
1
1
1
1
1
1
1
1
1
1
1
1
1
1
1
1
1
1
1
1
1
1
1
1
1
1
1
1
1
1
1
1
1
1
1
1
1
1
1
1
1
1
1
1
1
1
1
1
1
1
1
1
1
1
1
1
1
1
1
1
1
1
1
1
1
1
1
1
1
1
1
1
1
1
1
1
1
1
1
1
1
1
1
1
1
1
1
1
1
1
1
1
1
1
1
1
1
1
1
1
1
1
1
1
1
1
1
1
1
1
1
1
1
1
1
1
1
1
1
1
1
1
1
1
1
1
1
1
1
1
1
1
1
1
1
1
1
1
1
1
1
1
1
1
1
1
1
1
1
1
1
1
1
1
1
1
1
1
1
1
1
1
1
1
1
1
1
1
1
1
1
1
1
1
1
1
1
1
1
1
1
1
1
1
1
1
1
1
1
1
1
1
1
1
1
1
1
1
1
1
1
1
1
1
1
1
1
1
1
1
1
1
1
1
1
1
1
1
1
1
0.99684
0.999278
0.999981
0.999977
0.952949
0.954183
0.994496
0.969302
0.990075
0.985654
0.62433
0.425304
0.574792
0.574569
0.353969
0.391472
0.553129
0.980848
1
1
1
1
1
1
1
1
0.973085
0.972587
0.995712
1
1
0.902784
0.87361
0.999863
0.655682
0.575642
0.575993
0.60637
0.580407
0.460062
0.460068
0.459642
0.459859
0.998083
0.999985
0.892266
0.661561
0.662746
0.999568
0.978919
0.990918
1
0.980017
0.448558
0.448558
0.705648
0.999986
0.934886
0.159695
0.784436
0.993525
0.998896
0.996785
0.990299
0.999451
1
0.988473
0.991326
0.992645
0.988529
0.944538
0.338711
-4.57279e-20
1.01207e-20
-5.70019e-22
9.95123e-13
0.00250819
1
1
1
1
1
1
1
1
1
1
1
1
1
1
1
1
1
1
1
1
1
1
1
1
1
1
0.999996
0.999866
0.999968
1
1
1
1
1
1
1
1
1
1
1
1
1
0.741409
0.840672
0.786033
0.828892
0.999973
1
1
0.999979
0.999998
0.830787
0.988297
0.993836
1
0.0214641
1.36434e-26
3.16818e-07
7.52415e-21
0.747192
1
1
1
1
1
1
1
1
1
1
1
1
1
1
1
1
1
1
1
1
1
1
1
1
1
1
1
1
1
1
1
1
1
1
1
1
1
1
1
1
1
1
0.777042
0.999724
0.997269
0.990094
0.963328
0.917336
0.930162
0.999991
0.999998
0.737315
0.837035
0.99897
1
0.979751
0.00538372
3.14578e-07
0.0617878
1
1
1
1
1
1
1
1
1
1
1
1
1
1
1
1
1
1
1
1
1
1
1
1
1
1
1
1
1
1
1
1
1
1
1
1
1
1
1
1
1
1
1
0.996779
0.949467
0.982804
0.890987
0.875045
0.72943
0.72966
0.928616
0.994613
0.737315
0.995319
1
0.948179
0.403364
0.000636923
-3.12582e-19
0.949154
1
1
1
1
1
1
1
1
1
1
1
1
1
1
1
1
1
1
1
1
1
1
1
1
1
1
1
1
1
1
1
1
1
1
1
1
1
1
1
1
1
1
1
0.91314
0.992937
0.999992
1
0.999793
1
1
0.860143
0.889226
0.94602
1
1
0.504506
2.7447e-26
8.82624e-08
0.581682
1
1
1
1
1
1
1
1
1
0.998508
0.990313
0.980246
0.971696
0.969504
0.97259
0.978625
0.985207
0.991547
0.998968
1
1
1
1
1
1
1
1
1
1
1
1
1
1
1
1
1
1
1
1
1
1
1
1
1
0.899832
0.999475
0.998324
0.996553
0.987073
1
0.998631
0.999888
0.734463
0.855828
1
1
0.216266
8.0797e-07
2.35043e-17
1
1
1
1
1
1
0.969217
0.53583
0.0661629
-2.04579e-37
-2.82907e-20
-3.1288e-20
-2.90985e-20
-2.52926e-20
-2.20444e-20
-1.93748e-20
-1.62985e-20
-9.65586e-21
2.75588e-05
0.00134855
0.00550809
0.0118784
0.0206431
0.0327822
0.0486147
0.0692712
0.0974105
0.14124
0.221502
0.237452
0.235157
0.299034
0.398037
0.389249
0.398825
0.425876
0.375501
0.295501
0.310206
0.345309
0.312747
0.261643
0.407288
0.532964
0.413543
1
1
0.938981
0.974996
0.980179
0.624992
1
0.999999
1
0.366087
1
1
4.46471e-09
2.19625e-06
0.817729
1
1
1
1
1
0.588218
5.29006e-20
-4.62746e-21
-8.15153e-21
-1.13416e-20
-1.56667e-20
-1.80953e-20
-1.75522e-20
-1.51872e-20
-1.2734e-20
-1.12128e-20
-1.06848e-20
-1.08373e-20
-1.14542e-20
-1.2503e-20
-1.43437e-20
-1.71172e-20
-2.06548e-20
-2.45863e-20
-2.83723e-20
-3.14659e-20
-3.33693e-20
-3.38329e-20
-3.2892e-20
-3.09497e-20
-2.87751e-20
-2.69705e-20
-8.77189e-26
-2.27658e-20
-3.66399e-25
-3.33283e-25
-1.38672e-20
-2.86638e-20
-2.89717e-20
-2.41531e-20
-1.55917e-20
-4.55767e-21
2.1025e-23
1.12925e-23
3.12393e-22
0.939862
0.953602
0.985704
0.931744
0.918304
0.984586
0.893602
1
0.93538
0.81227
1
0.822276
3.80879e-09
3.96891e-19
1
1
1
1
1
0.438997
-1.05396e-19
-1.33993e-20
-1.16506e-20
-1.08666e-20
-9.56003e-21
-8.75324e-21
-8.3921e-21
-8.18891e-21
-8.03893e-21
-7.97737e-21
-8.06533e-21
-8.33869e-21
-8.78814e-21
-9.35008e-21
-9.9586e-21
-1.06383e-20
-1.1433e-20
-1.22911e-20
-1.30661e-20
-1.35866e-20
-1.37328e-20
-1.34753e-20
-1.2883e-20
-1.21087e-20
-1.13349e-20
-1.06723e-20
-1.02203e-20
-1.00826e-20
-1.02774e-20
-1.07408e-20
-1.13887e-20
-1.21168e-20
-1.2802e-20
-1.33549e-20
-1.37335e-20
-1.39053e-20
-1.38623e-20
-1.37303e-20
-1.34835e-20
-1.28332e-20
0.90732
1
0.970298
0.86482
1
1
0.241453
0.486358
0.0293747
0.999811
1
6.5319e-09
1.2591e-09
0.73923
1
1
1
1
0.818926
-9.41624e-20
-1.00862e-20
-9.35288e-21
-8.64747e-21
-7.81604e-21
-6.98482e-21
-6.28449e-21
-5.74752e-21
-5.43024e-21
-5.37773e-21
-5.56849e-21
-5.91449e-21
-6.28514e-21
-6.54049e-21
-6.58193e-21
-6.42524e-21
-6.19458e-21
-5.99549e-21
-5.86021e-21
-5.78426e-21
-5.75868e-21
-5.77615e-21
-5.82839e-21
-5.90745e-21
-6.00865e-21
-6.12848e-21
-6.26234e-21
-6.40631e-21
-6.55635e-21
-6.70097e-21
-6.81969e-21
-6.89916e-21
-6.9351e-21
-6.9307e-21
-6.90813e-21
-6.90701e-21
-6.97611e-21
-7.18261e-21
-7.6048e-21
-8.26493e-21
-9.05529e-21
0.958564
1
0.973222
1
1
1
0.0394582
0.00435343
0.0216156
1
0.463995
7.90449e-09
4.99073e-27
1
1
1
1
1
2.22456e-19
-1.41798e-20
-1.02044e-20
-7.0586e-21
-5.88017e-21
-4.94608e-21
-4.18335e-21
-3.61071e-21
-3.23414e-21
-3.05911e-21
-3.06043e-21
-3.17384e-21
-3.31148e-21
-3.38841e-21
-3.35164e-21
-3.20188e-21
-2.99765e-21
-2.81821e-21
-2.70743e-21
-2.6651e-21
-2.67267e-21
-2.71253e-21
-2.773e-21
-2.847e-21
-2.9299e-21
-3.01772e-21
-3.10513e-21
-3.18541e-21
-3.25238e-21
-3.30161e-21
-3.32979e-21
-3.3361e-21
-3.32441e-21
-3.30339e-21
-3.28575e-21
-3.28743e-21
-3.32508e-21
-3.41358e-21
-3.56701e-21
-3.79782e-21
-4.10248e-21
-4.45288e-21
0.999999
0.994479
1
0.999999
0.999643
0.997853
0.524179
0.0043532
0.00435288
1
0.0180016
2.2098e-08
0.212806
1
1
1
1
0.349164
-2.54321e-21
-1.1527e-20
-6.80609e-21
-4.73172e-21
-3.46656e-21
-2.63178e-21
-2.0863e-21
-1.74373e-21
-1.5532e-21
-1.47151e-21
-1.4509e-21
-1.44571e-21
-1.42232e-21
-1.36515e-21
-1.27724e-21
-1.1758e-21
-1.08456e-21
-1.02231e-21
-9.93897e-22
-9.93061e-22
-1.01085e-21
-1.04055e-21
-1.07809e-21
-1.12075e-21
-1.16601e-21
-1.21114e-21
-1.25324e-21
-1.28981e-21
-1.31975e-21
-1.34371e-21
-1.36394e-21
-1.38402e-21
-1.40849e-21
-1.44203e-21
-1.48856e-21
-1.55086e-21
-1.63056e-21
-1.72867e-21
-1.84646e-21
-1.98434e-21
-2.13736e-21
-2.29661e-21
0.999151
0.984183
1
0.969537
0.748144
0.748144
1
0.372471
0.89309
0.99547
2.28416e-21
5.69676e-11
0.831525
1
1
1
1
-3.46133e-19
-7.65052e-21
-6.22066e-21
-4.02376e-21
-2.59974e-21
-1.74005e-21
-1.22505e-21
-9.12515e-22
-7.25603e-22
-6.18022e-22
-5.54488e-22
-5.09491e-22
-4.68613e-22
-4.26561e-22
-3.83805e-22
-3.43441e-22
-3.09187e-22
-2.84213e-22
-2.70142e-22
-2.6643e-22
-2.71119e-22
-2.82096e-22
-2.97781e-22
-3.1711e-22
-3.39281e-22
-3.63569e-22
-3.89268e-22
-4.15727e-22
-4.42443e-22
-4.69179e-22
-4.95955e-22
-5.22944e-22
-5.50337e-22
-5.78259e-22
-6.06713e-22
-6.35645e-22
-6.65259e-22
-6.96375e-22
-7.30765e-22
-7.71072e-22
-8.19704e-22
-8.76896e-22
-9.40717e-22
0.99969
0.997855
0.99999
0.757236
0.914101
1
1
1
1
0.569405
1.43835e-21
-1.21539e-29
1
1
1
1
0.357077
-2.13511e-20
-1.07813e-20
-4.33093e-21
-2.18889e-21
-1.2648e-21
-7.83985e-22
-5.00765e-22
-3.31926e-22
-2.33968e-22
-1.76651e-22
-1.40369e-22
-1.1463e-22
-9.4739e-23
-7.88946e-23
-6.6464e-23
-5.72055e-23
-5.09669e-23
-4.76122e-23
-4.69679e-23
-4.87893e-23
-5.27957e-23
-5.87228e-23
-6.63357e-23
-7.53846e-23
-8.55428e-23
-9.63778e-23
-1.07352e-22
-1.17869e-22
-1.27348e-22
-1.35316e-22
-1.41462e-22
-1.45646e-22
-1.47895e-22
-1.48382e-22
-1.47411e-22
-1.45424e-22
-1.43026e-22
-1.40967e-22
-1.40099e-22
-1.41253e-22
-1.4505e-22
-1.51717e-22
-1.61155e-22
0.982724
0.999654
0.953154
1
1
0.971066
0.969319
0.995618
1
1.4588e-20
2.28398e-12
0.197825
1
1
1
1
1.95428e-06
-1.19239e-20
-5.64261e-21
-2.55601e-21
-1.20005e-21
-6.06381e-22
-3.19729e-22
-1.6833e-22
-8.98766e-23
-5.08901e-23
-3.11289e-23
-2.0341e-23
-1.39771e-23
-1.00396e-23
-7.58313e-24
-6.10511e-24
-5.31517e-24
-5.04174e-24
-5.19073e-24
-5.71524e-24
-6.58874e-24
-7.78143e-24
-9.24212e-24
-1.08876e-23
-1.26012e-23
-1.424e-23
-1.56536e-23
-1.67084e-23
-1.73114e-23
-1.74258e-23
-1.70748e-23
-1.6331e-23
-1.52975e-23
-1.40915e-23
-1.28287e-23
-1.16172e-23
-1.05547e-23
-9.72888e-24
-9.22005e-24
-9.10428e-24
-9.45852e-24
-1.03647e-23
-1.1916e-23
-1.42214e-23
0.987078
0.9996
0.96191
1
0.987459
0.978709
0.999282
1
0.894145
3.4352e-31
7.47932e-12
0.76389
1
1
1
0.731129
-1.07099e-20
-3.18991e-21
-2.35685e-21
-1.40586e-21
-6.38151e-22
-2.67184e-22
-1.07969e-22
-4.11619e-23
-1.54851e-23
-6.19061e-24
-2.72993e-24
-1.33823e-24
-7.35678e-25
-4.63632e-25
-3.42668e-25
-2.97366e-25
-2.94647e-25
-3.19617e-25
-3.65282e-25
-4.27499e-25
-5.01957e-25
-5.82432e-25
-6.60434e-25
-7.26216e-25
-7.70637e-25
-7.87292e-25
-7.74012e-25
-7.33117e-25
-6.70742e-25
-5.95123e-25
-5.14933e-25
-4.37876e-25
-3.69957e-25
-3.15544e-25
-2.77852e-25
-2.59831e-25
-2.65136e-25
-2.9919e-25
-3.70266e-25
-4.90454e-25
-6.76456e-25
-9.49947e-25
-1.33739e-24
-1.86903e-24
0.597075
0.992243
0.991869
1
0.962128
0.998511
0.999994
1
0.633218
1.87349e-12
3.26827e-31
0.991265
1
1
1
0.13034
9.4301e-39
-2.45691e-21
-1.63691e-21
-8.02609e-22
-3.00462e-22
-9.55224e-23
-2.6025e-23
-6.06165e-24
-1.32428e-24
-3.07516e-25
-8.33656e-26
-2.86484e-26
-1.3568e-26
-8.99919e-27
-7.67069e-27
-7.5236e-27
-7.87504e-27
-8.44051e-27
-9.05629e-27
-9.5947e-27
-9.94137e-27
-9.99941e-27
-9.71216e-27
-9.08029e-27
-8.16852e-27
-7.08561e-27
-5.95843e-27
-4.90255e-27
-4.00378e-27
-3.31501e-27
-2.86286e-27
-2.66282e-27
-2.73631e-27
-3.12819e-27
-3.92435e-27
-5.26924e-27
-7.38536e-27
-1.05912e-26
-1.53184e-26
-2.21185e-26
-3.16554e-26
-4.46664e-26
-6.18934e-26
-8.3857e-26
0.582484
0.991349
1
0.832522
0.803545
0.951568
0.999996
1
0.34805
1.33464e-12
-1.9456e-18
1
1
1
1
1.63158e-19
-7.00334e-21
-2.39299e-21
-1.10135e-21
-4.16711e-22
-1.1722e-22
-2.4575e-23
-3.6671e-24
-3.90112e-25
-3.43777e-26
-3.27981e-27
-4.86578e-28
-1.51839e-28
-8.49464e-29
-6.18047e-29
-4.99617e-29
-4.2182e-29
-3.61078e-29
-3.08393e-29
-2.60397e-29
-2.16269e-29
-1.76521e-29
-1.41988e-29
-1.13427e-29
-9.1232e-30
-7.52762e-30
-6.49944e-30
-5.95598e-30
-5.81152e-30
-6.00219e-30
-6.50705e-30
-7.36865e-30
-8.71164e-30
-1.07642e-29
-1.38752e-29
-1.85276e-29
-2.53395e-29
-3.50394e-29
-4.84202e-29
-6.6254e-29
-8.91685e-29
-1.17514e-28
-1.51194e-28
-1.89407e-28
-2.2988e-28
0.644473
1
0.948948
0.803545
0.892476
1
1
0.997366
3.8378e-19
9.99282e-14
0.553641
1
1
1
0.625553
-1.50413e-20
-4.80445e-21
-1.86534e-21
-6.66881e-22
-1.87511e-22
-3.48119e-23
-3.82563e-24
-2.10072e-25
-4.96816e-27
-5.80555e-29
-1.65817e-30
-3.45888e-31
-1.16146e-31
-4.59455e-32
-2.03771e-32
-9.94993e-33
-5.3242e-33
-3.14312e-33
-2.07126e-33
-1.5311e-33
-1.25492e-33
-1.11015e-33
-1.02781e-33
-9.71615e-34
-9.22372e-34
-8.70709e-34
-8.13246e-34
-7.49857e-34
-6.82017e-34
-6.12027e-34
-5.42218e-34
-4.7465e-34
-4.10946e-34
-3.52295e-34
-2.99534e-34
-2.53303e-34
-2.143e-34
-1.83269e-34
-1.60755e-34
-1.46698e-34
-1.40034e-34
-1.38643e-34
-1.39686e-34
-1.40156e-34
-1.37137e-34
1
1
0.936455
1
1
0.99889
1
0.249671
2.40375e-16
1.19739e-33
0.902119
1
1
1
0.14951
-7.62622e-22
-3.32041e-21
-1.19351e-21
-3.44192e-22
-6.71169e-23
-6.75937e-24
-2.52381e-25
-1.44745e-27
-2.25793e-32
-7.39966e-34
-1.20213e-35
-3.22763e-37
-2.88099e-38
-5.12501e-39
-1.4258e-39
-5.20699e-40
-2.70749e-40
-1.56187e-40
-9.6511e-41
-6.28164e-41
-4.27284e-41
-3.03865e-41
-2.28521e-41
-1.85687e-41
-1.66906e-41
-1.67573e-41
-1.85547e-41
-2.20195e-41
-2.72188e-41
-3.43224e-41
-4.35871e-41
-5.53653e-41
-7.00751e-41
-8.82255e-41
-1.10389e-40
-1.37256e-40
-1.6967e-40
-2.08831e-40
-2.56503e-40
-3.1558e-40
-3.90784e-40
-4.90008e-40
-6.26186e-40
-8.19713e-40
-1.09588e-39
1
1
0.648451
1
0.964869
0.998947
0.937775
-3.74969e-38
1.0043e-17
-2.73179e-36
1
1
1
1
0.0014806
-2.9118e-21
-2.11018e-21
-6.86572e-22
-1.50622e-22
-1.73174e-23
-6.48624e-25
-1.77036e-27
-3.67621e-34
-2.34529e-36
-5.19378e-40
-6.52162e-42
-9.70712e-45
-5.63101e-48
-2.83698e-48
-1.90659e-48
-1.59285e-48
-1.59327e-48
-1.81628e-48
-2.23552e-48
-2.95063e-48
-3.9061e-48
-5.20334e-48
-6.91562e-48
-9.12937e-48
-1.19353e-47
-1.54285e-47
-1.97059e-47
-2.48628e-47
-3.09936e-47
-3.81734e-47
-4.64656e-47
-5.59009e-47
-6.6473e-47
-7.81414e-47
-9.08549e-47
-1.04609e-46
-1.19507e-46
-1.35928e-46
-1.54691e-46
-1.77336e-46
-2.06574e-46
-2.47116e-46
-3.0718e-46
-4.00858e-46
-5.48893e-46
0.889151
1
0.603797
0.998577
0.890112
1
0.64897
-1.10081e-20
3.84615e-37
0.0870387
1
1
1
0.946284
-6.96626e-20
-4.01059e-21
-1.35454e-21
-3.67896e-22
-5.3423e-23
-2.70971e-24
-1.23089e-26
-4.63529e-35
-5.85594e-38
-9.46015e-42
-1.77707e-44
-1.83259e-51
-6.92179e-53
-2.29951e-54
-1.16613e-55
-4.78842e-56
-5.88915e-56
-8.50089e-56
-1.29502e-55
-2.04372e-55
-3.30758e-55
-5.45673e-55
-9.19746e-55
-1.61742e-54
-2.80466e-54
-4.71739e-54
-7.82863e-54
-1.27927e-53
-2.06102e-53
-3.27636e-53
-5.13538e-53
-7.92641e-53
-1.2039e-52
-1.79685e-52
-2.6335e-52
-3.7917e-52
-5.37134e-52
-7.51277e-52
-1.04376e-51
-1.45294e-51
-2.05088e-51
-2.98174e-51
-4.55324e-51
-7.47019e-51
-1.34593e-50
-2.6778e-50
0.966353
0.999234
0.710011
0.99912
0.959591
1
0.796045
-1.25586e-20
-1.97074e-20
0.645825
1
1
1
0.385207
3.45228e-36
-3.64654e-21
-9.55509e-22
-1.78545e-22
-1.36996e-23
-1.62588e-25
-2.19603e-35
-2.17258e-38
-1.19395e-42
-3.54217e-46
-1.18112e-53
-1.19493e-55
-7.69018e-58
-7.03492e-60
-3.21546e-60
-3.54785e-60
-4.32837e-60
-5.71647e-60
-8.01522e-60
-1.16918e-59
-1.75518e-59
-2.69408e-59
-4.21061e-59
-6.65808e-59
-1.06123e-58
-1.7029e-58
-2.7576e-58
-4.56906e-58
-7.36199e-58
-1.16275e-57
-1.80486e-57
-2.74741e-57
-4.09235e-57
-5.95303e-57
-8.44998e-57
-1.17214e-56
-1.59529e-56
-2.14577e-56
-2.88335e-56
-3.93007e-56
-5.54473e-56
-8.31521e-56
-1.37161e-55
-2.59956e-55
-5.95453e-55
-1.71002e-54
0.811067
0.581332
0.673628
1
0.773412
1
0.972092
-5.40567e-23
-5.33282e-20
0.939773
1
1
1
0.0772095
2.28435e-38
-1.81659e-21
-5.80326e-22
-7.11156e-23
-2.04295e-24
-3.04648e-35
-3.97606e-38
-6.76839e-43
-2.58327e-46
-7.84713e-55
-3.41056e-57
-9.64016e-60
-1.68405e-63
-2.38664e-64
-2.47958e-64
-3.28186e-64
-4.84599e-64
-7.55984e-64
-1.21298e-63
-1.97389e-63
-3.23645e-63
-5.31306e-63
-8.68641e-63
-1.4125e-62
-2.29652e-62
-3.74444e-62
-6.11194e-62
-9.97528e-62
-1.62643e-61
-2.64723e-61
-4.26718e-61
-6.8077e-61
-1.04834e-60
-1.55138e-60
-2.22509e-60
-3.11352e-60
-4.28987e-60
-5.90587e-60
-8.2829e-60
-1.21578e-59
-1.9357e-59
-3.50818e-59
-7.74701e-59
-2.30697e-58
-1.07695e-57
-9.18423e-57
0.528579
0.809504
0.99934
1
0.277573
1
1
0.124074
-3.47499e-20
1
1
1
1
-2.81193e-19
-4.85833e-21
-1.46607e-21
-3.22812e-22
-2.08262e-23
-9.09359e-26
-2.50794e-37
-1.68363e-42
-8.17453e-46
-3.70867e-52
-2.2087e-57
-9.68647e-61
-6.8198e-64
-2.54687e-65
-1.14044e-66
-2.25621e-67
-2.78701e-67
-4.1913e-67
-6.46229e-67
-1.01277e-66
-1.6057e-66
-2.55828e-66
-4.06925e-66
-6.43362e-66
-1.00775e-65
-1.55714e-65
-2.36951e-65
-3.56313e-65
-5.32489e-65
-7.92611e-65
-1.17428e-64
-1.72646e-64
-2.51121e-64
-3.61369e-64
-5.17334e-64
-7.50515e-64
-1.17093e-63
-2.04033e-63
-4.10684e-63
-9.32614e-63
-2.27917e-62
-5.74482e-62
-1.46208e-61
-3.88802e-61
-1.33825e-60
-1.33032e-59
-5.32919e-58
0.97064
0.913007
0.587163
0.277573
0.277573
0.998286
1
0.000841599
0.146411
1
1
1
0.925929
3.12807e-20
-2.01358e-21
-1.03373e-21
-1.52111e-22
-3.63323e-24
-6.46982e-36
-5.72408e-40
-1.4288e-43
-1.46898e-47
-4.274e-52
-1.62129e-57
-9.75437e-63
-4.33908e-64
-1.82469e-65
-7.12364e-67
-2.58294e-68
-9.57874e-70
-1.60272e-70
-1.91108e-70
-2.76183e-70
-4.0492e-70
-5.95435e-70
-8.7639e-70
-1.28688e-69
-1.86994e-69
-2.67478e-69
-3.77342e-69
-5.29414e-69
-7.66658e-69
-1.32049e-68
-3.47205e-68
-1.37764e-67
-6.2857e-67
-2.81481e-66
-1.18172e-65
-4.60657e-65
-1.66864e-64
-5.6422e-64
-1.79221e-63
-5.38293e-63
-1.5546e-62
-4.3142e-62
-1.14334e-61
-2.92649e-61
-7.11024e-61
-1.92028e-60
-4.76256e-59
0.879882
0.537547
0.993951
0.934636
0.830429
1
0.727257
-5.28766e-39
0.680668
1
1
1
0.411956
-6.47153e-21
-2.36308e-21
-7.1058e-22
-5.66315e-23
-1.95221e-25
-1.37084e-36
-6.95731e-40
-1.73501e-43
-1.60364e-47
-4.52369e-52
-1.74701e-57
-7.10144e-63
-3.10964e-64
-1.2862e-65
-4.94089e-67
-1.75932e-68
-5.80332e-70
-1.77232e-71
-5.10595e-73
-2.66756e-74
-1.84374e-74
-2.42935e-74
-3.3194e-74
-4.89583e-74
-9.77712e-74
-3.65248e-73
-2.15156e-72
-1.44249e-71
-9.76346e-71
-6.43187e-70
-4.07829e-69
-2.48788e-68
-1.44271e-67
-7.77646e-67
-3.8409e-66
-1.73187e-65
-7.14073e-65
-2.70805e-64
-9.52418e-64
-3.13096e-63
-9.68495e-63
-2.83068e-62
-7.82123e-62
-2.03901e-61
-5.00958e-61
-1.18492e-60
-3.628e-60
0.0204606
0.765531
0.828005
0.636457
0.655207
0.472375
4.13358e-20
-8.19727e-27
0.936122
1
1
1
0.102
-4.2246e-21
-1.7219e-21
-4.20369e-22
-1.4004e-23
-2.34435e-33
-1.9021e-36
-1.08279e-39
-2.24055e-43
-1.65699e-47
-4.37564e-52
-1.71749e-57
-5.09185e-63
-2.17505e-64
-8.84664e-66
-3.34481e-67
-1.1731e-68
-3.81545e-70
-1.14967e-71
-3.20583e-73
-8.25926e-75
-1.9755e-76
-1.38141e-77
-7.27757e-77
-5.56136e-76
-4.21147e-75
-3.1395e-74
-2.30706e-73
-1.66799e-72
-1.17728e-71
-8.06613e-71
-5.37113e-70
-3.46151e-69
-2.13535e-68
-1.25567e-67
-7.00068e-67
-3.63938e-66
-1.73776e-65
-7.56857e-65
-3.01005e-64
-1.10078e-63
-3.72432e-63
-1.16938e-62
-3.41113e-62
-9.22025e-62
-2.29638e-61
-5.22184e-61
-1.05376e-60
0.0204606
-6.08481e-20
2.67348e-20
-1.30654e-21
1.54446e-20
-2.26228e-22
6.0366e-11
-2.93966e-25
1
1
1
1
0.00228606
-1.91353e-21
-1.53425e-21
-2.14676e-22
-1.47031e-24
-2.69252e-33
-3.01746e-36
-1.66091e-39
-2.95318e-43
-1.64908e-47
-3.85165e-52
-1.53124e-57
-3.56729e-63
-1.48281e-64
-5.92819e-66
-2.20477e-67
-7.61776e-69
-2.44275e-70
-7.26141e-72
-1.99878e-73
-5.09003e-75
-1.1992e-76
-3.3129e-78
-5.64019e-78
-4.37195e-77
-3.38642e-76
-2.59211e-75
-1.95756e-74
-1.45148e-73
-1.05101e-72
-7.41967e-72
-5.10139e-71
-3.39363e-70
-2.1733e-69
-1.33842e-68
-7.878e-68
-4.40111e-67
-2.32532e-66
-1.14634e-65
-5.18144e-65
-2.12508e-64
-7.89779e-64
-2.66059e-63
-8.11661e-63
-2.23037e-62
-5.44366e-62
-1.14195e-61
-1.91418e-61
0.00645623
0.0250516
5.44247e-07
3.26793e-06
4.40576e-16
2.27749e-23
8.75834e-05
0.253027
1
1
1
1
-7.63235e-20
-2.88529e-21
-1.1766e-21
-8.24763e-23
-2.05707e-30
-3.39564e-33
-4.46692e-36
-2.39623e-39
-3.85443e-43
-1.61052e-47
-3.07573e-52
-1.22926e-57
-2.4359e-63
-9.83067e-65
-3.86343e-66
-1.41365e-67
-4.80751e-69
-1.51893e-70
-4.45341e-72
-1.21025e-73
-3.04638e-75
-7.09628e-77
-1.56672e-78
-3.53495e-79
-2.56844e-78
-2.02387e-77
-1.57653e-76
-1.21114e-75
-9.13006e-75
-6.73495e-74
-4.8449e-73
-3.3895e-72
-2.29477e-71
-1.49904e-70
-9.41368e-70
-5.65817e-69
-3.25008e-68
-1.77458e-67
-9.17011e-67
-4.45452e-66
-1.99606e-65
-8.06141e-65
-2.89406e-64
-9.15576e-64
-2.53137e-63
-6.00018e-63
-1.17246e-62
-1.76109e-62
0.00181426
0.0268388
0.00817775
1.3235e-15
7.68122e-08
0.000504004
-2.20733e-23
0.81674
1
1
1
0.497074
2.5252e-21
-2.69346e-21
-8.08824e-22
-1.96072e-23
-1.8713e-30
-4.28491e-33
-5.92611e-36
-3.15064e-39
-4.77555e-43
-1.55354e-47
-2.22938e-52
-8.82185e-58
-1.61527e-63
-6.31876e-65
-2.44271e-66
-8.79539e-68
-2.94472e-69
-9.16245e-71
-2.64793e-72
-7.10192e-74
-1.76595e-75
-4.06853e-77
-8.68182e-79
-3.06337e-80
-1.09349e-79
-8.66206e-79
-6.80607e-78
-5.26786e-77
-4.00331e-76
-2.9741e-75
-2.15397e-74
-1.51517e-73
-1.03058e-72
-6.74977e-72
-4.23804e-71
-2.53992e-70
-1.44827e-69
-7.82997e-69
-3.99993e-68
-1.91581e-67
-8.52438e-67
-3.47809e-66
-1.26814e-65
-4.02388e-65
-1.08793e-64
-2.4537e-64
-4.47369e-64
-6.38061e-64
0.00124395
-1.25155e-22
-1.98839e-22
6.81376e-30
2.18881e-23
0.000373707
-3.56044e-20
1
1
1
1
0.131675
-3.30066e-21
-2.59965e-21
-4.67591e-22
-1.42988e-24
-1.74233e-30
-4.94968e-33
-6.89593e-36
-3.66381e-39
-5.38446e-43
-1.45625e-47
-1.47325e-52
-5.61862e-58
-1.03507e-63
-3.92496e-65
-1.49297e-66
-5.29309e-68
-1.74528e-69
-5.35079e-71
-1.52419e-72
-4.03185e-74
-9.89901e-76
-2.25433e-77
-4.75252e-79
-9.65153e-81
-3.39366e-81
-2.56288e-80
-2.00879e-79
-1.55001e-78
-1.17323e-77
-8.67151e-77
-6.24164e-76
-4.35434e-75
-2.9313e-74
-1.89425e-73
-1.17028e-72
-6.86535e-72
-3.80551e-71
-1.98383e-70
-9.66337e-70
-4.37136e-69
-1.8215e-68
-6.89672e-68
-2.33696e-67
-6.96099e-67
-1.78549e-66
-3.86842e-66
-6.97504e-66
-1.01452e-65
0.000353929
3.67035e-09
2.69495e-13
2.38425e-22
0.000574546
6.76939e-05
0.419734
1
1
1
1
0.00239311
-2.38108e-21
-2.13389e-21
-2.11402e-22
-3.88888e-28
-1.59376e-30
-4.92967e-33
-6.9312e-36
-3.6949e-39
-5.35406e-43
-1.28377e-47
-8.98204e-53
-3.15961e-58
-6.38132e-64
-2.34905e-65
-8.7958e-67
-3.07163e-68
-9.97982e-70
-3.0151e-71
-8.4686e-73
-2.20951e-74
-5.35291e-76
-1.20462e-77
-2.51171e-79
-4.84876e-81
-1.50247e-82
-5.05222e-82
-3.90031e-81
-2.96736e-80
-2.21017e-79
-1.60481e-78
-1.13156e-77
-7.71754e-77
-5.06499e-76
-3.18313e-75
-1.9039e-74
-1.07786e-73
-5.73905e-73
-2.85705e-72
-1.32104e-71
-5.63619e-71
-2.20477e-70
-7.86405e-70
-2.54106e-69
-7.35237e-69
-1.87124e-68
-4.06357e-68
-7.22216e-68
-1.01289e-67
-4.89252e-24
5.85963e-10
-1.2689e-23
0.000646441
0.000721601
1.09623e-22
0.947469
1
1
1
0.963384
-5.68545e-20
-2.88876e-21
-1.49213e-21
-6.36661e-23
-2.91538e-28
-1.35401e-30
-4.19489e-33
-5.90885e-36
-3.16198e-39
-4.56785e-43
-1.02288e-47
-5.1225e-53
-1.56515e-58
-3.76686e-64
-1.35018e-65
-4.97905e-67
-1.71328e-68
-5.48509e-70
-1.63335e-71
-4.52395e-73
-1.16424e-74
-2.78413e-76
-6.18819e-78
-1.27572e-79
-2.43371e-81
-4.36798e-83
-7.09396e-84
-4.83548e-83
-3.5822e-82
-2.5936e-81
-1.82702e-80
-1.24631e-79
-8.19977e-79
-5.17516e-78
-3.11825e-77
-1.78346e-76
-9.63144e-76
-4.88205e-75
-2.31014e-74
-1.01579e-73
-4.1313e-73
-1.54958e-72
-5.33367e-72
-1.67254e-71
-4.71461e-71
-1.16878e-70
-2.46506e-70
-4.24538e-70
-5.76899e-70
3.54232e-07
7.11486e-07
-4.67442e-25
0.000600691
-1.07757e-24
0.193029
1
1
1
1
0.339384
-2.75051e-22
-2.91541e-21
-9.18988e-22
-7.43367e-24
-2.34112e-28
-1.04067e-30
-3.05511e-33
-4.23738e-36
-2.26195e-39
-3.27386e-43
-7.1249e-48
-2.75101e-53
-6.83591e-59
-2.1227e-64
-7.43686e-66
-2.70036e-67
-9.15877e-69
-2.88994e-70
-8.48224e-72
-2.31611e-73
-5.87964e-75
-1.38737e-76
-3.04494e-78
-6.20456e-80
-1.17093e-81
-2.04249e-83
-3.79606e-85
-3.81629e-85
-2.68871e-84
-1.87273e-83
-1.26564e-82
-8.27076e-82
-5.19859e-81
-3.12682e-80
-1.7921e-79
-9.72662e-79
-4.97968e-78
-2.39292e-77
-1.07476e-76
-4.49974e-76
-1.75039e-75
-6.30595e-75
-2.09437e-74
-6.3538e-74
-1.73393e-73
-4.15118e-73
-8.43893e-73
-1.40485e-72
-1.85961e-72
5.22252e-07
1.52973e-08
-7.98435e-26
6.16754e-06
1.34105e-20
0.951757
1
1
1
1
0.0209969
-2.12336e-21
-2.5924e-21
-4.71154e-22
-5.10585e-26
-2.20197e-28
-8.41181e-31
-2.12112e-33
-2.70102e-36
-1.37881e-39
-1.96164e-43
-4.25409e-48
-1.37985e-53
-2.63767e-59
-1.13717e-64
-3.915e-66
-1.40023e-67
-4.68238e-69
-1.45649e-70
-4.21436e-72
-1.13451e-73
-2.83999e-75
-6.60991e-77
-1.4313e-78
-2.88067e-80
-5.37555e-82
-9.27658e-84
-1.47844e-85
-4.01933e-87
-1.26704e-86
-8.38094e-86
-5.39725e-85
-3.36135e-84
-2.0106e-83
-1.1505e-82
-6.26231e-82
-3.23103e-81
-1.57176e-80
-7.18831e-80
-3.07829e-79
-1.23269e-78
-4.60047e-78
-1.59677e-77
-5.11709e-77
-1.49966e-76
-3.94861e-76
-9.12674e-76
-1.79461e-75
-2.90356e-75
-3.76761e-75
2.50361e-08
6.59491e-05
2.55262e-09
2.74265e-09
0.530269
1
1
1
1
0.987448
-4.77252e-20
-2.88658e-21
-2.05984e-21
-1.76001e-22
-4.73033e-26
-2.60814e-28
-9.44683e-31
-2.00018e-33
-2.13009e-36
-9.28503e-40
-1.16036e-43
-2.387e-48
-6.55329e-54
-9.0021e-60
-5.74988e-65
-1.95581e-66
-6.89867e-68
-2.27738e-69
-6.99184e-71
-1.996e-72
-5.29968e-74
-1.30854e-75
-3.00451e-77
-6.41879e-79
-1.27516e-80
-2.35067e-82
-4.01071e-84
-6.31464e-86
-9.20229e-88
-5.19144e-89
-2.45406e-88
-1.48198e-87
-8.70329e-87
-4.93297e-86
-2.6806e-85
-1.39007e-84
-6.84561e-84
-3.19019e-83
-1.40151e-82
-5.78852e-82
-2.24129e-81
-8.10942e-81
-2.7306e-80
-8.48866e-80
-2.40874e-79
-6.13773e-79
-1.37299e-78
-2.62118e-78
-4.14326e-78
-5.29546e-78
0.00262782
0.00028837
2.37573e-09
0.0905253
1
1
1
1
1
0.263903
-6.80063e-37
-3.14749e-21
-1.40213e-21
-3.2178e-23
-5.16478e-26
-3.62348e-28
-1.4815e-30
-3.23963e-33
-3.37918e-36
-1.39215e-39
-1.62196e-43
-3.24136e-48
-5.20235e-54
-2.74438e-60
-2.72561e-65
-9.192e-67
-3.20092e-68
-1.04408e-69
-3.16689e-71
-8.92934e-73
-2.34068e-74
-5.70506e-76
-1.29286e-77
-2.72642e-79
-5.34752e-81
-9.73954e-83
-1.64264e-84
-2.55792e-86
-3.66428e-88
-4.92296e-90
-6.66241e-91
-3.27983e-90
-1.74986e-89
-9.15485e-89
-4.6527e-88
-2.27854e-87
-1.06916e-86
-4.7787e-86
-2.02588e-85
-8.11361e-85
-3.05511e-84
-1.07593e-83
-3.52223e-83
-1.06241e-82
-2.91917e-82
-7.19001e-82
-1.55687e-81
-2.89218e-81
-4.47944e-81
-5.65696e-81
0.00132941
1.0629e-23
0.045827
1
1
1
1
1
1
-3.04533e-19
-4.29727e-21
-2.74037e-21
-7.65266e-22
-5.16552e-24
-6.17008e-26
-5.16579e-28
-2.49749e-30
-6.36456e-33
-7.72239e-36
-3.78662e-39
-5.7024e-43
-1.64016e-47
-3.38881e-53
-3.71147e-60
-1.21136e-65
-4.05424e-67
-1.3938e-68
-4.49506e-70
-1.34767e-71
-3.75523e-73
-9.72223e-75
-2.33994e-76
-5.23511e-78
-1.08994e-79
-2.11093e-81
-3.79676e-83
-6.329e-85
-9.74457e-87
-1.38109e-88
-1.79467e-90
-2.31186e-92
-8.93227e-93
-4.15368e-92
-1.96947e-91
-9.20837e-91
-4.20709e-90
-1.86549e-89
-7.96135e-89
-3.24929e-88
-1.2601e-87
-4.60784e-87
-1.57875e-86
-5.02397e-86
-1.47022e-85
-3.91262e-85
-9.33837e-85
-1.96491e-84
-3.56421e-84
-5.43623e-84
-6.8131e-84
0.223074
0.192429
1
1
1
1
1
1
0.439033
-1.21875e-20
-3.3517e-21
-1.87511e-21
-3.28953e-22
-5.29832e-24
-7.16415e-26
-6.75211e-28
-3.82893e-30
-1.15824e-32
-1.69488e-35
-1.04011e-38
-2.14789e-42
-1.02537e-46
-6.13477e-52
-2.193e-58
-5.09475e-66
-1.67194e-67
-5.67469e-69
-1.81151e-70
-5.37284e-72
-1.47995e-73
-3.78731e-75
-9.0029e-77
-1.9895e-78
-4.08908e-80
-7.81832e-82
-1.38851e-83
-2.28626e-85
-3.4788e-87
-4.87326e-89
-6.26149e-91
-7.35285e-93
-9.53769e-95
-7.71499e-95
-3.43939e-94
-1.5263e-93
-6.6476e-93
-2.82353e-92
-1.16204e-91
-4.59546e-91
-1.73625e-90
-6.20766e-90
-2.08429e-89
-6.51396e-89
-1.87537e-88
-4.9165e-88
-1.15721e-87
-2.40949e-87
-4.34047e-87
-6.60508e-87
-8.27378e-87
1
1
1
1
1
1
1
1
1
1
1
1
1
1
1
1
1
1
1
1
1
1
1
1
1
1
1
1
1
1
1
1
1
1
1
1
1
1
1
1
1
1
1
1
1
1
1
1
1
1
1
1
1
1
1
1
1
1
1
1
1
1
1
1
1
1
1
1
1
1
1
1
1
1
1
1
1
1
1
1
1
1
1
1
1
1
1
1
1
1
1
1
1
1
1
1
1
1
1
1
1
1
1
1
1
1
1
1
1
1
1
1
1
1
1
1
1
1
1
1
1
1
1
1
1
1
1
1
1
1
1
1
1
1
1
1
1
1
1
1
1
1
1
1
1
1
1
1
1
1
1
1
1
1
1
1
1
1
1
1
1
1
1
1
1
1
1
1
1
1
1
1
1
1
1
1
1
1
1
1
1
1
1
1
1
1
1
1
1
1
1
1
1
1
1
1
1
1
1
1
1
1
1
1
1
1
1
1
1
1
1
1
1
1
1
1
1
1
1
1
1
1
1
1
1
1
1
1
1
1
1
1
1
1
1
1
1
1
1
1
1
1
1
1
1
1
1
1
1
1
1
1
1
1
0.997913
0.979859
0.935101
0.860422
0.751961
0.564253
-5.9253e-34
0.232596
0.229597
0.217773
0.2002
0.178902
0.154812
0.128548
0.100756
0.0721949
0.0438817
0.0177568
5.49562e-22
-1.61819e-22
-6.6169e-22
-8.43428e-22
-7.29245e-22
-6.73086e-22
-7.71591e-22
-8.80141e-22
-5.15464e-34
-5.81797e-35
-6.45454e-35
-1.04315e-34
-1.59469e-34
-2.1654e-34
-2.59914e-34
-2.89807e-34
-3.01807e-34
-2.93209e-34
-2.66448e-34
-2.44314e-34
-6.25334e-24
-1.32108e-23
-1.18577e-23
-9.64415e-24
-4.82428e-24
-1.18325e-24
-1.22068e-25
-2.26766e-26
-4.56001e-34
-5.27746e-35
-4.37705e-37
-1.14305e-36
-3.14186e-36
-5.76861e-36
-8.56315e-36
-1.08716e-35
-1.21856e-35
-1.23826e-35
-1.18105e-35
-1.16331e-35
-1.52051e-35
-2.51565e-35
-3.22693e-35
-3.17543e-35
-2.28722e-35
-1.17304e-35
-4.69838e-36
-1.96121e-36
-5.56911e-34
-2.9136e-35
-4.94916e-38
-1.41324e-38
-4.17845e-38
-9.47763e-38
-1.66229e-37
-2.37782e-37
-2.91057e-37
-3.16948e-37
-3.19804e-37
-3.14997e-37
-3.28768e-37
-3.62891e-37
-3.52401e-37
-2.75022e-37
-1.70315e-37
-8.46155e-38
-3.52051e-38
-1.33469e-38
-2.56118e-34
-7.7503e-37
-1.34804e-39
-2.63265e-40
-8.16172e-40
-1.98462e-39
-3.77554e-39
-5.701e-39
-7.14159e-39
-7.76813e-39
-7.61831e-39
-6.95102e-39
-6.06788e-39
-5.00945e-39
-3.71491e-39
-2.36534e-39
-1.26753e-39
-5.73412e-40
-2.23946e-40
-7.81011e-41
-8.33588e-35
-9.21587e-38
-8.86045e-40
-1.32105e-41
-1.71507e-41
-4.39649e-41
-8.49467e-41
-1.27778e-40
-1.55829e-40
-1.6182e-40
-1.48292e-40
-1.22605e-40
-9.24725e-41
-6.34383e-41
-3.89122e-41
-2.09357e-41
-9.77167e-42
-3.95392e-42
-1.39895e-42
-4.38983e-43
-1.99299e-35
-6.5245e-38
-6.61169e-40
-5.64382e-42
-3.62201e-43
-8.62167e-43
-1.64125e-42
-2.36448e-42
-2.72384e-42
-2.64827e-42
-2.24738e-42
-1.69009e-42
-1.13149e-42
-6.73498e-43
-3.54461e-43
-1.63867e-43
-6.62656e-44
-2.34334e-44
-7.27466e-45
-1.99608e-45
-1.34481e-36
-1.69729e-38
-1.64633e-40
-1.20502e-42
-1.14695e-44
-1.31734e-44
-2.39328e-44
-3.222e-44
-3.4522e-44
-3.12863e-44
-2.46532e-44
-1.69691e-44
-1.0176e-44
-5.30617e-45
-2.40545e-45
-9.48794e-46
-3.26139e-46
-9.79691e-47
-2.58319e-47
-6.0141e-48
-2.21387e-39
-5.22118e-40
-5.37944e-42
-3.63789e-44
-2.14552e-46
-1.34918e-46
-2.26232e-46
-2.79929e-46
-2.77767e-46
-2.35622e-46
-1.73116e-46
-1.0887e-46
-5.79963e-47
-2.61437e-47
-1.00309e-47
-3.30344e-48
-9.41653e-49
-2.3414e-49
-5.11583e-50
-9.89379e-51
-2.63772e-44
-2.03222e-43
-2.74677e-45
-1.84072e-47
-4.07239e-49
-7.20468e-49
-1.0959e-48
-1.23795e-48
-1.14466e-48
-9.17361e-49
-6.28501e-49
-3.56384e-49
-1.64738e-49
-6.23865e-50
-1.96761e-50
-5.26876e-51
-1.21806e-51
-2.46115e-52
-4.38352e-53
-6.92852e-54
-7.63473e-50
-9.18105e-49
-1.04054e-50
-3.27288e-52
-6.63661e-52
-1.20716e-51
-1.66222e-51
-1.72965e-51
-1.51579e-51
-1.16038e-51
-7.35429e-52
-3.66285e-52
-1.41494e-52
-4.32596e-53
-1.08572e-53
-2.31424e-54
-4.27096e-55
-6.86883e-56
-9.66516e-57
-1.20028e-57
1
1
1
1
1
1
1
1
1
1
1