/*--------------------------------*- C++ -*----------------------------------*\
| =========                 |                                                 |
| \\      /  F ield         | OpenFOAM: The Open Source CFD Toolbox           |
|  \\    /   O peration     | Version:  v1912                                 |
|   \\  /    A nd           | Website:  www.openfoam.com                      |
|    \\/     M anipulation  |                                                 |
\*---------------------------------------------------------------------------*/
FoamFile
{
    version     2.0;
    format      ascii;
    class       volScalarField;
    location    "46";
    object      epsilon;
}
// * * * * * * * * * * * * * * * * * * * * * * * * * * * * * * * * * * * * * //

dimensions      [0 2 -3 0 0 0 0];


internalField   nonuniform List<scalar> 
20320
(
4.44142e-05
0.000214357
0.000220202
0.000225984
0.000231656
0.000237171
0.000242472
0.000247488
0.000252137
0.000256319
0.000259925
0.000262837
0.000264924
0.000266034
0.000265984
0.000264485
0.000261009
0.000254305
0.000240688
0.000206121
4.40142e-05
4.39269e-05
4.46722e-05
4.64481e-05
4.97769e-05
5.53259e-05
6.39195e-05
7.66079e-05
9.47609e-05
0.00012012
0.000154826
0.000201489
0.000263266
0.000343825
0.000447021
0.000575506
0.000727775
0.000889573
0.00101468
0.00113655
4.44247e-05
4.49252e-05
4.61403e-05
4.81862e-05
5.15071e-05
5.67171e-05
6.47159e-05
7.68459e-05
9.50969e-05
0.000122371
0.000162781
0.000221876
0.000306775
0.000426093
0.000589394
0.000805098
0.00107423
0.00137451
0.00162481
0.00189788
4.50121e-05
4.65142e-05
4.88084e-05
5.19503e-05
5.64068e-05
6.28215e-05
7.21319e-05
8.57547e-05
0.000105895
0.000135982
0.000181217
0.000249167
0.000350155
0.000497164
0.00070499
0.000987667
0.00135049
0.00176747
0.00213378
0.00259694
4.57395e-05
4.85795e-05
5.23246e-05
5.6962e-05
6.29821e-05
7.10653e-05
8.22001e-05
9.78824e-05
0.000120444
0.000153573
0.000203114
0.00027811
0.000391748
0.000561445
0.000807222
0.00114759
0.00159008
0.00210558
0.00257633
0.00328951
4.65849e-05
5.11052e-05
5.67114e-05
6.3323e-05
7.14415e-05
8.17761e-05
9.53589e-05
0.000113753
0.000139387
0.000176099
0.000230059
0.000311194
0.0004349
0.000622964
0.000901675
0.00129513
0.00181196
0.00241689
0.00298283
0.00398179
4.752e-05
5.40326e-05
6.19041e-05
7.09916e-05
8.17952e-05
9.50374e-05
0.000111778
0.000133633
0.00016312
0.000204193
0.000263221
0.000350647
0.00048336
0.00068685
0.0009941
0.0014367
0.00202548
0.00271639
0.00337161
0.00468239
4.85101e-05
5.72799e-05
6.77972e-05
7.98721e-05
9.39943e-05
0.000110883
0.000131602
0.000157806
0.000192084
0.000238496
0.000303568
0.00039809
0.000539985
0.000757662
0.00109049
0.001579
0.0022385
0.00301568
0.00375985
0.00540689
4.9513e-05
6.07324e-05
7.42152e-05
8.97579e-05
0.000107844
0.000129182
0.000154822
0.000186433
0.000226665
0.000279669
0.00035211
0.000455072
0.000607272
0.000839451
0.00119676
0.00172933
0.00245922
0.00332432
0.00415847
0.00616961
5.04796e-05
6.42376e-05
8.08976e-05
0.000100302
0.000122958
0.000149577
0.000181193
0.000219478
0.000267129
0.000328374
0.000410008
0.000523399
0.000687976
0.000936478
0.00131931
0.00189652
0.00269903
0.00365727
0.00458642
0.00698748
5.13557e-05
6.76073e-05
8.74968e-05
0.000111003
0.000138723
0.000171426
0.00021016
0.000256616
0.000313539
0.000385228
0.000478601
0.000605328
0.000785564
0.00105395
0.00146587
0.00209154
0.00297269
0.00403396
0.00506803
0.00787861
5.20869e-05
7.06282e-05
9.35937e-05
0.000121218
0.0001543
0.000193774
0.000240795
0.00029714
0.000365651
0.000450717
0.000559397
0.000703702
0.000904617
0.0011988
0.00164669
0.00232911
0.0033004
0.00448024
0.00563256
0.00887771
5.2624e-05
7.30842e-05
9.87383e-05
0.000130214
0.000168667
0.000215374
0.000271771
0.000339886
0.000422793
0.000525077
0.000654018
0.000822083
0.00105131
0.00138075
0.00187648
0.00263097
0.00371325
0.00503802
0.0063289
0.0100443
5.29302e-05
7.47844e-05
0.000102507
0.000137254
0.000180715
0.000234753
0.000301369
0.000383139
0.000483671
0.000608025
0.000763952
0.00096467
0.00123375
0.00161351
0.00217708
0.00303094
0.00426239
0.00578068
0.00724785
0.0114649
5.29867e-05
7.55937e-05
0.000104572
0.000141702
0.000189386
0.000250351
0.000327554
0.000424592
0.000546159
0.000698376
0.000890078
0.00113594
0.00146213
0.00191607
0.00258109
0.00358283
0.00503347
0.00683529
0.00854841
0.0133144
5.27963e-05
7.54589e-05
0.000104761
0.000143142
0.000193843
0.000260725
0.000348151
0.000461402
0.000607118
0.000793548
0.00103186
0.00133974
0.00174823
0.00231377
0.00313703
0.00437504
0.00618179
0.00845424
0.0105658
0.0159445
5.23826e-05
7.44183e-05
0.000103093
0.000141462
0.00019363
0.000264777
0.000361111
0.000490364
0.000662307
0.000888986
0.00118611
0.00157737
0.00210326
0.00283736
0.00391348
0.00555037
0.0079927
0.0111635
0.0140744
0.0202332
5.17866e-05
7.25953e-05
9.97799e-05
0.000136878
0.00018877
0.000261978
0.000364849
0.000508283
0.000706541
0.000977707
0.00134541
0.00184437
0.00253277
0.00351683
0.00499666
0.00732663
0.0109929
0.0161505
0.021205
0.0289408
5.10592e-05
7.01746e-05
9.51798e-05
0.000129905
0.000179789
0.000252522
0.000358604
0.000512545
0.000734305
0.00105047
0.00149691
0.00212659
0.00302801
0.00436579
0.00646747
0.00998421
0.0160698
0.0260801
0.0385539
0.0533507
5.02542e-05
6.73697e-05
8.97335e-05
0.000121251
0.000167625
0.000237339
0.000342708
0.000501777
0.000740806
0.00109687
0.00162241
0.00239685
0.00355474
0.0053532
0.00833684
0.0137347
0.024335
0.0460623
0.0873184
0.166458
1.35081
3.60201
4.1913
4.17471
4.13181
4.42761
6.23571
12.2765
27.9063
58.2541
91.1397
149.812
567.761
1456.84
2549.62
4403.74
7643.35
7622.16
3522.54
1818.62
1106.21
748.09
539.974
407.607
318.104
254.926
208.838
173.79
146.249
124.575
107.498
94.2674
83.6126
74.1481
66.6436
60.6261
55.3521
50.9393
47.2994
44.1877
41.2969
38.6882
36.2049
33.8414
31.9556
30.5935
29.47
28.415
27.5641
27.038
26.8098
26.8602
27.2041
27.4911
27.32
27.1452
27.3079
27.8886
28.2838
27.9554
2.28929
1.38888
1.51693
1.63734
1.83299
2.27349
3.48358
7.1529
16.583
35.9603
65.3428
104.583
304.296
1065.89
2083.66
3649.15
7351.39
7348.13
2035.09
1008.48
612.462
413.413
297.588
223.756
173.672
138.14
112.041
92.3224
77.0855
65.1085
55.588
47.9226
41.6768
36.5567
32.3263
28.8094
25.8868
23.4503
21.3905
19.618
18.0727
16.697
15.4741
14.4171
13.4688
12.6202
11.8938
11.2967
10.8004
10.3814
10.0464
9.78001
9.56117
9.37085
9.20633
9.09123
8.98123
8.86421
8.73909
8.60062
2.81926
1.55347
1.58291
1.68031
1.89419
2.46469
4.09513
8.9765
21.9041
50.7855
102.25
182.453
379.968
902.359
2109.39
4148.48
7131.24
3639.35
1598.56
851.009
530.335
364.077
265.734
202.304
158.859
127.753
104.705
87.162
73.5197
62.716
54.0315
46.9631
41.1375
36.3147
32.3163
28.9716
26.1641
23.8043
21.8039
20.0807
18.5775
17.2476
16.0552
15.0008
14.0823
13.274
12.5581
11.9318
11.3969
10.9481
10.5757
10.2677
10.0061
9.77081
9.55179
9.35353
9.17615
9.00738
8.83199
8.64804
3.39041
1.78759
1.85841
1.99924
2.23619
2.93911
5.12219
11.9623
31.5958
80.9582
182.67
369.542
804.791
1690.6
2931.48
5860.18
4044.34
2184.11
1145.82
656.56
422.247
296.382
220.722
171.365
137.176
112.358
93.6771
79.2265
67.8159
58.6516
51.1862
45.0292
39.8967
35.6072
32.0215
29.0069
26.4653
24.3223
22.5056
20.9476
19.5963
18.4085
17.3529
16.4231
15.6131
14.8998
14.2626
13.6959
13.2029
12.7824
12.4262
12.122
11.8508
11.5913
11.3348
11.0875
10.8564
10.6296
10.3929
10.1502
4.16041
2.07366
2.22912
2.4833
2.79084
3.64698
6.54043
16.2898
47.3846
136.593
341.76
744.45
1714.7
4230.81
7600.21
8148.75
3466.06
1661.83
861.136
494.025
318.081
224.917
169.957
134.665
110.32
92.4869
78.8298
68.0581
59.3977
52.3325
46.4984
41.6315
37.5393
34.0912
31.1834
28.7266
26.6526
24.9057
23.4304
22.1722
21.086
20.1351
19.2945
18.5541
17.9064
17.3346
16.8187
16.3482
15.9258
15.5537
15.2249
14.9267
14.6411
14.3481
14.0405
13.7287
13.423
13.1153
12.7946
12.473
4.99184
2.40763
2.6831
3.12204
3.59242
4.66105
8.54128
22.762
73.2074
235.117
641.067
1463.78
3338.44
9870.93
20962.1
7552.63
2939.14
1312.85
652.724
364.65
231.073
163.059
124.681
100.906
84.7805
73.0025
63.9567
56.7835
50.9787
46.2092
42.2405
38.9007
36.062
33.6247
31.5129
29.6967
28.1616
26.8734
25.7861
24.8539
24.0403
23.3211
22.6825
22.1169
21.6166
21.1685
20.7531
20.3549
19.9772
19.6248
19.2894
18.9563
18.6099
18.2343
17.8268
17.403
16.9756
16.5383
16.091
15.6628
5.82085
2.77878
3.21745
3.92939
4.70723
6.09777
11.3407
32.6865
115.396
398.987
1167.52
2832.88
6350.48
12673.7
13340.5
5338.32
2188.22
969.554
471.573
258.407
162.776
116.136
90.7761
75.369
65.387
58.4209
53.3181
49.4094
46.3185
43.8053
41.7019
39.8839
38.2547
36.7243
35.1948
33.8152
32.6926
31.7668
30.9701
30.2553
29.599
28.9984
28.4594
27.9814
27.5525
27.1536
26.7594
26.3518
25.9425
25.5365
25.1164
24.6642
24.1667
23.6148
23.0194
22.4093
21.7922
21.1433
20.5035
19.9441
6.71615
3.18953
3.82781
4.91754
6.22223
8.14436
15.1316
47.4283
182.119
652.01
2024.14
5429.34
12674.2
26438.2
9623.72
3739.43
1535.92
671.463
321.704
176.478
115.242
85.7233
69.1452
59.2436
53.1618
49.3945
46.9212
45.2516
44.0695
43.1767
42.434
41.7583
41.1399
40.6729
40.493
40.4161
40.1881
39.7765
39.2481
38.6452
38.0075
37.3837
36.816
36.3113
35.8495
35.4038
34.9322
34.3985
33.8596
33.3137
32.7144
32.0376
31.2895
30.4605
29.5903
28.7455
27.946
27.1147
26.2898
25.653
7.65953
3.63571
4.51019
6.09178
8.21414
11.1671
20.3162
68.0865
279.426
1008.03
3258.18
10356.8
26682.3
21568.1
7176.58
2624.42
1034.23
439.698
210.406
121.116
86.3164
67.3632
55.9832
49.2807
45.3426
43.0759
41.7117
40.8852
40.3857
40.0763
39.8594
39.6998
39.6447
39.7626
39.9891
40.3031
40.677
40.92
40.9379
40.754
40.4374
40.0673
39.6992
39.3406
38.9919
38.6395
38.2369
37.7561
37.2499
36.7165
36.1106
35.4199
34.6636
33.8524
33.043
32.332
31.7696
31.2595
30.7663
30.4275
8.5285
4.10265
5.25572
7.44893
10.7369
15.7911
28.2837
96.2627
409.557
1467.24
4737.53
17416.2
44080.6
15015.8
4842.48
1713.35
651.78
273.821
137.39
89.5967
68.4089
55.2939
47.08
42.0504
39.0873
37.5362
36.774
36.4255
36.2948
36.2779
36.3166
36.406
36.5864
36.851
37.0687
37.2917
37.6685
38.1023
38.4321
38.5943
38.61
38.5353
38.4114
38.2512
38.07
37.8685
37.612
37.2807
36.9056
36.4876
36.0045
35.4636
34.8851
34.2886
33.7239
33.2612
32.8954
32.514
32.2199
32.116
9.31516
4.5866
6.04494
8.94805
13.8132
22.2876
42.5323
134.959
574.156
2040.42
6493.74
20078.9
22770.5
8383.97
2904.88
1028.63
387.136
168.436
96.1853
72.1851
57.4482
47.0905
40.1869
35.8101
33.2231
31.9346
31.4652
31.434
31.6049
31.8534
32.1225
32.4059
32.7171
33.014
33.1945
33.3309
33.6039
34.0145
34.4374
34.775
35.0018
35.1372
35.2042
35.2181
35.1961
35.1418
35.0351
34.866
34.6511
34.3945
34.0926
33.7588
33.4121
33.0708
32.7669
32.529
32.3243
32.1074
32.0057
32.0673
10.2455
5.09599
6.88639
10.5643
17.2894
30.7175
64.6011
198.893
788.135
2777.44
8783.09
19332.5
13692
4781.25
1679.83
592.594
227.019
109.916
76.3031
61.6521
50.2574
41.1927
34.6101
30.2532
27.6432
26.3458
25.9476
26.0768
26.4614
26.9361
27.4167
27.8732
28.2923
28.6292
28.8309
28.9728
29.2091
29.5823
30.0176
30.4274
30.7679
31.0341
31.2355
31.3843
31.4939
31.5676
31.596
31.5766
31.5192
31.4307
31.3161
31.1883
31.0614
30.9473
30.8605
30.804
30.7541
30.7183
30.7939
30.9931
11.348
5.65092
7.81629
12.3588
21.1578
40.5112
93.8533
289.36
1089.11
3799.81
12729.5
26989.2
8442.72
2886.25
982.818
342.48
139.584
81.5919
66.1696
54.4188
44.3874
35.979
29.5454
25.1103
22.3853
20.9982
20.5693
20.7417
21.2307
21.844
22.4704
23.0553
23.5673
23.9718
24.2528
24.478
24.76
25.1438
25.5901
26.0361
26.4407
26.7902
27.0863
27.3368
27.5506
27.7306
27.8744
27.9835
28.0657
28.128
28.1776
28.2242
28.2761
28.3388
28.4158
28.5036
28.5968
28.7233
28.945
29.2514
12.4786
6.25714
8.86346
14.428
25.6653
51.9876
129.106
405.89
1494.58
5491.14
15139.1
15875.4
5445.27
1780.26
581.326
204.227
94.897
69.8415
59.2756
48.6782
39.0458
30.9026
24.6121
20.2143
17.4774
16.0598
15.5987
15.7569
16.2611
16.9179
17.6078
18.2634
18.8458
19.3306
19.7198
20.0647
20.4372
20.8704
21.3447
21.8211
22.2696
22.6768
23.0415
23.3681
23.6624
23.9273
24.1644
24.3773
24.5722
24.7556
24.9334
25.1117
25.2944
25.4831
25.6774
25.8766
26.0875
26.3388
26.6645
27.0396
13.7208
6.89375
10.0158
16.8076
31.1043
66.165
171.958
546.651
1965.37
7553.46
17303
11579.8
3501.03
1090.41
346.237
129.112
73.8468
63.9699
54.0187
43.4334
33.8
25.8295
19.7748
15.5833
12.9943
11.6554
11.2075
11.3375
11.8029
12.4329
13.1179
13.7918
14.4162
14.9719
15.4633
15.9217
16.3876
16.8798
17.3891
17.8936
18.3745
18.8223
19.2354
19.6165
19.9696
20.298
20.6051
20.8949
21.1727
21.4434
21.7112
21.9793
22.2493
22.5211
22.795
23.0739
23.369
23.7015
24.0869
24.4925
15.0145
7.53123
11.2432
19.524
37.7146
84.3225
227.294
721.329
2518.84
9633.58
22991.7
7068.68
2177.46
657.506
210.01
89.3187
66.0256
59.5909
49.0912
38.1337
28.4974
20.8103
15.1522
11.3413
9.04889
7.88939
7.50433
7.61305
8.01607
8.57905
9.21405
9.86491
10.4973
11.0935
11.6528
12.189
12.7206
13.2561
13.791
14.3136
14.8136
15.2853
15.7277
16.1427
16.5337
16.9041
17.2576
17.5982
17.9299
18.2563
18.5799
18.9026
19.2246
19.5462
19.8689
20.1972
20.5416
20.9153
21.3226
21.7292
15.3532
8.13043
12.5278
22.5441
45.5624
107.708
303.589
966.153
3242.04
11086.3
13909.1
4483.05
1332.97
394.024
132.751
69.361
63.1232
55.4002
43.8656
32.6154
23.1917
15.9969
10.9176
7.63935
5.75495
4.8427
4.5546
4.65242
4.98684
5.46327
6.01927
6.61239
7.2139
7.80666
8.38396
8.94763
9.50278
10.0513
10.5901
11.113
11.6145
12.0916
12.5438
12.9729
13.3816
13.7733
14.1513
14.5189
14.8793
15.2349
15.5872
15.937
16.2846
16.6305
16.9767
17.3279
17.6914
18.0748
18.4776
18.8677
14.4622
8.62357
13.8291
25.789
54.4412
136.591
410.376
1355.89
4510.93
11627.6
10357.8
2847.04
806.479
238.319
89.8087
60.9826
60.8753
50.9078
38.3538
27.0206
18.0705
11.5828
7.24196
4.60819
3.19755
2.56288
2.38345
2.47424
2.73679
3.11432
3.569
4.07258
4.60325
5.14524
5.68883
6.22899
6.76357
7.29061
7.80669
8.30795
8.79109
9.25425
9.69739
10.1218
10.5298
10.9241
11.3074
11.6823
12.051
12.4151
12.7754
13.1323
13.486
13.837
14.1871
14.5399
14.9004
15.2732
15.6571
16.0227
13.1858
8.97647
15.0709
29.017
63.6339
168.197
540.157
1945.43
6882.13
14114.2
6519.14
1761.57
481.363
147.8
66.6827
59.7407
57.8121
45.8055
32.605
21.5535
13.3474
7.74873
4.26211
2.33674
1.41909
1.0551
0.972265
1.04736
1.23019
1.49671
1.83059
2.21693
2.64168
3.09213
3.55816
4.03203
4.50815
4.98205
5.44974
5.90761
6.35292
6.78416
7.20101
7.60416
7.9952
8.37606
8.74868
9.11495
9.47615
9.83317
10.1864
10.5357
10.8812
11.2231
11.5628
11.9028
12.2469
12.5988
12.9581
13.2977
13.3143
9.25559
16.174
31.8668
71.7703
196.415
653.527
2543.17
9470.6
17172.6
3967.22
1022.88
285.043
96.0231
55.3028
59.8678
54.0255
40.2145
26.8308
16.4349
9.20639
4.62918
2.06518
0.865312
0.409066
0.265245
0.244812
0.288501
0.384002
0.531354
0.73208
0.982759
1.27746
1.60755
1.96504
2.34167
2.7308
3.12662
3.52434
3.91997
4.31053
4.69406
5.06965
5.43727
5.79761
6.15166
6.50063
6.84538
7.18666
7.52461
7.85921
8.19003
8.51687
8.8398
9.15977
9.47872
9.80003
10.1276
10.4621
10.7766
14.333
9.64834
17.212
34.3176
77.5598
213.693
713.237
2753.02
7223.18
6827.14
2044.83
574.588
172.534
67.0841
51.3165
59.2975
49.2157
34.2889
21.2681
11.8589
5.77908
2.30059
0.700377
0.164444
0.0418452
0.0206645
0.0206876
0.0312565
0.0558632
0.102401
0.179814
0.29491
0.451087
0.646569
0.878481
1.13862
1.42199
1.7218
2.0332
2.35154
2.67332
2.99595
3.31769
3.63765
3.95551
4.27144
4.58567
4.89838
5.2095
5.51877
5.82569
6.12968
6.43037
6.72774
7.02256
7.31666
7.61327
7.9166
8.22714
8.5173
16.0826
10.4487
18.5069
36.9232
81.4089
216.888
703.022
2607.54
6229.2
3717.12
1114.8
336.173
110.071
51.4637
52.4962
56.7865
43.6311
28.2872
16.1364
7.96689
3.13535
0.838852
0.108657
0.00496485
0.000445425
0.000236421
0.000297786
0.000610685
0.00169159
0.00520611
0.0151797
0.0384996
0.0834111
0.156791
0.262372
0.400011
0.567486
0.760332
0.974377
1.20417
1.4461
1.69702
1.95428
2.21622
2.48159
2.74958
3.01965
3.29122
3.56361
3.83615
4.10811
4.3788
4.64789
4.91544
5.18221
5.44997
5.72179
6.0013
6.28795
6.55303
19.5568
12.0853
20.7308
40.7928
86.505
213.321
654.956
2132.26
5575.59
2067.74
660.091
211.227
74.6752
43.7333
55.2817
53.1186
37.5057
22.4986
11.6071
4.83499
1.35641
0.162524
0.00203986
6.9904e-05
4.89806e-05
4.64036e-05
4.59077e-05
4.76175e-05
5.5777e-05
8.92097e-05
0.000238021
0.00091517
0.00362671
0.0121394
0.0325557
0.071411
0.133478
0.220734
0.332635
0.467151
0.621182
0.792329
0.976592
1.17212
1.37653
1.58847
1.80643
2.02925
2.25579
2.48509
2.71625
2.94868
3.18212
3.41684
3.65366
3.89414
4.1407
4.39573
4.65663
4.89414
26.1354
15.1816
24.9426
47.5379
97.9421
218.073
598.064
2009.29
4498.94
1348.39
425.957
140.532
53.6055
41.0526
57.0304
47.9125
31.2471
17.1922
7.79798
2.50929
0.400706
0.00650007
6.41363e-05
4.67e-05
4.48525e-05
4.36322e-05
4.27488e-05
4.21721e-05
4.19028e-05
4.20125e-05
4.30616e-05
4.76955e-05
6.79269e-05
0.000165601
0.000649193
0.0026929
0.00925925
0.0251073
0.0553155
0.103639
0.171741
0.259621
0.365923
0.488967
0.62628
0.776378
0.936322
1.10494
1.28036
1.46165
1.64774
1.83823
2.03295
2.23229
2.43709
2.64858
2.86815
3.09627
3.32785
3.53432
32.6364
20.2706
32.6993
59.8143
120.882
254.711
582.452
1619.46
2363.74
844.595
286.55
96.2302
40.7579
42.056
55.4808
41.9877
25.1865
12.531
4.74897
1.06182
0.0510213
0.00011381
4.73537e-05
4.52783e-05
4.38906e-05
4.27964e-05
4.19746e-05
4.13813e-05
4.09839e-05
4.07457e-05
4.06749e-05
4.07811e-05
4.10877e-05
4.1945e-05
4.50031e-05
5.76244e-05
0.000117108
0.00041524
0.0017275
0.00615643
0.0173832
0.0396915
0.0765425
0.129777
0.19958
0.28497
0.384216
0.495621
0.617195
0.748096
0.886649
1.03287
1.18649
1.34803
1.51818
1.69766
1.88687
2.0843
2.28225
2.45396
45.2138
27.8335
45.5551
81.9111
161.344
344.792
732.785
1705.79
1730.75
595.26
200.663
66.1851
33.3333
46.1294
51.6495
35.6487
19.5982
8.61183
2.54742
0.30988
0.00144961
5.00746e-05
4.58934e-05
4.43672e-05
4.31158e-05
4.211e-05
4.13322e-05
4.07526e-05
4.03501e-05
4.00857e-05
3.99499e-05
3.99406e-05
4.00219e-05
4.01922e-05
4.04639e-05
4.0827e-05
4.14907e-05
4.34295e-05
5.07585e-05
8.40973e-05
0.000254115
0.00106787
0.004109
0.0125047
0.0301505
0.0601132
0.103695
0.16066
0.229989
0.310637
0.401709
0.502974
0.614193
0.735936
0.868624
1.01233
1.16688
1.329
1.48922
1.62274
63.3167
38.6613
65.6609
119.016
231.166
505.458
1203.11
2331.37
1328.96
442.949
139.527
44.9718
29.9876
49.9885
46.9625
29.3415
14.639
5.44187
1.15959
0.0436333
8.63747e-05
4.67538e-05
4.49695e-05
4.35851e-05
4.2426e-05
4.14967e-05
4.0767e-05
4.02181e-05
3.98308e-05
3.95537e-05
3.93755e-05
3.93105e-05
3.93486e-05
3.94656e-05
3.96275e-05
3.98341e-05
4.0111e-05
4.0467e-05
4.08768e-05
4.15173e-05
4.31472e-05
4.90076e-05
7.63241e-05
0.000224836
0.000991333
0.00398459
0.0122032
0.0287982
0.0556642
0.0933953
0.141997
0.201466
0.271923
0.353724
0.447161
0.552229
0.667955
0.790294
0.908868
0.998561
79.2182
52.321
95.2876
179.939
346.844
750.958
2142.38
4383.15
1079.98
312.296
90.1107
30.6163
29.9845
51.9158
40.9097
23.3382
10.3957
3.11633
0.397095
0.00203339
4.9731e-05
4.56906e-05
4.41664e-05
4.28902e-05
4.18156e-05
4.09558e-05
4.02712e-05
3.97534e-05
3.93789e-05
3.9094e-05
3.89013e-05
3.88193e-05
3.88179e-05
3.88576e-05
3.89597e-05
3.91468e-05
3.93965e-05
3.96533e-05
3.9929e-05
4.0296e-05
4.08021e-05
4.14854e-05
4.27574e-05
4.63834e-05
6.0406e-05
0.000127875
0.000474944
0.00198049
0.00665103
0.0170248
0.0350583
0.0619196
0.0983695
0.144976
0.202046
0.269389
0.345542
0.426011
0.499212
0.53494
101.07
65.8272
131.834
268.966
527.058
1130.03
2324.19
2168.74
664.081
191.297
53.0235
22.3533
32.8036
49.9711
34.4249
17.8526
6.88187
1.57746
0.0810933
0.000119475
4.6658e-05
4.48319e-05
4.34291e-05
4.22456e-05
4.12634e-05
4.04713e-05
3.98338e-05
3.93483e-05
3.89856e-05
3.86993e-05
3.85051e-05
3.84137e-05
3.83794e-05
3.83775e-05
3.84488e-05
3.85979e-05
3.87783e-05
3.89805e-05
3.92438e-05
3.95773e-05
3.99473e-05
4.03885e-05
4.10343e-05
4.20777e-05
4.41025e-05
4.94825e-05
6.78629e-05
0.000142317
0.000463431
0.00169753
0.00532444
0.0132847
0.0272286
0.0482518
0.0768837
0.112901
0.154662
0.197533
0.230001
0.223706
157.329
75.9568
147.3
295.216
534.3
1001.01
2037.56
1113.47
352.813
102.701
29.5405
18.9837
37.9869
45.2065
28.1651
13.122
4.19718
0.651846
0.00721789
5.27692e-05
4.55744e-05
4.40351e-05
4.27362e-05
4.16456e-05
4.07501e-05
4.00275e-05
3.94412e-05
3.89932e-05
3.86497e-05
3.83698e-05
3.81748e-05
3.80717e-05
3.80198e-05
3.80018e-05
3.80488e-05
3.81532e-05
3.82844e-05
3.84517e-05
3.86778e-05
3.89553e-05
3.92681e-05
3.96479e-05
4.01398e-05
4.07833e-05
4.17219e-05
4.33549e-05
4.67747e-05
5.56397e-05
8.3537e-05
0.000183135
0.000551443
0.00177465
0.00499907
0.0115617
0.0223377
0.0373005
0.0550793
0.0719315
0.0796462
0.0624489
165.243
88.3378
137.533
250.373
426.037
743.795
1102.36
462.428
166.427
50.5834
17.259
19.1034
43.5297
39.4775
22.0805
9.1155
2.33131
0.18907
0.000338366
4.67746e-05
4.47384e-05
4.32878e-05
4.20849e-05
4.10867e-05
4.02721e-05
3.9616e-05
3.90808e-05
3.86711e-05
3.83527e-05
3.80891e-05
3.78996e-05
3.77888e-05
3.77245e-05
3.76936e-05
3.77221e-05
3.78009e-05
3.79047e-05
3.8038e-05
3.82152e-05
3.84416e-05
3.87134e-05
3.90415e-05
3.94495e-05
3.99546e-05
4.06082e-05
4.15309e-05
4.29376e-05
4.53958e-05
5.04345e-05
6.2614e-05
9.69982e-05
0.000204488
0.000546596
0.00152023
0.00372959
0.00754091
0.0124307
0.0164945
0.0163194
0.00875625
158.529
101.471
140.851
226.06
373.34
599.668
486.69
216.554
78.9563
24.4394
12.196
21.6793
44.7092
33.2343
16.7876
5.87527
1.11313
0.0297919
6.88816e-05
4.54127e-05
4.39763e-05
4.26063e-05
4.14921e-05
4.05787e-05
3.98364e-05
3.92387e-05
3.87495e-05
3.83722e-05
3.80765e-05
3.78327e-05
3.7655e-05
3.75454e-05
3.74755e-05
3.74339e-05
3.7447e-05
3.75083e-05
3.75944e-05
3.77063e-05
3.78536e-05
3.80405e-05
3.82631e-05
3.85359e-05
3.88818e-05
3.93054e-05
3.98304e-05
4.05097e-05
4.14181e-05
4.27083e-05
4.46733e-05
4.79514e-05
5.38813e-05
6.59053e-05
9.29344e-05
0.000157107
0.000305744
0.000596953
0.00099239
0.0012073
0.000868271
0.00025367
151.955
94.9877
133.393
216.484
343.214
498.602
266.989
109.639
37.2261
12.5028
11.1978
26.2195
41.5735
26.6286
12.122
3.47516
0.408391
0.00200367
4.78541e-05
4.46259e-05
4.33047e-05
4.2011e-05
4.09756e-05
4.01334e-05
3.94508e-05
3.89012e-05
3.84519e-05
3.81016e-05
3.78238e-05
3.75962e-05
3.74289e-05
3.73231e-05
3.72529e-05
3.7208e-05
3.72118e-05
3.72564e-05
3.73244e-05
3.74211e-05
3.7552e-05
3.77141e-05
3.7902e-05
3.81293e-05
3.84146e-05
3.87653e-05
3.92001e-05
3.97469e-05
4.04417e-05
4.13497e-05
4.2591e-05
4.43328e-05
4.68757e-05
5.06697e-05
5.62924e-05
6.46996e-05
7.68335e-05
9.19872e-05
0.000105313
0.00010783
9.55059e-05
7.59851e-05
125.913
81.419
116.416
188.851
316.472
319.51
140.647
52.4459
16.7476
7.90787
12.5171
32.3341
36.0711
20.7176
8.2427
1.81207
0.0939043
0.000138202
4.51802e-05
4.38635e-05
4.26315e-05
4.14495e-05
4.05102e-05
3.97459e-05
3.91194e-05
3.86103e-05
3.8195e-05
3.78684e-05
3.76079e-05
3.73953e-05
3.72351e-05
3.71288e-05
3.70569e-05
3.70117e-05
3.70096e-05
3.70405e-05
3.70927e-05
3.71727e-05
3.72839e-05
3.74248e-05
3.75913e-05
3.7789e-05
3.80283e-05
3.83162e-05
3.86692e-05
3.91111e-05
3.96645e-05
4.03651e-05
4.12741e-05
4.2484e-05
4.41136e-05
4.6321e-05
4.93508e-05
5.33921e-05
5.8412e-05
6.40066e-05
6.91351e-05
7.20892e-05
7.08976e-05
6.41987e-05
94.6726
70.289
103.387
171.558
282.194
158.902
65.5851
22.3826
8.00406
6.99425
15.4207
36.7359
29.9266
15.2683
5.05139
0.757947
0.00978748
5.35981e-05
4.41035e-05
4.30923e-05
4.19523e-05
4.08906e-05
4.0052e-05
3.93737e-05
3.8813e-05
3.83516e-05
3.79738e-05
3.76729e-05
3.74323e-05
3.72371e-05
3.70867e-05
3.69815e-05
3.6907e-05
3.68589e-05
3.68483e-05
3.68668e-05
3.69075e-05
3.69718e-05
3.70604e-05
3.71763e-05
3.73178e-05
3.74884e-05
3.76944e-05
3.79365e-05
3.82237e-05
3.8575e-05
3.90092e-05
3.95529e-05
4.02448e-05
4.11285e-05
4.22744e-05
4.37881e-05
4.57578e-05
4.82655e-05
5.13613e-05
5.48844e-05
5.82424e-05
6.03284e-05
5.98598e-05
5.62589e-05
68.8737
63.2348
104.951
176.772
165.955
74.6596
27.8677
9.47905
5.19924
7.94189
19.9535
35.7411
23.4413
10.6096
2.72945
0.212332
0.000443668
4.52964e-05
4.32801e-05
4.22908e-05
4.12322e-05
4.0294e-05
3.95585e-05
3.89671e-05
3.84785e-05
3.80759e-05
3.77468e-05
3.74819e-05
3.72687e-05
3.70963e-05
3.69625e-05
3.68664e-05
3.67971e-05
3.67508e-05
3.6734e-05
3.67418e-05
3.67722e-05
3.68235e-05
3.68942e-05
3.69875e-05
3.71016e-05
3.72404e-05
3.74102e-05
3.76111e-05
3.78474e-05
3.81282e-05
3.84647e-05
3.88767e-05
3.93926e-05
4.0043e-05
4.08642e-05
4.18987e-05
4.32073e-05
4.48501e-05
4.68406e-05
4.90804e-05
5.1268e-05
5.28234e-05
5.30313e-05
5.15666e-05
50.0938
63.2964
132.037
185.068
87.6334
34.0681
11.6427
4.91634
4.92845
10.1289
26.0569
30.3919
17.6558
6.80469
1.21298
0.0288102
7.05503e-05
4.37606e-05
4.25328e-05
4.1574e-05
4.06003e-05
3.97596e-05
3.90968e-05
3.85664e-05
3.81337e-05
3.77815e-05
3.74974e-05
3.72694e-05
3.70865e-05
3.694e-05
3.68267e-05
3.67443e-05
3.66859e-05
3.66491e-05
3.6635e-05
3.66404e-05
3.66651e-05
3.67069e-05
3.67657e-05
3.68436e-05
3.69383e-05
3.70519e-05
3.71876e-05
3.73469e-05
3.75348e-05
3.77567e-05
3.80177e-05
3.83275e-05
3.87039e-05
3.91658e-05
3.97376e-05
4.04524e-05
4.13339e-05
4.23985e-05
4.3657e-05
4.50789e-05
4.65396e-05
4.77701e-05
4.84382e-05
4.84037e-05
51.7473
93.8804
239.453
112.681
42.261
14.0446
5.15631
3.68075
5.92166
13.5941
30.707
24.4763
12.4266
3.77186
0.37525
0.00137168
4.71273e-05
4.31327e-05
4.19469e-05
4.09726e-05
4.00828e-05
3.93414e-05
3.87443e-05
3.8259e-05
3.78658e-05
3.75497e-05
3.72977e-05
3.7097e-05
3.69363e-05
3.68089e-05
3.67115e-05
3.66394e-05
3.65882e-05
3.65569e-05
3.65443e-05
3.65485e-05
3.65696e-05
3.6605e-05
3.6654e-05
3.67188e-05
3.67988e-05
3.68949e-05
3.70074e-05
3.71358e-05
3.72828e-05
3.74531e-05
3.76507e-05
3.78811e-05
3.81529e-05
3.84759e-05
3.88645e-05
3.93335e-05
3.98986e-05
4.05727e-05
4.13571e-05
4.22324e-05
4.31531e-05
4.40498e-05
4.49221e-05
4.59128e-05
213.159
399.041
156.415
48.7759
14.6783
5.05088
2.98398
3.99504
7.95165
18.9698
27.5655
18.4606
8.03507
1.67804
0.0601559
0.00012082
4.49617e-05
4.26921e-05
4.14902e-05
4.0512e-05
3.96758e-05
3.90007e-05
3.84594e-05
3.80196e-05
3.7666e-05
3.73852e-05
3.71638e-05
3.69894e-05
3.68512e-05
3.6742e-05
3.66586e-05
3.6597e-05
3.65533e-05
3.6526e-05
3.6513e-05
3.65136e-05
3.65281e-05
3.65549e-05
3.65933e-05
3.66439e-05
3.67061e-05
3.67813e-05
3.68699e-05
3.69714e-05
3.70862e-05
3.7215e-05
3.73596e-05
3.75239e-05
3.77133e-05
3.79327e-05
3.81882e-05
3.84892e-05
3.88433e-05
3.9254e-05
3.97228e-05
4.02451e-05
4.0816e-05
4.14591e-05
4.23762e-05
4.40251e-05
57.7785
97.5997
28.5825
9.06888
3.68599
2.36656
2.87786
5.37356
11.2293
24.8245
23.3923
13.3228
4.49373
0.534672
0.00516401
8.2077e-05
4.44027e-05
4.23245e-05
4.11086e-05
4.01384e-05
3.93509e-05
3.87213e-05
3.82177e-05
3.7814e-05
3.74943e-05
3.72445e-05
3.7051e-05
3.69016e-05
3.6786e-05
3.66971e-05
3.66302e-05
3.65814e-05
3.65476e-05
3.65273e-05
3.65187e-05
3.65206e-05
3.65324e-05
3.65532e-05
3.65831e-05
3.66223e-05
3.66705e-05
3.67276e-05
3.67929e-05
3.68666e-05
3.69493e-05
3.70414e-05
3.71425e-05
3.72531e-05
3.73752e-05
3.75119e-05
3.76674e-05
3.78453e-05
3.80478e-05
3.82777e-05
3.85353e-05
3.88194e-05
3.91402e-05
3.95661e-05
4.04307e-05
4.24935e-05
4.94214e-05
6.439e-05
8.3888e-05
0.000111696
0.000153457
0.000217951
0.000318642
0.00047639
0.000723331
0.0011076
0.00170095
0.00261584
0.00404646
0.00637272
0.0104407
0.0183639
0.0359011
0.079902
0.208896
0.888368
4.85792e-05
6.13848e-05
7.79676e-05
0.000101836
0.000138283
0.000195853
0.000288294
0.000438024
0.000681492
0.0010765
0.00171383
0.00274088
0.00441675
0.00725302
0.0124113
0.0229273
0.0476767
0.113888
0.30752
1.2117
4.7755e-05
5.84241e-05
7.21567e-05
9.20785e-05
0.000122903
0.000172454
0.000253836
0.000389391
0.00061727
0.00100124
0.00164645
0.00272965
0.00456529
0.00776943
0.0137153
0.025917
0.0542771
0.126409
0.314389
0.788446
4.69776e-05
5.56212e-05
6.66926e-05
8.28817e-05
0.000108198
0.000149408
0.00021818
0.000335124
0.000536905
0.00088761
0.00149759
0.00255822
0.00441296
0.00772145
0.0138873
0.0262719
0.0535892
0.117635
0.263189
0.55613
4.62688e-05
5.30626e-05
6.1752e-05
7.45867e-05
9.48449e-05
0.000128087
0.000184064
0.000280416
0.00044947
0.000749698
0.0012853
0.00224187
0.00395511
0.00705598
0.0128133
0.0240146
0.0471772
0.096849
0.198896
0.389444
4.56437e-05
5.08036e-05
5.7438e-05
6.73886e-05
8.32548e-05
0.000109414
0.000153573
0.000229829
0.000364454
0.000605943
0.00104266
0.00183496
0.0032749
0.00590199
0.0107462
0.0198776
0.0376241
0.0726646
0.139424
0.255134
4.51105e-05
4.88716e-05
5.3788e-05
6.13487e-05
7.35757e-05
9.38094e-05
0.000127878
0.000186415
0.00028929
0.000473365
0.000806246
0.00141136
0.00251356
0.00452212
0.00818655
0.0149011
0.0272905
0.050111
0.0907574
0.157386
4.4672e-05
4.72705e-05
5.079e-05
5.64283e-05
6.57528e-05
8.12712e-05
0.000107263
0.00015142
0.000227947
0.00036292
0.00060366
0.00103559
0.00181207
0.00320622
0.00569967
0.0101338
0.017958
0.0315606
0.0544033
0.0902594
4.43275e-05
4.59881e-05
4.83945e-05
5.25197e-05
5.95986e-05
7.15131e-05
9.13679e-05
0.000124603
0.000181023
0.000278185
0.000447149
0.000742405
0.00125846
0.00215664
0.00370661
0.0063486
0.0107816
0.0180628
0.0296235
0.0469854
4.4074e-05
4.49984e-05
4.65247e-05
4.94768e-05
5.48633e-05
6.41118e-05
7.9494e-05
0.000104862
0.000146904
0.000217168
0.000335428
0.000535136
0.000871675
0.00143354
0.00235525
0.00383161
0.00613673
0.00964707
0.0148388
0.0221793
4.39097e-05
4.42546e-05
4.50742e-05
4.71499e-05
5.13209e-05
5.86743e-05
7.09203e-05
9.08604e-05
0.000123105
0.000175264
0.000259906
0.000397694
0.000622057
0.000983977
0.00155026
0.00239448
0.00359228
0.00523609
0.00746232
0.0104109
4.40451e-05
4.37529e-05
4.41558e-05
4.58534e-05
4.94815e-05
5.58823e-05
6.63919e-05
8.30535e-05
0.000108968
0.000149047
0.000211155
0.000308118
0.000462647
0.000719008
0.00113648
0.00180089
0.00291002
0.00498079
0.00947321
0.0197837
0.000506564
8.964e-05
0.000142818
0.000198572
0.000251573
0.000303623
0.000363289
0.000444867
0.000573271
0.000873497
0.00159336
0.00322428
0.00627794
0.0118471
0.0218131
0.0383755
0.0646133
0.109955
0.173562
0.265126