/*--------------------------------*- C++ -*----------------------------------*\
| =========                 |                                                 |
| \\      /  F ield         | OpenFOAM: The Open Source CFD Toolbox           |
|  \\    /   O peration     | Version:  v1912                                 |
|   \\  /    A nd           | Website:  www.openfoam.com                      |
|    \\/     M anipulation  |                                                 |
\*---------------------------------------------------------------------------*/
FoamFile
{
    version     2.0;
    format      ascii;
    class       volScalarField;
    location    "46";
    object      k;
}
// * * * * * * * * * * * * * * * * * * * * * * * * * * * * * * * * * * * * * //

dimensions      [0 2 -2 0 0 0 0];


internalField   nonuniform List<scalar> 
20320
(
0.00413925
0.00425415
0.00433114
0.00440662
0.00448005
0.00455088
0.00461844
0.00468192
0.00474036
0.00479264
0.00483749
0.00487354
0.0048993
0.00491299
0.00491237
0.0048939
0.00485093
0.00476751
0.00459575
0.00414446
0.00415086
0.00414922
0.00419453
0.00429113
0.00445938
0.00472015
0.00509179
0.0055902
0.00623021
0.00702494
0.00798432
0.0091162
0.010427
0.0119191
0.0135839
0.015377
0.0171822
0.0187059
0.0192245
0.0174302
0.00417745
0.00421768
0.0043043
0.00444387
0.00466193
0.00499004
0.00546813
0.00614565
0.00708023
0.00833389
0.00996594
0.0120215
0.0145198
0.0174431
0.0207252
0.0242245
0.0276573
0.0304428
0.0312556
0.0274175
0.00421523
0.00432012
0.00447481
0.00468113
0.00496497
0.00535914
0.00590683
0.00666614
0.00771571
0.00915782
0.0111142
0.0137099
0.0170408
0.0211311
0.0258906
0.0310733
0.0361995
0.0403534
0.0415784
0.0358674
0.00426157
0.00445117
0.00469438
0.00498771
0.00535674
0.00583423
0.00646373
0.00730526
0.00844293
0.00999391
0.012116
0.0150041
0.0188579
0.0238079
0.0298094
0.036541
0.0433095
0.0488417
0.0505677
0.0434921
0.00431484
0.0046083
0.00496073
0.00536339
0.00584065
0.00642447
0.00715776
0.00810045
0.00933767
0.0109906
0.0132311
0.016294
0.0204649
0.0260061
0.0329943
0.0411105
0.0494614
0.0563661
0.0586162
0.0504602
0.00437304
0.00478636
0.00526614
0.00579878
0.00640669
0.00712011
0.00798038
0.00904638
0.010403
0.0121719
0.0145297
0.0177304
0.0221159
0.0280655
0.0358144
0.0451304
0.0549784
0.0632405
0.0660088
0.0569609
0.00443383
0.00497909
0.00560109
0.00628221
0.00704233
0.00790914
0.00892127
0.0101357
0.011636
0.0135433
0.016035
0.0193739
0.0239364
0.0301924
0.0385365
0.0488813
0.0601276
0.0697301
0.0730266
0.0632131
0.00449457
0.00517884
0.00595324
0.00679768
0.0077295
0.00877328
0.00996408
0.0113558
0.01303
0.0151059
0.0177598
0.0212586
0.0259999
0.0325206
0.0413583
0.0525989
0.0651466
0.0760577
0.0798729
0.0694117
0.00455231
0.00537654
0.00630733
0.00732464
0.00844405
0.00968726
0.0110852
0.012688
0.0145739
0.0168589
0.0197167
0.0234154
0.0283664
0.0351566
0.0444474
0.0565064
0.0702953
0.0825089
0.0868417
0.0757351
0.00460399
0.00556206
0.00664563
0.0078383
0.00915584
0.0106184
0.012253
0.0141056
0.0162503
0.0187984
0.0219191
0.0258796
0.0311006
0.0382079
0.0479696
0.0608343
0.0758598
0.0894131
0.09428
0.08236
0.00464664
0.00572479
0.00694894
0.00831088
0.00982982
0.0115269
0.0134273
0.0155732
0.0180343
0.020916
0.0243812
0.0286938
0.034281
0.041801
0.0521161
0.065851
0.0821835
0.0971663
0.102582
0.089593
0.0046777
0.00585467
0.00719838
0.00871389
0.0104283
0.0123681
0.0145602
0.0170457
0.0198911
0.023196
0.0271154
0.0319084
0.038007
0.0460992
0.0571353
0.0719125
0.0897433
0.106352
0.112347
0.0979056
0.0046953
0.0059433
0.00737735
0.00902078
0.0109138
0.0130945
0.0155971
0.0184672
0.0217725
0.0256092
0.0301258
0.0355764
0.042399
0.0513146
0.0633647
0.0795257
0.0992593
0.117917
0.12461
0.107933
0.00469854
0.00598504
0.00747369
0.00921015
0.0112532
0.0136593
0.016479
0.0197709
0.0236129
0.0281056
0.0333969
0.0397415
0.0475914
0.0577137
0.0712632
0.0894254
0.111834
0.133362
0.141048
0.120894
0.0046876
0.00597786
0.00748151
0.00926882
0.0114215
0.0140219
0.0171469
0.0208811
0.0253269
0.030605
0.0368781
0.0444178
0.0537115
0.0656093
0.0814424
0.102702
0.129284
0.155423
0.164923
0.139108
0.00466376
0.00592369
0.00740215
0.00919388
0.011406
0.0141527
0.0175477
0.0217171
0.0268087
0.0329883
0.0404623
0.0495532
0.0608313
0.0753101
0.0946461
0.120897
0.154559
0.189153
0.202983
0.167893
0.00462917
0.00582814
0.00724407
0.00899347
0.0112084
0.014038
0.0176414
0.022202
0.0279368
0.0350917
0.0439619
0.0549787
0.0688804
0.0869938
0.111606
0.145967
0.192279
0.244306
0.271167
0.222038
0.00458657
0.00569965
0.00702165
0.00868581
0.0108457
0.013684
0.0174094
0.0222742
0.0285881
0.0367158
0.0470988
0.0603596
0.0775303
0.100483
0.132651
0.179733
0.248527
0.338159
0.407963
0.34993
0.00453893
0.00554828
0.00675303
0.00829669
0.0103481
0.0131175
0.0168606
0.021902
0.0286592
0.037649
0.0495182
0.0651713
0.0860797
0.114936
0.156978
0.222244
0.327714
0.493059
0.696312
0.747094
0.829942
1.10912
1.2267
1.22298
1.21434
1.27143
1.59743
2.50997
4.33992
7.08683
9.54034
13.3628
32.496
60.7731
88.1953
126.985
183.315
182.746
109.264
70.3422
50.4993
38.9051
31.3034
25.9507
21.9965
18.977
16.6151
14.7021
13.1061
11.7773
10.674
9.77598
9.02698
8.3326
7.75768
7.28391
6.85475
6.48455
6.17081
5.89751
5.63795
5.39833
5.16597
4.93886
4.75185
4.61468
4.50142
4.39354
4.30465
4.24865
4.22379
4.22826
4.26356
4.29609
4.28066
4.26158
4.27666
4.33595
4.38081
4.34977
1.18285
2.7956
3.1942
3.30885
3.417
3.74827
4.86035
7.72606
13.3466
22
31.4045
37.7145
67.4788
163.413
267.965
380.312
583.816
562.844
253.135
162.644
117.703
91.0431
73.3958
60.8602
51.5215
44.3232
38.6213
33.9925
30.1604
26.9505
24.2441
21.9806
20.0472
18.3618
16.9375
15.7305
14.6948
13.8103
13.059
12.3998
11.803
11.2606
10.7404
10.2636
9.9119
9.66006
9.44554
9.25317
9.12097
9.06809
9.07764
9.13828
9.22458
9.29463
9.32468
9.34598
9.40859
9.48762
9.51802
9.48176
1.36298
3.51423
4.13941
4.37234
4.57103
5.09938
6.67288
10.6776
18.7005
31.8053
48.9603
67.9988
103.542
179.111
313.633
484.544
657.84
417.535
250.194
169.797
126.649
100.178
82.2667
69.3253
59.5412
51.8915
45.7476
40.7011
36.4833
32.9153
29.8762
27.2853
25.0566
23.1335
21.4968
20.1077
18.9279
17.9321
17.0914
16.3644
15.721
15.1424
14.6077
14.1376
13.7739
13.5021
13.2831
13.1042
12.9856
12.94
12.9598
13.0304
13.1231
13.2006
13.2453
13.274
13.3155
13.3523
13.3451
13.2849
1.54644
4.02434
4.93096
5.3355
5.61933
6.30394
8.32165
13.5307
24.4433
43.7201
72.2932
110.47
174.653
276.175
397.203
609.286
488.159
326.493
215.306
151.684
115.663
93.4125
78.3095
67.333
58.9543
52.3081
46.8743
42.3299
38.47
35.1597
32.3084
29.8503
27.7265
25.8999
24.3488
23.0425
21.9493
21.0432
20.2922
19.6581
19.11
18.6259
18.1916
17.8213
17.5373
17.3296
17.1705
17.0489
16.9766
16.9634
17.0042
17.0838
17.1745
17.2417
17.2717
17.2782
17.2812
17.2653
17.2038
17.0988
1.77798
4.5541
5.70336
6.32733
6.73828
7.56175
10.047
16.7106
31.5889
60.4465
107.065
173.555
286.409
489.317
698.597
733.583
433.954
274.038
180.32
127.338
97.726
80.0317
68.4056
60.1548
53.9033
48.8974
44.728
41.172
38.103
35.4411
33.1326
31.1369
29.4181
27.9497
26.7122
25.6843
24.8441
24.1671
23.6228
23.1766
22.7998
22.4728
22.1871
21.9509
21.7776
21.6622
21.5843
21.5309
21.5098
21.5298
21.586
21.6629
21.7355
21.7746
21.767
21.7264
21.6693
21.584
21.4516
21.285
2.01374
5.15125
6.51179
7.39126
8.01165
9.00349
12.0418
20.6153
41.1863
84.5447
158.982
267.314
443.695
840.311
1291.28
695.2
385.26
231.231
148.258
103.558
79.6372
66.0959
57.6899
51.9894
47.7697
44.4163
41.6302
39.2577
37.2157
35.4528
33.9337
32.6309
31.5193
30.5719
29.7658
29.1002
28.5756
28.1732
27.8643
27.6188
27.4143
27.2394
27.0928
26.981
26.9112
26.8811
26.8745
26.8764
26.8922
26.9302
26.9832
27.0337
27.0612
27.0417
26.9661
26.8485
26.7029
26.5191
26.2916
26.0516
2.23798
5.76887
7.3674
8.55042
9.49013
10.732
14.4405
25.6964
54.5257
118.175
232.838
406.209
669.202
1019.74
1029.71
570.336
319.482
187.877
118.518
82.7829
64.7801
55.1724
49.4487
45.6681
43.0718
41.1836
39.7589
38.6388
37.7357
36.9957
36.3807
35.8616
35.4141
35.0051
34.5766
34.2038
33.9502
33.7834
33.6654
33.5689
33.4812
33.4047
33.3497
33.324
33.3281
33.3552
33.3881
33.4104
33.4322
33.4595
33.4764
33.4636
33.4035
33.2789
33.0908
32.8611
32.5964
32.2689
31.9117
31.5962
2.47011
6.38706
8.26075
9.80827
11.2034
12.8397
17.3127
32.2474
72.8236
162.763
331.399
610.453
1029.1
1569.34
839.624
454.798
252.462
146.483
92.5904
66.6221
54.8917
48.6367
44.6537
42.1157
40.5595
39.7069
39.2554
39.0588
39.0131
39.0537
39.1352
39.2356
39.3689
39.5971
39.9797
40.3886
40.683
40.8513
40.9326
40.9501
40.9261
40.8915
40.8767
40.8916
40.9301
40.9812
41.0185
41.0131
41.0044
40.9919
40.9386
40.8203
40.6343
40.3633
40.0284
39.6786
39.3295
38.9118
38.4552
38.1274
2.70484
7.01145
9.18199
11.1574
13.1569
15.4597
20.7942
40.335
96.2814
218.23
452.692
909.266
1617.16
1398.17
688.36
356.995
192.77
111.08
72.5397
56.06
49.5488
45.1917
42.0965
40.1787
39.1306
38.6981
38.6097
38.7317
38.9811
39.3031
39.659
40.0435
40.4974
41.0655
41.6915
42.3386
42.9923
43.5475
43.9536
44.2262
44.4057
44.5404
44.667
44.7932
44.9235
45.0548
45.1576
45.2074
45.2402
45.2544
45.2126
45.0989
44.9209
44.6776
44.404
44.1736
44.0283
43.8858
43.718
43.6543
2.91493
7.63225
10.1235
12.5824
15.3436
18.8053
25.4036
50.1472
124.088
282.791
587.192
1270.69
2178.86
1103.53
532.827
269.151
142.595
83.8333
59.2267
50.742
46.5239
42.8962
40.1749
38.4108
37.4596
37.1688
37.2684
37.5765
37.9931
38.4649
38.9637
39.494
40.0877
40.7408
41.3549
41.9466
42.6132
43.2996
43.9077
44.3996
44.7889
45.1121
45.3975
45.6549
45.8981
46.1316
46.3316
46.48
46.5977
46.6837
46.7169
46.6967
46.6328
46.5333
46.4314
46.3828
46.3849
46.3391
46.3315
46.4556
3.10174
8.24565
11.0652
14.0452
17.7358
22.8177
32.2596
62.2683
155.535
354.822
734.18
1437.17
1513.97
784.377
389.299
194.775
103.709
65.231
51.9776
48.1818
44.5119
40.8689
37.9908
36.0582
34.9986
34.6797
34.862
35.3202
35.9059
36.5393
37.1847
37.8407
38.5189
39.189
39.7704
40.302
40.9099
41.6004
42.2905
42.9147
43.4555
43.9268
44.3459
44.7249
45.079
45.4137
45.7138
45.9687
46.1893
46.3764
46.5229
46.6345
46.7214
46.7931
46.8722
46.9823
47.0957
47.168
47.3099
47.5596
3.31654
8.86342
12.0143
15.5232
20.2178
27.3716
41.1023
79.7615
192.319
436.629
902.583
1450.19
1122.57
562.135
277.676
138.049
76.6138
54.3191
49.0801
46.4551
42.7709
38.821
35.4896
33.1509
31.8128
31.3402
31.5033
32.0501
32.7845
33.5847
34.3893
35.1772
35.9392
36.6404
37.2339
37.7681
38.3588
39.0425
39.7664
40.4654
41.1065
41.6864
42.213
42.6973
43.1521
43.5818
43.9784
44.3375
44.6654
44.9651
45.237
45.4878
45.7257
45.957
46.1917
46.4323
46.6566
46.8671
47.1518
47.5085
3.56187
9.50661
13.0024
17.0541
22.7704
32.1638
51.28
101.371
237.845
535.87
1140.16
1745.36
836.324
409.117
196.633
98.2713
59.8227
49.2694
47.8282
44.7216
40.6212
36.2969
32.5278
29.7613
28.0918
27.4074
27.4815
28.0473
28.8751
29.8064
30.7499
31.6614
32.5152
33.2812
33.9407
34.543
35.18
35.8924
36.651
37.4044
38.1185
38.7822
39.3977
39.9731
40.5176
41.0348
41.5222
41.9794
42.411
42.8211
43.2129
43.5918
43.9623
44.3267
44.6866
45.0384
45.3752
45.7212
46.1334
46.5826
3.8076
10.1804
14.0525
18.6923
25.4966
37.2845
62.2972
125.67
290.827
671.051
1273.81
1281.09
629.594
296.454
138.79
72.3869
50.7672
47.9226
46.4742
42.6789
37.9691
33.2006
29.0523
25.9427
23.9956
23.117
23.0812
23.6151
24.4736
25.478
26.5166
27.527
28.4727
29.3294
30.0942
30.8091
31.539
32.3167
33.1266
33.9338
34.7107
35.4453
36.1373
36.7919
37.4159
38.0125
38.5827
39.1285
39.6539
40.163
40.6591
41.1453
41.6232
42.0924
42.5516
42.9991
43.4408
43.9041
44.4198
44.9401
4.07043
10.8641
15.1547
20.4523
28.4973
42.9938
74.4207
152.042
346.168
817.515
1380.87
1022.8
466.486
211.753
98.8513
56.8636
46.8959
47.4744
44.8696
40.1648
34.784
29.5819
25.1374
21.8012
19.6798
18.6715
18.5425
19.0191
19.8584
20.8799
21.9648
23.0418
24.0691
25.0245
25.9089
26.7515
27.5928
28.454
29.3274
30.1909
31.0258
31.8228
32.5809
33.3038
33.9965
34.6627
35.3053
35.9271
36.5321
37.1235
37.7038
38.2741
38.8345
39.3836
39.9208
40.4486
40.9786
41.533
42.1235
42.6898
4.33775
11.5295
16.2898
22.3534
31.8399
49.5098
88.2543
181.136
404.475
950.171
1582.33
743.87
337.394
149.739
72.7291
48.3934
46.3746
46.6401
42.7306
37.0847
31.0953
25.5493
20.9249
17.4935
15.3165
14.2604
14.0745
14.4895
15.278
16.2729
17.3611
18.4704
19.5568
20.5973
21.5887
22.5456
23.4895
24.4312
25.3665
26.2828
27.1686
28.0181
28.8309
29.6099
30.3593
31.0833
31.7853
32.4688
33.1371
33.7926
34.4367
35.0698
35.6909
36.2996
36.8967
37.4877
38.0846
38.7024
39.3398
39.9299
4.41929
12.1471
17.4528
24.3931
35.5446
57.0129
104.827
216.638
472.204
1033.88
1164.45
545.527
240.228
106.526
56.5922
44.4247
46.7595
45.1835
39.9225
33.4478
26.9972
21.2518
16.591
13.2057
11.0946
10.0755
9.8756
10.2358
10.9552
11.8906
12.9432
14.0462
15.156
16.2471
17.3095
18.3454
19.3622
20.3633
21.3455
22.3017
23.2255
24.1139
24.9672
25.7883
26.5808
27.3488
28.0962
28.8261
29.5414
30.2436
30.9336
31.6111
32.2755
32.9271
33.568
34.2046
34.8467
35.503
36.165
36.763
4.26266
12.672
18.6247
26.5529
39.5767
65.533
125.038
264.788
573.302
1035.68
927.786
396.647
170.093
77.8773
47.133
43.3577
46.6319
43.054
36.5505
29.3874
22.646
16.8672
12.3288
9.13882
7.21886
6.32115
6.14854
6.46099
7.0943
7.9372
8.91154
9.96077
11.0441
12.1343
13.2155
14.2808
15.3278
16.3549
17.3582
18.3333
19.2765
20.1862
21.0634
21.9104
22.7309
23.5284
24.3065
25.068
25.815
26.5487
27.2692
27.9765
28.67
29.3505
30.0209
30.6867
31.3555
32.0318
32.7035
33.3006
4.02211
13.0769
19.765
28.741
43.7562
74.6337
147.878
327.753
734.674
1158.89
679.492
284.284
121.281
59.5251
41.9356
44.2548
45.5413
40.2233
32.6996
25.0615
18.2213
12.5858
8.34007
5.51031
3.91926
3.22992
3.11734
3.37566
3.89189
4.59595
5.43647
6.37097
7.36474
8.39034
9.42832
10.4654
11.4932
12.5055
13.4973
14.4643
15.4034
16.3137
17.1957
18.0514
18.8836
19.6954
20.4895
21.2683
22.0332
22.7848
23.5231
24.2476
24.9583
25.6562
26.3437
27.0257
27.7076
28.3922
29.0663
29.6585
4.0621
13.4053
20.8334
30.8252
47.7101
83.1168
168.863
390.127
890.904
1242.48
483.321
199.925
88.5309
47.9448
39.4861
45.0278
43.7038
36.8119
28.5184
20.6404
13.9026
8.5962
4.83739
2.57461
1.48297
1.08329
1.04302
1.21763
1.56107
2.05533
2.68556
3.42705
4.25445
5.14129
6.06706
7.01358
7.968
8.92025
9.86277
10.7899
11.698
12.585
13.4506
14.2958
15.1224
15.9323
16.7277
17.5096
18.2791
19.036
19.7802
20.511
21.2286
21.9337
22.6287
23.3174
24.0046
24.6917
25.3652
25.9513
4.28181
13.847
21.881
32.8298
51.1709
89.4892
182.487
421.304
769.7
723.692
325.195
142.304
67.0052
40.6402
38.9638
45.0189
41.0517
32.9342
24.1691
16.2918
9.85863
5.08175
2.09483
0.676557
0.223083
0.125802
0.128593
0.18683
0.312988
0.53221
0.864753
1.31667
1.88133
2.53972
3.27448
4.05928
4.87991
5.72002
6.5696
7.41976
8.26473
9.1007
9.92553
10.7386
11.54
12.3304
13.1106
13.8807
14.6407
15.3902
16.1284
16.8549
17.5696
18.2735
18.9686
19.6582
20.3462
21.0337
21.7054
22.2839
4.64099
14.6224
23.1116
34.9771
54.3171
93.3302
186.393
418.129
717.358
500.393
228.353
104.997
52.485
36.113
40.0415
43.7714
37.7611
28.7447
19.8127
12.1702
6.24195
2.32978
0.45647
0.0351041
0.00765242
0.00606874
0.00648142
0.00880986
0.016707
0.0409244
0.10402
0.237303
0.467848
0.807419
1.25223
1.78727
2.39551
3.05787
3.75985
4.48612
5.22796
5.97847
6.73239
7.48684
8.23969
8.98958
9.73556
10.4766
11.2114
11.9389
12.6584
13.3692
14.0715
14.7663
15.4555
16.1419
16.8285
17.5144
18.1816
18.7491
5.30611
16.0102
24.9495
37.6835
57.9227
95.9069
183.613
379.528
666.62
354.274
168.285
80.049
42.2622
33.5964
41.4556
41.7764
33.9519
24.4153
15.5963
8.40589
3.29186
0.613219
0.0169868
0.00489402
0.00463679
0.00454046
0.00447883
0.00445488
0.00450562
0.00478237
0.00602529
0.0115065
0.0320086
0.0905743
0.216833
0.432503
0.743762
1.14367
1.61873
2.15424
2.73595
3.35427
3.99672
4.65815
5.3321
6.0152
6.7035
7.3943
8.08506
8.77406
9.46002
10.1425
10.8218
11.4992
12.1763
12.8551
13.5364
14.2165
14.873
15.4221
6.46164
18.4661
28.0086
41.6331
63.2509
100.123
178.533
369.515
585.594
271.657
128.841
62.0912
34.9427
32.7142
42.1756
38.8631
29.8409
20.1254
11.6531
5.13947
1.24814
0.0389774
0.0048614
0.00462716
0.00452094
0.00443915
0.00437901
0.00433924
0.00431786
0.0043109
0.00432129
0.00437866
0.00458794
0.00550727
0.00982687
0.0268038
0.0763992
0.184174
0.369095
0.63713
0.983309
1.39782
1.86883
2.3861
2.93869
3.52012
4.12013
4.73472
5.3583
5.98867
6.62353
7.26265
7.90625
8.55542
9.21135
9.87453
10.5431
11.2084
11.8426
12.362
7.52287
22.1226
33.0505
47.9401
71.7462
110.278
179.097
327.592
407.118
206.256
100.068
48.3411
29.8817
33.2496
41.3056
35.406
25.5996
16.0087
8.07867
2.64274
0.218341
0.00519783
0.00465821
0.00454288
0.0044487
0.00437387
0.00431786
0.00427795
0.00425202
0.00423753
0.00423483
0.00424331
0.00425931
0.00428534
0.0043425
0.00450358
0.00514142
0.00811193
0.0202697
0.0576959
0.143383
0.297016
0.527334
0.832406
1.20359
1.62963
2.09867
2.60099
3.12756
3.67462
4.23639
4.8131
5.40378
6.00922
6.6295
7.26299
7.90451
8.53976
9.13444
9.60733
9.38481
27.045
40.5758
58.0962
85.2561
130.649
202.814
331.901
326.392
162.723
77.9523
37.5612
26.7477
35.1011
39.2498
31.5512
21.3965
12.1767
5.05961
0.97862
0.0123679
0.00471099
0.00457584
0.00447296
0.00438727
0.00431823
0.00426503
0.00422583
0.00419929
0.00418282
0.00417575
0.00417798
0.00418693
0.0042023
0.00422428
0.00424929
0.00427991
0.00433255
0.00445567
0.00488159
0.00682321
0.0154205
0.044782
0.118078
0.257025
0.470777
0.755105
1.09878
1.48966
1.91844
2.37845
2.86681
3.3808
3.92016
4.48294
5.06436
5.65651
6.23884
6.77022
7.17118
11.7965
33.6756
51.0028
73.2202
106.559
164.353
266.89
391.493
270.141
131.043
60.0115
29.2929
25.2951
36.7726
36.6878
27.4884
17.344
8.69088
2.75047
0.18266
0.00497346
0.00461847
0.00450609
0.00441145
0.00433181
0.00426783
0.0042178
0.00418055
0.00415489
0.00413729
0.00412697
0.00412498
0.00413061
0.00414215
0.00415716
0.00417563
0.00419928
0.00422837
0.00425941
0.00429712
0.00435865
0.00449334
0.00493649
0.00699527
0.0166078
0.050425
0.133316
0.282522
0.499279
0.775466
1.10193
1.47194
1.88072
2.32484
2.80005
3.29965
3.81142
4.30977
4.74575
5.02675
13.7569
41.2012
64.3668
94.4536
137.585
212.192
381.375
559.188
231.194
102.695
44.4846
23.3168
25.3198
37.5063
33.3226
23.3705
13.5335
5.72729
1.16112
0.0147831
0.00467717
0.00454682
0.00444358
0.00435597
0.00428192
0.00422261
0.00417558
0.00414038
0.00411546
0.00409712
0.00408557
0.00408213
0.0040847
0.00409047
0.00410092
0.00411772
0.00413925
0.00416156
0.00418547
0.00421598
0.0042556
0.00430309
0.00436992
0.00449825
0.00484045
0.00614132
0.0119124
0.0338141
0.0929569
0.207245
0.381397
0.611458
0.891485
1.21549
1.57653
1.96506
2.36487
2.74542
3.04591
3.13049
16.2357
48.164
79.2066
121.168
178.372
274.423
412.296
378.216
172.867
74.8477
31.4897
19.548
26.6307
36.5226
29.5392
19.3074
10.0167
3.39194
0.301734
0.00510596
0.00459287
0.00448155
0.00438553
0.004304
0.00423614
0.00418142
0.00413757
0.00410454
0.00408033
0.00406175
0.00404992
0.00404562
0.00404564
0.00404819
0.0040562
0.00407001
0.00408631
0.00410442
0.00412716
0.0041552
0.00418606
0.00422179
0.00427005
0.00433742
0.00443801
0.00463161
0.00513574
0.00682593
0.0131302
0.0340635
0.0866969
0.185424
0.334407
0.53016
0.764992
1.02716
1.29753
1.54174
1.69129
1.59241
21.9062
53.8785
87.0564
131.874
185.474
265.112
391.649
253.594
117.533
50.1946
21.7354
17.8014
29.0416
34.1073
25.6606
15.4703
6.94347
1.68005
0.037068
0.00465908
0.00452355
0.00441988
0.00433052
0.00425514
0.00419314
0.00414314
0.0041028
0.00407232
0.00404937
0.00403113
0.00401911
0.00401382
0.0040124
0.00401361
0.00401967
0.00403006
0.00404258
0.00405791
0.0040777
0.00410143
0.00412799
0.0041596
0.00419922
0.00424859
0.00431387
0.00440938
0.00456458
0.00486927
0.00563851
0.00797573
0.0155018
0.0370826
0.0856141
0.169811
0.288629
0.431918
0.580767
0.70256
0.738428
0.57876
22.7483
59.8616
86.2547
123.966
169.252
232.29
278.687
152.664
74.1047
31.4136
15.5225
17.7668
31.6216
31.1092
21.622
11.8783
4.43849
0.601516
0.00614165
0.00456343
0.00446075
0.00436151
0.00427837
0.00420917
0.00415264
0.0041072
0.00407037
0.00404251
0.00402125
0.00400407
0.00399232
0.00398636
0.00398391
0.00398404
0.00398859
0.00399694
0.00400728
0.00401994
0.00403595
0.00405574
0.00407904
0.00410667
0.00414031
0.00418107
0.00423201
0.00429951
0.00439185
0.00452758
0.00474861
0.00516624
0.00612093
0.00864348
0.0155976
0.0327332
0.0662298
0.11614
0.171786
0.211067
0.201291
0.112358
22.1962
65.1432
88.4034
118.816
159.516
205.818
170.419
94.8
44.7817
18.8433
12.4468
19.1059
32.1843
27.6407
17.7786
8.60459
2.48745
0.12066
0.00470446
0.0044962
0.00440188
0.00430759
0.00423026
0.00416674
0.00411513
0.0040737
0.00404003
0.00401439
0.00399467
0.00397882
0.00396781
0.00396183
0.00395885
0.00395806
0.00396136
0.00396828
0.00397716
0.00398806
0.0040017
0.00401838
0.00403786
0.0040612
0.00409007
0.00412482
0.00416709
0.00422036
0.00428896
0.00438062
0.00450755
0.0046922
0.00497045
0.00542748
0.00625775
0.00788094
0.0110841
0.0165622
0.0231154
0.0260061
0.0199504
0.00924559
21.6674
61.7549
84.9584
114.889
148.931
176.616
112.282
58.0161
25.3465
11.6506
11.719
21.5252
30.7846
23.7166
14.0601
5.8022
1.10366
0.0136624
0.00452794
0.00443925
0.00434894
0.0042595
0.00418741
0.0041287
0.00408117
0.00404304
0.00401211
0.00398833
0.00396982
0.00395503
0.00394468
0.00393886
0.00393575
0.0039346
0.00393708
0.00394265
0.00395005
0.00395968
0.00397193
0.0039866
0.00400332
0.00402309
0.00404728
0.00407644
0.00411193
0.00415574
0.00421033
0.00427992
0.00437184
0.00449494
0.00466371
0.0048961
0.00520767
0.00562267
0.00615266
0.00674132
0.00721833
0.00732097
0.00689005
0.00600196
19.2042
54.5873
76.4485
102.5
133.972
125.79
69.0067
32.3262
13.4567
8.54837
12.5471
24.6787
28.0287
19.8748
10.6035
3.51223
0.316984
0.0050051
0.00445663
0.00438078
0.00429578
0.00421369
0.00414808
0.00409469
0.00405101
0.00401568
0.00398711
0.00396494
0.0039476
0.00393381
0.00392389
0.00391795
0.0039146
0.00391332
0.00391525
0.00391969
0.0039258
0.00393406
0.0039447
0.00395765
0.00397259
0.00398997
0.00401055
0.00403485
0.00406408
0.00409998
0.00414416
0.00419913
0.00426906
0.00436004
0.00447933
0.00463584
0.00484253
0.00510632
0.00541791
0.0057448
0.00601857
0.00613563
0.00597977
0.00546819
15.9572
47.77
67.6908
89.955
113.677
73.588
37.2313
15.8739
7.71318
7.98287
14.3941
26.9577
24.7122
15.9897
7.38313
1.75692
0.0444136
0.00451578
0.00438986
0.00432115
0.00424203
0.00416794
0.0041092
0.00406173
0.00402261
0.00399059
0.00396462
0.00394424
0.00392826
0.00391564
0.00390635
0.00390041
0.00389679
0.00389518
0.00389639
0.00389981
0.00390495
0.00391192
0.00392077
0.00393172
0.00394466
0.00395986
0.00397778
0.00399848
0.00402263
0.00405162
0.00408682
0.00413012
0.00418428
0.00425228
0.00433884
0.00445077
0.00459301
0.00476896
0.00497802
0.00520309
0.00539702
0.00548023
0.00536677
0.00502167
12.9704
41.9996
61.7705
80.2055
71.4032
38.6131
17.4794
7.75337
5.91496
8.78669
17.1189
26.6276
20.8879
12.282
4.63341
0.612535
0.00635846
0.00441592
0.00432823
0.00425924
0.0041853
0.00411949
0.00406778
0.0040263
0.00399218
0.00396427
0.0039417
0.00392382
0.00390975
0.00389871
0.00389054
0.00388517
0.00388184
0.00388027
0.00388092
0.00388345
0.00388773
0.00389361
0.00390102
0.00391017
0.00392094
0.00393364
0.00394871
0.00396617
0.00398636
0.00400992
0.0040377
0.00407111
0.0041122
0.00416311
0.00422634
0.0043047
0.00440203
0.00452151
0.00466208
0.00481303
0.00494692
0.00501427
0.00495592
0.00474486
10.5381
37.674
59.6266
67.3469
38.347
18.09
7.91992
4.98325
6.00218
10.4178
20.4989
23.9652
17.0721
8.84235
2.45994
0.108276
0.00458831
0.00435088
0.00427032
0.00420293
0.0041345
0.00407525
0.00402851
0.00399122
0.00396097
0.00393657
0.00391714
0.00390184
0.00388988
0.00388063
0.00387386
0.00386941
0.00386678
0.0038658
0.00386655
0.00386879
0.00387253
0.00387761
0.003884
0.00389189
0.00390109
0.00391177
0.00392417
0.0039384
0.00395481
0.00397384
0.00399582
0.00402149
0.00405212
0.00408906
0.00413403
0.0041893
0.00425637
0.00433603
0.00442812
0.00452831
0.00462278
0.00468246
0.00466783
0.00455426
10.7857
39.5076
66.8091
38.4674
18.051
7.85694
4.48954
4.60013
6.97672
12.7531
23.0039
20.6539
13.2172
5.67268
0.94877
0.0101828
0.00443025
0.00430582
0.0042232
0.00415443
0.00409155
0.00403907
0.00399684
0.00396265
0.00393513
0.00391324
0.00389605
0.00388265
0.00387223
0.00386429
0.0038586
0.00385483
0.00385264
0.00385197
0.00385273
0.00385479
0.00385816
0.00386265
0.0038682
0.00387499
0.00388297
0.00389221
0.00390274
0.00391452
0.00392775
0.00394277
0.00395988
0.00397949
0.0040022
0.00402873
0.0040601
0.00409735
0.00414152
0.0041934
0.00425269
0.00431694
0.00437964
0.00442692
0.00443941
0.00440155
27.8653
75.4822
38.5552
16.2318
6.94665
4.03711
3.8131
5.20648
8.58107
16.007
21.5616
16.867
9.52175
3.03163
0.198224
0.00473098
0.00438297
0.00426928
0.00418485
0.00411556
0.00405622
0.00400826
0.00396987
0.00393883
0.00391407
0.00389463
0.00387957
0.00386801
0.00385914
0.00385246
0.00384773
0.00384464
0.00384293
0.00384247
0.00384313
0.00384483
0.00384762
0.00385137
0.00385604
0.00386167
0.00386822
0.00387579
0.00388441
0.00389405
0.00390474
0.00391653
0.00392956
0.00394409
0.00396052
0.00397922
0.00400059
0.00402533
0.00405393
0.00408662
0.00412333
0.00416327
0.00420419
0.00424097
0.00426858
0.00428455
11.7304
19.8647
8.83019
4.75511
3.50835
3.38837
4.19359
6.4216
10.8595
19.2345
19.1439
13.1239
6.0635
1.19744
0.0234162
0.00451089
0.00434482
0.00423719
0.00415159
0.00408265
0.00402656
0.00398169
0.00394589
0.00391734
0.00389492
0.00387765
0.00386453
0.0038547
0.00384741
0.00384212
0.00383852
0.00383629
0.00383523
0.0038352
0.00383609
0.0038378
0.00384029
0.00384351
0.00384745
0.00385213
0.00385753
0.00386365
0.00387043
0.00387789
0.00388607
0.00389499
0.00390464
0.00391504
0.00392632
0.00393873
0.00395254
0.00396802
0.00398531
0.00400458
0.0040258
0.00404874
0.00407315
0.00409937
0.0041337
0.00418848
0.00448908
0.00538436
0.0064576
0.00785568
0.00975472
0.0123833
0.0160338
0.0210957
0.0280938
0.0377128
0.0508443
0.0687464
0.0934417
0.128637
0.181833
0.26895
0.422933
0.704369
1.20225
2.13179
0.00443809
0.00521556
0.00615008
0.00738626
0.0090993
0.0115244
0.0149758
0.0198896
0.0268803
0.036789
0.0507578
0.070422
0.0983816
0.139332
0.202832
0.309946
0.507095
0.88263
1.54742
2.81634
0.00438759
0.00504562
0.00583912
0.00690496
0.00840952
0.0105821
0.0137402
0.0183403
0.0250498
0.0348238
0.0490099
0.0695699
0.099583
0.144431
0.214697
0.333059
0.547438
0.940006
1.59364
2.38721
0.00433942
0.00488119
0.00553758
0.00643375
0.00772128
0.00961278
0.0124103
0.0165596
0.0227321
0.0319225
0.0455824
0.0658619
0.0960947
0.141859
0.21345
0.331419
0.536064
0.890874
1.44191
2.10131
0.00429505
0.00472789
0.00525647
0.00599182
0.00706704
0.00867046
0.011074
0.0146854
0.0201304
0.0283578
0.0407872
0.0595553
0.0879521
0.131262
0.198547
0.306345
0.484388
0.776201
1.21258
1.76826
0.00425554
0.00458985
0.00500374
0.00559331
0.00647194
0.00779997
0.00981048
0.0128551
0.0174776
0.0245096
0.03521
0.0514936
0.0763018
0.114222
0.172625
0.263757
0.407652
0.632063
0.95996
1.38354
0.00422156
0.00446968
0.0047841
0.00524657
0.00595167
0.0070318
0.00867875
0.0111812
0.0149841
0.0207642
0.02954
0.0428565
0.063073
0.0937981
0.140558
0.211838
0.320329
0.482769
0.714338
1.01534
0.00419342
0.00436855
0.00459935
0.00495465
0.0055128
0.00638106
0.00771255
0.00973547
0.0127975
0.0174182
0.0243627
0.0347641
0.0503148
0.0735405
0.10817
0.159604
0.235366
0.344895
0.497152
0.695047
0.00417119
0.00428648
0.0044487
0.00471601
0.0051541
0.00584929
0.00692164
0.00854715
0.0109892
0.0146321
0.0200243
0.0279457
0.0395049
0.0562707
0.0804317
0.114971
0.163802
0.231647
0.323108
0.440496
0.00415475
0.00422246
0.00432909
0.00452566
0.00486888
0.00542829
0.00629792
0.00761243
0.00956755
0.0124416
0.0166224
0.0226413
0.03121
0.0432454
0.0598661
0.0823803
0.112323
0.151491
0.201712
0.263966
0.00414405
0.00417392
0.004235
0.00437711
0.0046495
0.00510744
0.00582576
0.00690872
0.00850037
0.0107991
0.0140776
0.0187081
0.0251875
0.0341188
0.0460527
0.0613135
0.080031
0.102431
0.128942
0.158822
0.00414416
0.00413829
0.00416477
0.00426889
0.00448701
0.00486121
0.00544909
0.00632414
0.00757831
0.00933385
0.0117531
0.0150562
0.0195826
0.0257907
0.0337746
0.0429138
0.0524781
0.0632188
0.0791902
0.109119
0.00930536
0.00465324
0.00512727
0.00559372
0.00603358
0.00647564
0.00698631
0.00765688
0.00861899
0.0104078
0.0139074
0.020689
0.0326156
0.0533859
0.0876065
0.139623
0.214065
0.32513
0.467843
0.64994
0.0633444
0.0408306
0.0498823
0.0579504
0.0683504
0.0831393
0.103933
0.132432
0.171195
0.22371
0.294197
0.380028
0.398462
0.460029
0.591836
0.778347
1.06064
1.45449
1.51727
2.25047
0.0160643
0.0263754
0.0436941
0.0716196
0.109505
0.158117
0.212347
0.274441
0.346277
0.424841
0.493266
0.547002
0.796279
0.822523
0.761998
0.706063
0.675116
0.641848
0.640824
0.900173
0.00981026
0.00854589
0.00516902
0.00552715
0.00644761
0.00788206
0.0097967
0.0121657
0.0149286
0.0180514
0.0217871
0.029819
0.0748861
0.137913
0.15692
0.143135
0.109998
0.0713592
0.0446836
0.0469519
0.00638939
0.00864735
0.00451378
0.00414221
0.00413856
0.00424405
0.00439998
0.00456691
0.00471225
0.00482086
0.00492916
0.00518837
0.00614043
0.00825864
0.0102067
0.0105106
0.00936399
0.00783474
0.00664223
0.00628275
0.00616259
0.00920234
0.0043774
0.00391
0.00382713
0.0038408
0.00389643
0.00396154
0.00401655
0.0040549
0.00408994
0.00416499
0.00432492
0.00457986
0.0048851
0.00518457
0.0054
0.00547733
0.00545545
0.00549039
0.00645785
0.00954099
0.00443435
0.00386976
0.00376442
0.00375931
0.00379487
0.00384329
0.00389154
0.00393635
0.00398378
0.00405015
0.00415953
0.00432578
0.00453184
0.00474579
0.00492492
0.00503961
0.00510069
0.00514726
0.00699297
0.00930763
0.00449793
0.00390371
0.00379202
0.00378307
0.00381109
0.00385187
0.00389648
0.00394325
0.00399559
0.00406142
0.00415047
0.00426821
0.00440786
0.00455278
0.00468251
0.00478347
0.00485583
0.00490829
0.00763494
0.0085788
0.00449112
0.00395784
0.00385453
0.0038449
0.00386575
0.00389769
0.00393475
0.00397593
0.00402302
0.00407978
0.00415024
0.00423602
0.00433351
0.0044342
0.00452781
0.00460676