/*--------------------------------*- C++ -*----------------------------------*\
| =========                 |                                                 |
| \\      /  F ield         | OpenFOAM: The Open Source CFD Toolbox           |
|  \\    /   O peration     | Version:  v1912                                 |
|   \\  /    A nd           | Website:  www.openfoam.com                      |
|    \\/     M anipulation  |                                                 |
\*---------------------------------------------------------------------------*/
FoamFile
{
    version     2.0;
    format      ascii;
    class       volScalarField;
    location    "46";
    object      nut;
}
// * * * * * * * * * * * * * * * * * * * * * * * * * * * * * * * * * * * * * //

dimensions      [0 2 -1 0 0 0 0];


internalField   nonuniform List<scalar> 
20320
(
0.0347187
0.00759853
0.00766698
0.00773351
0.00779767
0.00785907
0.00791719
0.00797141
0.00802102
0.00806512
0.00810277
0.00813291
0.00815438
0.00816576
0.00816524
0.00814987
0.00811402
0.00804395
0.00789772
0.00749992
0.035231
0.0352732
0.0354463
0.0356795
0.0359554
0.0362432
0.0365048
0.0367133
0.0368654
0.0369752
0.0370574
0.0371208
0.0371678
0.0371874
0.0371503
0.0369774
0.0365095
0.0354013
0.0327812
0.024058
0.0353542
0.0356368
0.0361382
0.0368844
0.0379759
0.0395127
0.0415824
0.0442341
0.0474429
0.0510809
0.0549131
0.0586209
0.0618507
0.0642666
0.0655894
0.0655998
0.0640863
0.0606825
0.0541121
0.0356477
0.0355267
0.0361118
0.0369231
0.0379626
0.0393319
0.0411456
0.0435336
0.0466372
0.0505962
0.0555069
0.0613483
0.0678919
0.0746384
0.0808325
0.0855741
0.0879845
0.087329
0.0829183
0.0729168
0.0445841
0.0357347
0.0367061
0.0379048
0.0393061
0.041004
0.0431073
0.0457443
0.0490692
0.0532652
0.0585326
0.0650464
0.0728528
0.0817004
0.0908609
0.099073
0.104717
0.106167
0.101965
0.0893281
0.0517526
0.0359689
0.0373989
0.0390538
0.0408846
0.0429749
0.0454245
0.0483544
0.0519157
0.0562985
0.0617345
0.0684852
0.0767834
0.0866712
0.0977078
0.10866
0.117445
0.121514
0.11831
0.103669
0.0575523
0.0362187
0.038159
0.0403189
0.0426294
0.0451629
0.0480089
0.0512784
0.0551159
0.0597103
0.065301
0.0721834
0.0806886
0.0910712
0.103211
0.116126
0.127589
0.134307
0.132508
0.116308
0.0623633
0.0364728
0.0389529
0.0416463
0.0444705
0.047487
0.0507734
0.0544293
0.0585899
0.0634392
0.0692165
0.0762295
0.0848586
0.0954947
0.108283
0.122564
0.13619
0.145356
0.14511
0.127654
0.0665134
0.0367197
0.0397454
0.042979
0.0463332
0.0498596
0.0536247
0.0577145
0.0622524
0.0674139
0.0734331
0.0806197
0.0893785
0.100185
0.113387
0.128636
0.143985
0.155321
0.156612
0.138073
0.070283
0.036948
0.0405004
0.0442586
0.0481399
0.0521899
0.056465
0.0610367
0.0660141
0.0715602
0.0778986
0.0853332
0.0942786
0.105264
0.118784
0.134768
0.151524
0.164774
0.167528
0.147987
0.0738783
0.0371469
0.0411832
0.0454278
0.049814
0.0543863
0.0591943
0.0642953
0.0697818
0.0758006
0.0825591
0.0903474
0.0995791
0.110815
0.124661
0.141279
0.159248
0.174228
0.178367
0.157849
0.0774864
0.0373072
0.0417621
0.0464337
0.0512826
0.0563597
0.0617125
0.0673866
0.0734574
0.0800523
0.0873565
0.0956385
0.105301
0.116919
0.131181
0.148448
0.167563
0.184181
0.189659
0.168142
0.0813747
0.0374217
0.0422108
0.0472309
0.0524817
0.0580281
0.0639233
0.0702062
0.0769373
0.0842237
0.0922241
0.101178
0.111465
0.123663
0.138521
0.15657
0.176903
0.195205
0.202059
0.179489
0.0858891
0.0374857
0.0425096
0.0477846
0.0533588
0.0593201
0.0657367
0.0726495
0.0801101
0.0882086
0.0970765
0.106918
0.118083
0.131138
0.146877
0.165983
0.187794
0.208033
0.216479
0.192816
0.0914497
0.0374974
0.0426472
0.0480725
0.0538767
0.0601789
0.0670733
0.0746142
0.0828559
0.0918806
0.101798
0.112778
0.125134
0.139416
0.156455
0.17708
0.200881
0.223625
0.234181
0.209456
0.098794
0.0374577
0.042621
0.0480865
0.0540161
0.0605671
0.0678694
0.0760056
0.0850487
0.0950898
0.106232
0.118621
0.132537
0.148517
0.167438
0.190294
0.216978
0.243343
0.257156
0.231688
0.109228
0.0373704
0.0424373
0.047833
0.0537776
0.0604695
0.0680829
0.0767432
0.0865623
0.097664
0.110171
0.124228
0.140104
0.158344
0.179901
0.206008
0.237
0.26899
0.288451
0.263472
0.125385
0.0372418
0.0421108
0.047333
0.0531817
0.0598963
0.0676994
0.0767706
0.0872811
0.0994166
0.113356
0.129283
0.147497
0.168592
0.193672
0.224355
0.261728
0.302688
0.332602
0.312089
0.153316
0.0370805
0.0416638
0.0466203
0.0522683
0.0588841
0.0667371
0.0760668
0.087119
0.100169
0.115495
0.133373
0.154189
0.17866
0.208145
0.244865
0.291197
0.345922
0.394616
0.388522
0.206568
0.0368958
0.0411239
0.0457388
0.0510935
0.057494
0.0652494
0.0746562
0.0860398
0.0997848
0.116304
0.136023
0.159483
0.187601
0.222097
0.266022
0.323655
0.397192
0.475001
0.499741
0.30178
0.0458927
0.0307363
0.0323124
0.0322444
0.0321205
0.0328595
0.0368299
0.0461855
0.0607438
0.0775925
0.0898798
0.107273
0.167393
0.228168
0.274574
0.329554
0.395691
0.394331
0.305029
0.244868
0.20748
0.182096
0.163326
0.148696
0.136893
0.12714
0.11897
0.111938
0.105705
0.100209
0.0953887
0.0912435
0.0877114
0.0842759
0.0812732
0.0787611
0.0763998
0.0742933
0.0724554
0.0708401
0.0692735
0.0677926
0.0663405
0.0648706
0.0635946
0.0626465
0.0618815
0.0611396
0.0605026
0.0600856
0.0598901
0.0599042
0.0601386
0.0604222
0.0603648
0.0602129
0.0602786
0.0606716
0.0610679
0.0609129
0.0550047
0.50644
0.605342
0.601808
0.573286
0.556177
0.610312
0.751064
0.96676
1.21134
1.3584
1.22405
1.34673
2.25478
3.10151
3.56723
4.17277
3.88009
2.83377
2.36075
2.03581
1.80448
1.62918
1.48983
1.37559
1.27992
1.19818
1.12642
1.06205
1.00401
0.951643
0.907364
0.867873
0.83005
0.798706
0.773022
0.750739
0.731985
0.71753
0.705377
0.693755
0.683487
0.670935
0.657604
0.65649
0.665479
0.675111
0.682135
0.693241
0.712883
0.73821
0.768478
0.800986
0.829713
0.85001
0.864709
0.887065
0.913939
0.932974
0.940785
0.0593041
0.715483
0.974229
1.02396
0.992764
0.949546
0.97859
1.1431
1.4369
1.79267
2.10993
2.28084
2.53938
3.19969
4.19691
5.09354
5.46157
4.31126
3.52424
3.04907
2.72205
2.48079
2.29216
2.13807
2.00847
1.89698
1.79891
1.71052
1.6294
1.55475
1.48677
1.42673
1.37357
1.3263
1.28697
1.25602
1.23237
1.21577
1.20577
1.20023
1.19733
1.19647
1.19617
1.19917
1.2125
1.23608
1.26448
1.29526
1.33161
1.3765
1.42932
1.48829
1.54901
1.6051
1.65303
1.6954
1.739
1.78137
1.81479
1.83672
0.0634831
0.815391
1.17751
1.28152
1.27088
1.21689
1.21676
1.37742
1.7019
2.12493
2.57496
2.97216
3.41124
4.06043
4.84374
5.7013
5.30296
4.39254
3.64117
3.15388
2.85144
2.64973
2.50049
2.38109
2.28032
2.19168
2.11095
2.03548
1.96406
1.89694
1.83536
1.78092
1.73419
1.69551
1.66631
1.6474
1.63835
1.63855
1.64669
1.66032
1.67722
1.69612
1.71638
1.74047
1.77289
1.81401
1.8604
1.91004
1.9646
2.02609
2.0942
2.1669
2.24006
2.30819
2.36863
2.42329
2.47576
2.52392
2.56305
2.59239
0.0683852
0.900138
1.31332
1.45096
1.46422
1.41109
1.38902
1.54281
1.89528
2.40745
3.01869
3.64149
4.30554
5.09329
5.77923
5.9436
4.88983
4.06704
3.39826
2.95398
2.70225
2.56298
2.47791
2.4184
2.37038
2.32667
2.28408
2.24165
2.19983
2.16016
2.12478
2.0959
2.07484
2.06231
2.05938
2.06679
2.08425
2.11053
2.14351
2.18038
2.21876
2.25738
2.29619
2.33726
2.38372
2.43633
2.49302
2.55211
2.61465
2.68219
2.75443
2.82949
2.90409
2.97404
3.03707
3.09449
3.14833
3.19688
3.23696
3.26904
0.0731121
0.991926
1.42235
1.57486
1.60805
1.56524
1.52793
1.6804
2.08542
2.73609
3.54842
4.3935
5.30723
6.43821
7.15897
5.75922
4.54497
3.6654
3.03075
2.64687
2.47016
2.41127
2.40238
2.41077
2.42243
2.43215
2.43878
2.44271
2.44515
2.44803
2.45344
2.46344
2.47941
2.50167
2.53041
2.5664
2.60961
2.65824
2.7099
2.76222
2.81356
2.86343
2.91245
2.96233
3.01524
3.07217
3.13215
3.19386
3.25807
3.32597
3.39711
3.46976
3.54153
3.60929
3.67117
3.72786
3.78037
3.82708
3.86628
3.89978
0.0774405
1.07788
1.51831
1.67453
1.72195
1.69995
1.65489
1.8181
2.31875
3.15016
4.17911
5.24219
6.34673
7.38441
7.15327
5.48403
4.19803
3.27654
2.68077
2.38682
2.32026
2.35896
2.42427
2.49044
2.55351
2.6129
2.66832
2.71944
2.76689
2.81203
2.85646
2.90204
2.9506
3.00297
3.05723
3.11372
3.17307
3.23353
3.29357
3.35209
3.40855
3.46325
3.51723
3.57181
3.62829
3.68758
3.7493
3.81238
3.87758
3.94565
4.01571
4.08622
4.15535
4.2208
4.28116
4.3369
4.38815
4.4324
4.47005
4.50504
0.0817626
1.15111
1.60447
1.76067
1.81551
1.82178
1.78275
1.9733
2.62079
3.65677
4.88321
6.17731
7.52031
8.38386
6.59278
4.97824
3.73478
2.87604
2.39838
2.26355
2.35313
2.48355
2.59535
2.69456
2.78502
2.87273
2.95577
3.03421
3.10831
3.1792
3.24836
3.31787
3.39068
3.46948
3.55256
3.63251
3.70657
3.77595
3.84205
3.90532
3.9662
4.02557
4.08468
4.14447
4.20576
4.26936
4.33487
4.40096
4.46911
4.53957
4.61072
4.68096
4.74931
4.81369
4.87336
4.92929
4.98149
5.02575
5.06251
5.10009
0.0859656
1.21694
1.68237
1.83917
1.89666
1.9262
1.91551
2.15053
2.9858
4.25204
5.66074
7.18456
8.82116
8.15743
5.94232
4.37054
3.23372
2.52558
2.25079
2.33532
2.55986
2.72858
2.8489
2.9482
3.03926
3.12887
3.21645
3.30225
3.38629
3.46904
3.55137
3.63512
3.72315
3.817
3.91197
4.00292
4.08955
4.17094
4.24724
4.31947
4.3887
4.45615
4.52309
4.59015
4.65817
4.72817
4.79977
4.87162
4.945
5.02
5.09481
5.16805
5.23921
5.30678
5.37042
5.43171
5.49154
5.54509
5.59097
5.63678
0.089666
1.27786
1.75498
1.91281
1.97341
2.01553
2.05352
2.35114
3.3837
4.90537
6.55013
8.34394
9.69288
7.29896
5.27652
3.8053
2.80768
2.30998
2.29784
2.58634
2.84762
2.99504
3.08542
3.15777
3.23097
3.31244
3.39925
3.48874
3.57938
3.67054
3.76234
3.85595
3.95317
4.05372
4.1523
4.24642
4.33862
4.42852
4.51471
4.59702
4.67609
4.75303
4.82888
4.90425
4.98023
5.0578
5.13654
5.21544
5.29516
5.37562
5.45549
5.53391
5.61029
5.68355
5.75345
5.82128
5.88655
5.94385
5.99613
6.04781
0.092953
1.33414
1.82294
1.98413
2.04951
2.10245
2.20213
2.58569
3.79198
5.55319
7.47056
9.25804
9.05949
6.60454
4.69549
3.31933
2.50043
2.2736
2.52794
2.89442
3.10398
3.19224
3.23232
3.26773
3.3182
3.38948
3.4763
3.57182
3.6713
3.77232
3.87402
3.97683
4.08145
4.1867
4.28841
4.38579
4.48239
4.57902
4.67411
4.76636
4.85557
4.94236
5.02753
5.11182
5.19633
5.28193
5.36825
5.45463
5.54125
5.62792
5.71369
5.7979
5.87992
5.95885
6.03445
6.10716
6.17556
6.23637
6.2939
6.34828
0.0966232
1.38745
1.88646
2.05289
2.1278
2.19512
2.35361
2.87878
4.22362
6.17763
8.34775
9.79051
8.28336
5.94814
4.131
2.89434
2.32699
2.41595
2.84126
3.15037
3.27596
3.29272
3.27523
3.26936
3.29501
3.35534
3.44236
3.54526
3.65566
3.7687
3.88217
3.99556
4.10877
4.2204
4.32775
4.43101
4.53372
4.63753
4.74131
4.84335
4.94273
5.03954
5.13436
5.22796
5.32134
5.41516
5.5092
5.603
5.69653
5.78947
5.88114
5.97093
6.05819
6.14217
6.22253
6.29906
6.37037
6.43549
6.49792
6.55419
0.100619
1.43938
1.94666
2.11799
2.20553
2.29827
2.52167
3.1962
4.67478
6.80144
9.19105
10.1583
7.45606
5.2192
3.54065
2.53782
2.30749
2.67763
3.11137
3.30771
3.34571
3.29558
3.22301
3.17465
3.17276
3.21955
3.30449
3.41335
3.53447
3.6604
3.78721
3.91319
4.03742
4.15852
4.27486
4.38719
4.49866
4.61123
4.72434
4.83628
4.94586
5.0528
5.15746
5.26054
5.36289
5.46498
5.56671
5.66776
5.76799
5.86705
5.96438
6.05941
6.15153
6.2401
6.32467
6.40484
6.47981
6.55005
6.61759
6.67641
0.104563
1.49072
2.00516
2.17954
2.27962
2.40658
2.7054
3.50187
5.0932
7.38059
9.64604
9.3041
6.55156
4.44296
2.98221
2.30913
2.44431
2.95945
3.27937
3.36771
3.323
3.21026
3.08643
2.9965
2.96502
2.99479
3.07377
3.18529
3.31505
3.45324
3.59396
3.73403
3.87155
4.005
4.13339
4.25765
4.38045
4.50367
4.62708
4.74932
4.86921
4.9863
5.10085
5.21344
5.32471
5.43503
5.54436
5.65252
5.7593
5.86437
5.96726
6.06744
6.16436
6.25746
6.34633
6.43064
6.51035
6.58652
6.65982
6.72219
0.108678
1.54091
2.06372
2.23987
2.3498
2.51435
2.89873
3.80591
5.48745
7.96321
9.91812
8.13053
5.59401
3.70097
2.54
2.25395
2.68028
3.17093
3.35431
3.3428
3.2217
3.04916
2.87589
2.74502
2.68246
2.69199
2.76102
2.87145
3.00708
3.15591
3.31004
3.46462
3.6167
3.7644
3.90696
4.04526
4.18138
4.31681
4.45154
4.58456
4.71491
4.84223
4.96667
5.08872
5.20887
5.3274
5.44437
5.55963
5.67303
5.78425
5.89288
5.99844
6.10045
6.19847
6.29218
6.38159
6.46721
6.55018
6.62996
6.69668
0.112787
1.58854
2.12413
2.30336
2.41923
2.61626
3.08408
4.09374
5.84556
8.43448
9.80082
7.04527
4.70508
3.06911
2.26683
2.35978
2.9315
3.28535
3.34748
3.24581
3.0537
2.82308
2.60071
2.42849
2.33328
2.31986
2.37572
2.48195
2.62069
2.778
2.94405
3.11244
3.27916
3.44187
3.59969
3.75318
3.90376
4.05244
4.19922
4.34346
4.48451
4.62216
4.75655
4.88808
5.01716
5.14405
5.26884
5.39147
5.5118
5.62954
5.74435
5.85581
5.9635
6.06712
6.16658
6.26222
6.35487
6.44547
6.5323
6.60381
0.114485
1.63334
2.18826
2.37543
2.49565
2.71607
3.25766
4.37187
6.18988
8.67751
8.77379
5.97448
3.89644
2.59198
2.17128
2.56081
3.11741
3.31658
3.27005
3.08713
2.82844
2.54095
2.26914
2.0545
1.92499
1.88663
1.92717
2.02677
2.16601
2.32917
2.50484
2.68536
2.86576
3.04317
3.21633
3.38525
3.55061
3.71292
3.87217
4.02795
4.17994
4.32807
4.47254
4.6137
4.75192
4.88745
5.02044
5.15087
5.27861
5.40344
5.52504
5.64306
5.75722
5.86736
5.97364
6.07666
6.17737
6.27625
6.37048
6.44685
0.113076
1.67589
2.25749
2.46056
2.58938
2.8297
3.42881
4.65386
6.55757
8.3024
7.47948
4.97346
3.22867
2.29037
2.22626
2.7744
3.2149
3.27707
3.13488
2.87653
2.55419
2.21063
1.88898
1.63114
1.46677
1.40315
1.42752
1.51844
1.65509
1.8206
2.00263
2.1926
2.38474
2.57551
2.76305
2.94666
3.12627
3.30198
3.47364
3.64107
3.80413
3.96289
4.11759
4.2686
4.41625
4.56082
4.70247
4.84121
4.97696
5.1095
5.23858
5.36396
5.48546
5.60314
5.71736
5.82883
5.93842
6.04606
6.14782
6.2289
0.110419
1.71453
2.3329
2.56209
2.70791
2.98054
3.64357
4.9696
7.05844
8.56387
6.37412
4.12903
2.75012
2.15759
2.37354
2.95049
3.22876
3.17892
2.95149
2.62265
2.23874
1.83982
1.46878
1.16946
0.974185
0.889878
0.89955
0.979183
1.10813
1.27015
1.45306
1.64779
1.8479
2.049
2.24846
2.44474
2.63709
2.82512
3.00858
3.18731
3.36128
3.53063
3.69565
3.85667
4.01405
4.16804
4.31879
4.46637
4.61069
4.75159
4.8889
5.02247
5.15228
5.27855
5.40176
5.52263
5.64179
5.75854
5.86784
5.95338
0.111538
1.7474
2.41515
2.68359
2.85442
3.16553
3.92689
5.38615
7.5427
8.09065
5.2994
3.51683
2.47469
2.15451
2.53737
3.04797
3.18186
3.03275
2.72809
2.33298
1.88948
1.43665
1.01978
0.689435
0.483855
0.398182
0.399943
0.462518
0.571156
0.715521
0.886656
1.07557
1.27521
1.47986
1.68588
1.89058
2.09244
2.29045
2.48407
2.67299
2.85715
3.03666
3.21178
3.3828
3.55003
3.71371
3.87398
4.03086
4.18431
4.33421
4.48048
4.62309
4.76218
4.89807
5.03128
5.16244
5.2918
5.41797
5.53477
5.62442
0.115123
1.78854
2.50348
2.82658
3.03844
3.37283
4.20216
5.8026
7.38171
6.90417
4.6545
3.17192
2.342
2.21582
2.66261
3.07607
3.08178
2.84698
2.47191
2.01436
1.51362
1.01025
0.563907
0.250514
0.107037
0.0689276
0.0719398
0.100506
0.157824
0.248945
0.374286
0.529065
0.706172
0.897841
1.09849
1.30245
1.50719
1.71023
1.91047
2.10703
2.29958
2.48804
2.67248
2.85309
3.03005
3.2035
3.37352
3.54009
3.70316
3.86267
4.01864
4.17115
4.32048
4.467
4.61122
4.75352
4.89372
5.02962
5.1538
5.24716
0.120533
1.84169
2.59759
2.98202
3.26169
3.61452
4.44767
6.03438
7.43503
6.0626
4.20978
2.95143
2.25237
2.2807
2.74875
3.03653
2.94127
2.62887
2.18939
1.67319
1.1184
0.582352
0.172588
0.0223384
0.0118322
0.0140202
0.0126964
0.0114383
0.0148505
0.028953
0.0641531
0.131641
0.236172
0.374213
0.537891
0.718702
0.910092
1.10682
1.30574
1.50417
1.70101
1.89555
2.08734
2.27628
2.46226
2.64518
2.82493
3.0014
3.17445
3.34409
3.51041
3.67363
3.83412
3.9923
4.14852
4.30287
4.45453
4.6003
4.73148
4.82794
0.129568
1.90887
2.70239
3.13301
3.49059
3.88069
4.63272
6.07983
7.17313
5.46293
3.86125
2.73027
2.15263
2.32283
2.79786
2.95704
2.76614
2.38457
1.88608
1.31527
0.719008
0.208236
0.0127311
0.030837
0.0395051
0.0399845
0.0393267
0.0375101
0.0327564
0.0230736
0.0137273
0.0130204
0.0254252
0.060821
0.129977
0.235752
0.372994
0.533309
0.708963
0.894078
1.08452
1.278
1.4721
1.66608
1.85889
2.05004
2.23885
2.42494
2.60801
2.78806
2.96522
3.13982
3.31228
3.48301
3.65214
3.81926
3.98269
4.13805
4.27528
4.37376
0.14378
2.02151
2.83062
3.28155
3.67627
4.13725
4.79657
6.11597
6.86003
4.9257
3.50738
2.46904
2.04996
2.34625
2.80711
2.83707
2.56481
2.12031
1.56726
0.947391
0.349901
0.0210354
0.0331635
0.0412624
0.0410123
0.0406477
0.0403712
0.0401832
0.0400438
0.0398107
0.0390283
0.0361783
0.0278892
0.0164836
0.0133875
0.0240112
0.0567341
0.12159
0.221652
0.352515
0.506696
0.677335
0.858995
1.04795
1.24103
1.43643
1.6317
1.82596
2.01819
2.2083
2.39625
2.58246
2.76731
2.95103
3.13341
3.31332
3.488
3.65163
3.79288
3.89147
0.156065
2.17294
3.0065
3.45808
3.83248
4.29707
4.95633
5.96402
6.31079
4.53321
3.14508
2.18557
1.9717
2.36585
2.76769
2.68704
2.34175
1.84065
1.23687
0.59197
0.0840934
0.0213651
0.0412408
0.0410218
0.0405823
0.0402316
0.0399754
0.0398025
0.0397027
0.0396632
0.0396815
0.0397368
0.0397384
0.0394033
0.037712
0.0316775
0.0203153
0.0142624
0.0214051
0.0486635
0.106441
0.200035
0.326973
0.480523
0.653252
0.838732
1.0317
1.22849
1.42637
1.62446
1.82172
2.01859
2.215
2.4109
2.60544
2.79656
2.98023
3.14901
3.29035
3.38517
0.175316
2.3651
3.25267
3.70847
4.05452
4.4555
5.05199
5.81211
5.53972
4.00344
2.72542
1.9185
1.93169
2.40384
2.68443
2.51322
2.10239
1.54956
0.904431
0.278149
0.00949701
0.0398887
0.0410614
0.0405854
0.0401786
0.0398537
0.0396093
0.0394376
0.0393324
0.0392818
0.0392823
0.0393333
0.0394218
0.0395434
0.0396899
0.0398041
0.0397339
0.0388997
0.0352014
0.0255026
0.0164889
0.020041
0.0439251
0.100347
0.197196
0.331821
0.49488
0.676319
0.868387
1.06631
1.26742
1.4706
1.67485
1.87936
2.08227
2.28018
2.46783
2.63587
2.77006
2.85218
0.197801
2.63996
3.56553
4.05415
4.42079
4.80965
5.32843
5.9167
4.9421
3.48911
2.32303
1.71722
1.92032
2.43457
2.57949
2.31771
1.8494
1.24917
0.587154
0.0688198
0.0257734
0.0410603
0.0406372
0.0401853
0.0398059
0.0395043
0.0392739
0.03911
0.039007
0.0389481
0.0389295
0.0389562
0.0390249
0.0391269
0.03925
0.0393941
0.0395666
0.0397638
0.0399451
0.0400284
0.0396272
0.0370782
0.0287353
0.0195878
0.0250408
0.0574316
0.131078
0.249448
0.403045
0.579486
0.769615
0.967879
1.1707
1.3752
1.57801
1.77443
1.95735
2.11525
2.23024
2.27742
0.215011
2.92002
3.91318
4.46225
4.91192
5.39616
6.11013
6.42054
4.45431
3.03932
1.97645
1.59818
1.92426
2.43867
2.44284
2.10626
1.58566
0.94732
0.305565
0.00967278
0.0395896
0.0407223
0.0402361
0.0398156
0.0394622
0.0391822
0.0389656
0.0388105
0.0387094
0.0386448
0.0386175
0.0386339
0.038684
0.0387536
0.03885
0.0389816
0.0391406
0.0393074
0.039486
0.0396989
0.0399468
0.0401705
0.0401956
0.0392615
0.0349088
0.0265448
0.0268906
0.0519594
0.116928
0.227053
0.373429
0.543435
0.727127
0.917161
1.10713
1.29007
1.45665
1.59236
1.67259
1.64878
0.234727
3.17162
4.28291
4.9127
5.43298
5.99785
6.5825
5.93627
4.04989
2.63567
1.6831
1.53853
1.94574
2.4024
2.28121
1.87926
1.31215
0.65642
0.101043
0.019639
0.0406896
0.0403192
0.039857
0.0394644
0.0391398
0.0388814
0.0386797
0.0385341
0.0384352
0.0383677
0.0383369
0.0383466
0.0383811
0.0384315
0.0385122
0.0386252
0.038754
0.0388954
0.0390638
0.0392627
0.039479
0.0397172
0.039991
0.0402396
0.0401935
0.0390171
0.0349797
0.0294652
0.033481
0.0615184
0.12705
0.232927
0.369631
0.524255
0.68505
0.841051
0.979706
1.08299
1.11931
1.02017
0.274514
3.43959
4.63064
5.30175
5.79462
6.31918
6.77527
5.19806
3.52382
2.20791
1.43933
1.50234
1.99825
2.31599
2.1041
1.64149
1.03381
0.389708
0.0171329
0.0370222
0.0404092
0.0399269
0.0394936
0.0391293
0.0388322
0.0385962
0.0384109
0.038277
0.0381832
0.038116
0.0380824
0.0380852
0.0381102
0.0381513
0.0382192
0.0383119
0.0384183
0.0385418
0.0386911
0.038864
0.0390553
0.0392758
0.0395371
0.0398335
0.0401432
0.0403607
0.0400897
0.0383517
0.0342525
0.0312616
0.03922
0.069738
0.131961
0.224466
0.335647
0.450122
0.551135
0.617576
0.61616
0.482743
0.281851
3.65083
4.86858
5.52409
6.05148
6.52905
6.34092
4.53601
2.96969
1.75577
1.25646
1.48714
2.0674
2.20633
1.90558
1.39307
0.760526
0.172232
0.0100329
0.0400696
0.0400293
0.0395505
0.0391448
0.0388091
0.0385378
0.0383233
0.0381545
0.0380327
0.0379463
0.0378831
0.0378495
0.0378472
0.0378651
0.0378985
0.0379565
0.0380361
0.0381285
0.0382351
0.0383617
0.0385106
0.0386809
0.0388772
0.0391081
0.0393777
0.0396937
0.0400599
0.0404296
0.0406404
0.0402391
0.0383637
0.0347627
0.0328814
0.0400584
0.0634321
0.105849
0.160983
0.213659
0.243077
0.223453
0.129757
0.279699
3.76389
4.99368
5.62044
6.13404
6.35769
5.37066
3.73501
2.2859
1.30758
1.14325
1.51542
2.08513
2.06897
1.69453
1.13416
0.500275
0.043982
0.0289173
0.0400643
0.0396553
0.0391956
0.0388161
0.0385068
0.0382586
0.0380632
0.0379093
0.0377976
0.037718
0.0376602
0.037629
0.0376251
0.0376386
0.0376654
0.0377149
0.037785
0.0378673
0.0379622
0.0380735
0.0382031
0.0383499
0.0385199
0.0387219
0.0389583
0.0392367
0.0395715
0.039972
0.0404391
0.0409333
0.0413233
0.0412663
0.0402271
0.0379229
0.0355798
0.036165
0.0413561
0.0484579
0.0504169
0.0412562
0.0303279
0.278062
3.61341
4.86993
5.48744
5.81632
5.63051
4.24977
2.76296
1.55321
0.97708
1.1038
1.59042
2.0516
1.90107
1.46772
0.871873
0.268436
0.00838431
0.038559
0.0397442
0.0393074
0.0388685
0.038513
0.0382264
0.0379975
0.0378177
0.0376766
0.0375734
0.0374988
0.0374453
0.0374161
0.0374117
0.0374229
0.0374461
0.0374896
0.0375507
0.0376232
0.0377091
0.0378105
0.0379267
0.0380559
0.0382036
0.0383771
0.0385799
0.0388192
0.0391054
0.0394499
0.0398696
0.040388
0.0410172
0.0417597
0.0425789
0.043359
0.0439771
0.0443423
0.0444636
0.0445278
0.0447343
0.044736
0.0426678
0.263611
3.29382
4.51824
5.00696
5.10428
4.45704
3.04716
1.79325
0.973125
0.831666
1.13195
1.69522
1.96015
1.71596
1.22763
0.612677
0.0963012
0.0163137
0.0395647
0.0393769
0.038958
0.0385521
0.0382272
0.0379659
0.0377553
0.0375888
0.0374586
0.0373628
0.0372932
0.0372436
0.0372154
0.0372091
0.0372177
0.0372386
0.0372775
0.0373309
0.0373947
0.0374714
0.0375621
0.0376666
0.0377836
0.0379155
0.0380665
0.0382398
0.0384417
0.0386818
0.0389685
0.0393147
0.0397402
0.0402715
0.0409351
0.0417562
0.0427654
0.0439523
0.0452277
0.0464052
0.0471553
0.0469992
0.045392
0.0419183
0.242064
2.9219
3.98873
4.24505
4.12134
3.06709
1.90219
1.0132
0.668958
0.82001
1.20922
1.78039
1.83657
1.50707
0.971207
0.366528
0.0181386
0.034242
0.0393253
0.038998
0.0386042
0.0382351
0.037943
0.0377101
0.0375216
0.037371
0.0372531
0.0371654
0.0371019
0.0370572
0.0370311
0.0370236
0.0370295
0.0370472
0.0370809
0.0371274
0.0371843
0.0372522
0.0373315
0.0374233
0.0375273
0.0376448
0.0377786
0.0379293
0.0381004
0.0382996
0.0385342
0.0388142
0.0391538
0.0395679
0.0400786
0.0407152
0.0414928
0.0424086
0.043423
0.0443933
0.0450102
0.0448042
0.0433045
0.0403412
0.219836
2.51059
3.27203
3.27519
2.76496
1.79732
0.986715
0.570767
0.605627
0.874921
1.32183
1.78542
1.67515
1.27962
0.707893
0.159034
0.00820141
0.0387456
0.038956
0.0386066
0.0382349
0.0379043
0.0376459
0.0374418
0.0372773
0.0371466
0.037045
0.0369692
0.0369144
0.0368768
0.0368553
0.0368496
0.0368556
0.0368722
0.0369015
0.0369418
0.0369925
0.037053
0.0371228
0.037203
0.0372934
0.0373953
0.0375114
0.0376418
0.0377884
0.0379549
0.0381459
0.0383689
0.0386345
0.0389539
0.0393394
0.0398042
0.0403637
0.0410248
0.0417618
0.0424788
0.0429602
0.0428382
0.041683
0.0392936
0.199518
2.01812
2.4234
2.2057
1.5102
0.864509
0.484875
0.454595
0.657886
0.964347
1.45138
1.70077
1.48569
1.03412
0.448989
0.0366233
0.0268565
0.0389326
0.0385869
0.0382406
0.0378931
0.0375932
0.0373585
0.0371744
0.0370286
0.0369147
0.0368281
0.0367645
0.0367196
0.0366901
0.0366748
0.0366726
0.0366811
0.0366993
0.0367276
0.0367649
0.0368112
0.0368656
0.0369283
0.0369999
0.0370798
0.0371688
0.0372683
0.0373789
0.0375026
0.0376416
0.037798
0.0379757
0.0381814
0.0384222
0.0387068
0.0390463
0.0394471
0.0399095
0.0404229
0.0409393
0.0413263
0.0413081
0.0404841
0.0385655
0.202324
1.49634
1.67762
1.18189
0.693915
0.395587
0.351809
0.517423
0.739778
1.07677
1.55099
1.56856
1.26522
0.767828
0.215895
0.00680341
0.0374824
0.0386855
0.0382671
0.0379116
0.0375889
0.0373211
0.037108
0.0369386
0.0368057
0.0367037
0.0366277
0.036573
0.0365351
0.0365114
0.0365006
0.0365009
0.0365105
0.0365291
0.0365562
0.0365911
0.0366339
0.0366836
0.03674
0.036804
0.0368754
0.0369547
0.0370419
0.037137
0.037241
0.0373558
0.037483
0.0376248
0.0377844
0.0379656
0.0381736
0.0384136
0.0386905
0.0390068
0.0393568
0.0397144
0.0400044
0.0400408
0.0394851
0.0379769
0.327843
1.28503
0.855322
0.486152
0.295881
0.290414
0.438534
0.610674
0.833428
1.21563
1.51788
1.38699
1.01552
0.492937
0.0587862
0.0166727
0.0384536
0.0384241
0.037989
0.0376285
0.0373215
0.037075
0.0368802
0.0367256
0.0366057
0.0365153
0.0364494
0.0364032
0.0363725
0.0363544
0.0363475
0.0363504
0.0363614
0.0363799
0.0364052
0.036437
0.0364754
0.0365197
0.0365699
0.0366261
0.0366882
0.0367566
0.0368317
0.0369131
0.0370011
0.0370961
0.0371986
0.0373102
0.0374328
0.0375685
0.0377192
0.0378884
0.0380785
0.03829
0.0385211
0.0387613
0.0389742
0.039044
0.0386978
0.0375277
0.214338
0.363881
0.245517
0.224394
0.300535
0.436621
0.549978
0.690664
0.945163
1.34129
1.41004
1.16352
0.736346
0.24136
0.0095563
0.0223124
0.0382628
0.0381774
0.0377345
0.0373738
0.0370814
0.0368492
0.0366664
0.0365235
0.0364146
0.0363343
0.0362774
0.0362392
0.0362156
0.0362038
0.0362018
0.0362081
0.0362214
0.036241
0.0362664
0.0362969
0.0363323
0.0363725
0.0364173
0.0364669
0.0365212
0.0365801
0.0366435
0.0367114
0.0367839
0.0368611
0.0369431
0.0370299
0.037122
0.0372208
0.0373276
0.0374437
0.0375696
0.0377059
0.037852
0.0380043
0.0381489
0.0382256
0.0380373
0.0371564
0.0366981
0.0405221
0.0447389
0.0497246
0.0558065
0.0633221
0.0726131
0.0840752
0.0982036
0.115568
0.136784
0.162604
0.1942
0.233694
0.28501
0.354503
0.448412
0.558838
0.622728
0.460402
0.0364908
0.0398827
0.0436607
0.0482158
0.0538877
0.0610307
0.0700142
0.0812828
0.0954221
0.113152
0.135295
0.162843
0.197227
0.240895
0.298331
0.377105
0.485416
0.615631
0.700783
0.589136
0.0362807
0.0392175
0.0425266
0.0466022
0.0517873
0.0584404
0.0669388
0.0777442
0.0914905
0.109008
0.131299
0.15958
0.195499
0.241643
0.302475
0.385213
0.496932
0.629109
0.727038
0.650508
0.0360758
0.0385526
0.0413813
0.0449482
0.049591
0.0556629
0.0635324
0.0736438
0.0866211
0.103327
0.124866
0.152606
0.188326
0.234563
0.295268
0.376275
0.482612
0.607212
0.710968
0.714569
0.0358831
0.0379131
0.0402698
0.0433211
0.0473919
0.0528228
0.0599633
0.0692168
0.0811418
0.0965387
0.116489
0.142388
0.176026
0.219768
0.276891
0.351714
0.447608
0.559881
0.665328
0.722585
0.0357084
0.0373203
0.0392313
0.0417825
0.0452796
0.0500444
0.0564038
0.0647128
0.0754334
0.0892244
0.107012
0.130054
0.159998
0.198951
0.249571
0.314983
0.397516
0.494812
0.594855
0.675234
0.0355558
0.0367908
0.0382964
0.040382
0.0433297
0.0474383
0.0530105
0.0603588
0.069851
0.0819739
0.0974085
0.117121
0.142443
0.175101
0.217198
0.271038
0.338395
0.418589
0.50602
0.589518
0.0354278
0.0363351
0.037485
0.0391536
0.0415981
0.0450912
0.0499101
0.0563344
0.0646633
0.0752385
0.0884917
0.105031
0.125736
0.151811
0.184759
0.226234
0.277634
0.339213
0.40888
0.481702
0.0353256
0.0359583
0.0368055
0.0381127
0.0401154
0.0430589
0.0471918
0.0527664
0.0600397
0.0692661
0.0807061
0.0946741
0.11161
0.132139
0.15708
0.187387
0.223975
0.26737
0.317177
0.371674
0.0352493
0.0356597
0.0362537
0.0372568
0.0388883
0.0413648
0.0449058
0.0497358
0.0560803
0.0641505
0.0741361
0.0862146
0.100572
0.117413
0.136952
0.159407
0.18503
0.214101
0.246779
0.282744
0.0351991
0.0354301
0.0358113
0.0365711
0.0379106
0.040013
0.0430702
0.0472784
0.0528253
0.0598858
0.068625
0.0792051
0.0917872
0.106474
0.123126
0.1413
0.160468
0.180344
0.20052
0.21806
0.0350927
0.0352271
0.0353539
0.0357685
0.0366196
0.038059
0.0402509
0.0433398
0.047434
0.0526069
0.0588769
0.0662148
0.0745989
0.0832595
0.0903364
0.0920339
0.0851731
0.0722166
0.0595784
0.0541669
0.0153842
0.0217396
0.0165665
0.0141817
0.0130235
0.01243
0.0120917
0.0118609
0.0116626
0.0111609
0.010925
0.0119478
0.0152502
0.0216513
0.0316664
0.0457198
0.0638279
0.0865246
0.113498
0.143396
0.0137554
0.0118961
0.0163786
0.0206087
0.0252446
0.0306214
0.0369227
0.0443048
0.0529663
0.0631275
0.0750778
0.0886038
0.096427
0.110061
0.134079
0.165715
0.204039
0.243018
0.255758
0.313361
0.00864464
0.0137247
0.0183727
0.0259029
0.0351253
0.0455329
0.0558056
0.0661441
0.0766232
0.0868616
0.0959617
0.106033
0.142465
0.157264
0.161953
0.165217
0.164167
0.15156
0.147638
0.179753
0.0111194
0.0127171
0.0150927
0.0141873
0.0119066
0.0108796
0.0107548
0.0110675
0.0115693
0.0121793
0.0131544
0.0163714
0.0318263
0.0520914
0.061556
0.0610644
0.0520748
0.037646
0.02572
0.0228825
0.0114105
0.0130604
0.0177231
0.0280517
0.0298929
0.0284937
0.0267921
0.0252899
0.0239653
0.0227264
0.0214752
0.0198706
0.0159829
0.013279
0.0138198
0.0147659
0.0157755
0.0179485
0.0221318
0.0264865
0.0125639
0.013815
0.0170875
0.029357
0.0340783
0.0347135
0.034587
0.0343999
0.0342143
0.0340316
0.033892
0.033874
0.0338076
0.0334731
0.0336676
0.0349446
0.0369992
0.0391037
0.0407117
0.0419535
0.013286
0.0145139
0.0175453
0.0297375
0.0344614
0.0352509
0.0354399
0.0356094
0.0357805
0.0359468
0.0361405
0.0364393
0.0369474
0.0377086
0.0386481
0.0396381
0.0404902
0.0410571
0.0413652
0.0415727
0.013994
0.0150396
0.0190686
0.0309418
0.034716
0.0352174
0.0353772
0.0355612
0.0357633
0.0359754
0.036215
0.0365218
0.0369429
0.037499
0.0381474
0.0388008
0.0393626
0.0397765
0.0400508
0.0402308
0.0143193
0.0155832
0.0218705
0.0326614
0.0350263
0.0352309
0.0353286
0.0354706
0.0356376
0.0358232
0.0360359
0.0362939
0.0366163
0.0370082
0.0374482
0.0378924
0.038292
0.0386146
0.0388536
0.0390197
0.0129115
0.0164072
0.026041
0.0342658
0.0352436
0.0352613
0.0353093
0.0354022
0.0355206
0.0356593
0.0358215
0.0360146
0.0362457
0.0365151
0.0368107
0.0371097
0.037386
0.0376199
0.0378027
0.0379351
0.0130513
0.0184775
0.0310968
0.0352054
0.0353112
0.0352629
0.0352785
0.0353288
0.0354
0.0354881
0.0355934
0.0357184
0.0358653
0.036033
0.0362149
0.0363992
0.0365721
0.0367222
0.036843
0.036933
0.016322
0.0249002
0.0348023
0.035365
0.0352569
0.0352197
0.0352206
0.0352398
0.0352706
0.0353106
0.0353595
0.0354178
0.035486
0.0355633
0.0356468
0.0357316
0.0358119
0.0358826
0.0359406
0.0359846
0.0615755
0.0799646
0.0895735
0.0982777
0.106106
0.111166
0.113893
0.114765
0.114198
0.113178