/*--------------------------------*- C++ -*----------------------------------*\
| =========                 |                                                 |
| \\      /  F ield         | OpenFOAM: The Open Source CFD Toolbox           |
|  \\    /   O peration     | Version:  v1912                                 |
|   \\  /    A nd           | Website:  www.openfoam.com                      |
|    \\/     M anipulation  |                                                 |
\*---------------------------------------------------------------------------*/
FoamFile
{
    version     2.0;
    format      ascii;
    class       volScalarField;
    location    "46";
    object      p;
}
// * * * * * * * * * * * * * * * * * * * * * * * * * * * * * * * * * * * * * //

dimensions      [1 -1 -2 0 0 0 0];


internalField   nonuniform List<scalar> 
20320
(
419248
429502
429528
429580
429651
429739
429841
429956
430080
430210
430343
430477
430608
430732
430847
430951
431041
431115
431170
431202
399325
409238
409272
409326
409398
409487
409590
409706
409830
409960
410094
410228
410358
410483
410597
410700
410787
410857
410907
410939
380001
389602
389637
389692
389764
389853
389957
390072
390196
390326
390460
390593
390722
390845
390959
391060
391146
391215
391264
391296
361275
370578
370612
370666
370738
370827
370929
371044
371167
371296
371429
371560
371688
371809
371921
372020
372105
372173
372223
372258
343137
352148
352182
352235
352306
352393
352494
352606
352728
352856
352986
353115
353241
353360
353469
353566
353649
353716
353767
353806
325573
334298
334331
334383
334452
334537
334635
334746
334864
334989
335117
335243
335366
335482
335588
335682
335762
335828
335879
335920
308570
317015
317047
317096
317163
317245
317340
317446
317561
317681
317804
317927
318045
318157
318259
318349
318426
318489
318540
318582
292114
300286
300317
300364
300427
300504
300594
300695
300804
300918
301035
301151
301263
301369
301465
301549
301621
301681
301729
301773
276196
284100
284128
284172
284230
284302
284385
284478
284579
284684
284792
284898
285001
285098
285185
285261
285326
285379
285424
285466
260803
268445
268470
268509
268561
268625
268700
268783
268872
268965
269059
269153
269242
269325
269399
269462
269515
269559
269598
269638
245924
253308
253330
253363
253408
253463
253525
253595
253669
253746
253822
253897
253966
254029
254083
254127
254163
254192
254222
254254
231551
238682
238699
238726
238762
238804
238853
238906
238960
239015
239067
239115
239157
239190
239214
239230
239239
239246
239259
239279
217672
224555
224567
224586
224611
224639
224670
224702
224733
224760
224780
224793
224795
224786
224767
224738
224705
224676
224662
224661
204277
210916
210923
210933
210944
210957
210968
210975
210976
210968
210948
210913
210862
210795
210711
210617
210519
210431
210373
210333
191357
197758
197758
197758
197756
197751
197739
197717
197684
197634
197563
197469
197348
197199
197024
196830
196629
196446
196310
196203
178903
185069
185063
185053
185036
185011
184974
184921
184849
184751
184621
184453
184243
183986
183682
183338
182975
182629
182353
182120
166902
172840
172828
172807
172775
172729
172667
172581
172466
172315
172118
171865
171546
171150
170671
170112
169491
168863
168322
167835
155345
161060
161041
161010
160963
160898
160809
160690
160533
160326
160058
159711
159267
158705
158002
157142
156127
155006
153931
152891
144220
149719
149693
149652
149591
149507
149394
149243
149045
148785
148445
148003
147428
146681
145715
144472
142892
140948
138754
136327
133515
138803
138772
138722
138649
138547
138412
138233
137997
137689
137284
136754
136054
135128
133891
132222
129943
126789
122400
116167
123149
125793
123985
121975
120386
119276
118382
117422
116477
115913
117219
120932
112113
105646
104217
104641
105652
126327
333077
272733
195036
138807
99488.7
72922.6
55721.9
44893.7
38245.1
34174.3
31776.6
30432
29761.2
29506.5
29351.1
29059.4
29593
29516.1
29098.3
29208.1
29302.4
29544.9
29327.3
29449.2
29624.2
29691.9
30333.5
30802.6
31050.5
30733.5
30735.3
31237.8
31368.2
31367.4
31375.8
31706.4
31014.7
30958.6
30871.6
31331.4
31588.7
30477.3
117951
120310
118809
117063
115714
114783
113933
113067
112297
111653
112474
116402
108369
103441
101986
102194
102741
108022
249954
229579
176327
127864
91448.4
66180.2
49615.1
39127.9
32633.1
28720.8
26485.6
25238.7
24566.9
24274.2
24013.5
24167.3
24285
24337.2
24479.7
24638.8
24758.5
24841.7
24970.9
25119.3
25359.5
25800.9
25844.9
25806.5
26017.4
26255.7
26471.7
26419
26426.5
26387.3
26244.6
26205.8
26445
26741.5
26671.1
26222
26034.3
26256.6
113753
115772
114355
112565
110931
109785
108996
108207
107403
106649
106665
108283
103261
102010
102041
102035
102402
121341
197253
192061
155058
114281
81263.3
57801.8
42372.6
32628.9
26636.3
23036.4
20966.3
19821.8
19243.7
18942
18810.4
18929.7
19057.5
19121.3
19301
19457.9
19564.6
19623.6
19764.1
19925.1
20158.7
20543.9
20724.6
20741
20839.1
21073
21284.6
21323.9
21313.6
21261
21153.2
21085.1
21282.6
21473.2
21485.2
21211.7
21009.8
21064.1
109751
111075
109555
107647
105752
104437
103629
103023
102269
101947
101421
101807
100845
99117.1
101815
101879
102325
121236
151967
154041
128781
95720.8
67083.3
46467.8
33106.2
24790.5
19762.7
16784.3
15086.9
14176.8
13737.1
13553.2
13507.8
13622.9
13784.2
13900.9
14061.1
14197.1
14288
14350.9
14459.1
14608.8
14837.3
15157
15371.1
15471.9
15605.6
15802.8
15973.7
16046.6
16059.9
16019.1
15944.2
15920.6
16030.9
16152.9
16162.2
16055.2
15966.2
15922.8
105067
106462
104811
102970
101369
99974.1
98985
97650.2
96811.3
97014.6
96317.8
95865
96990.6
97013.6
98851.4
101659
100572
103489
116650
117579
99010.3
72331.1
48619.3
31906.3
21633.4
15477.7
11914.9
9878.03
8757.96
8205.81
7986.18
7956.66
8024.26
8180.57
8383.38
8546.78
8707.46
8828.83
8902.79
8954.89
9038.69
9167.83
9376.69
9663.55
9893.03
10052.1
10224.3
10412.5
10553.9
10644.6
10686.1
10668.7
10627.3
10631.5
10693.9
10753.9
10784.7
10818.9
10825.3
10740.5
100568
101806
100014
98036.1
96138.2
94831.2
93888.6
92552.5
91233.4
91695.9
90774.4
90150
92332.8
93528
96931.1
99463.1
89153.7
85722.2
87655.4
83821.2
67275.8
44547.8
25443.3
13122
7373.86
4323.77
2909.27
2285.07
2018.02
1983.7
2053.24
2200.38
2388.83
2599.56
2870.82
3068.8
3255.65
3370.77
3425.8
3455.5
3516.75
3614.91
3802.11
4076.84
4296.77
4497.15
4729.74
4926.32
5019.29
5123.11
5204.32
5212.64
5210.95
5263.22
5282.68
5252.49
5306.74
5541.43
5673.76
5574.35
96636.3
97235.6
95287.8
93145.7
90855
88820.4
87815.2
86982.4
85961.1
85536.8
85350.5
85318.1
89874.8
92651.2
92728.8
88137.9
76790.4
68749.7
62686.7
52945.9
34062.6
11324.3
1305.58
111.962
24.9287
7.77414
-2.87634
-9.99238
-14.7204
-18.1234
-20.507
-21.7746
-22.4514
-23.3843
-23.7305
-20.2519
-12.8242
-1.7258
15.5984
38.9079
67.9485
104.84
153.608
232.962
251.948
268.334
363.098
482.706
472.112
493.22
543.024
509.494
439.843
476.89
511.748
456.514
414.594
668.116
864.583
715.768
92728.5
92894.3
90877.9
88524.3
86000.6
83526.2
81350.6
80823.1
80046.6
80576.4
79988.1
80515.8
87518
90846
90624.9
76402.8
64417.8
52724.4
40830.5
24513.6
2765.5
78.2094
49.8693
36.2793
18.3926
4.94629
-4.64978
-11.8004
-17.0237
-20.8546
-23.7
-25.8349
-27.6193
-30.0366
-33.3464
-34.1181
-33.8012
-33.9545
-34.1825
-34.2863
-34.3347
-34.3853
-34.4154
-34.584
-34.8348
-35.0054
-35.0879
-35.2644
-35.1942
-35.3139
-34.8459
-34.5685
-34.544
-34.5624
-34.5864
-34.6655
-35.9219
-41.6657
-37.1184
-36.9658
88949.5
88776.3
86680.6
84148.8
81372.1
78525.9
74953.4
74626.3
73211
76076.9
74782.6
76531
76245
81954
77108.3
65468.9
52222
37824.2
21470.1
2114.48
58.5547
45.7326
31.5142
16.3225
3.8628
-6.55801
-14.3295
-20.1824
-24.5467
-27.8122
-30.2894
-32.1983
-33.8105
-35.6719
-38.1689
-39.7483
-40.2268
-40.4633
-40.6093
-40.6801
-40.7457
-40.844
-41.0753
-41.4582
-41.6752
-41.6288
-41.5792
-41.689
-41.6571
-41.5716
-41.2214
-40.8198
-40.4617
-40.3124
-40.4124
-40.6158
-41.2465
-43.2028
-42.4959
-41.4979
85523.6
84950
82637.3
80348.9
77386.2
73722.6
68724.4
67692.2
67763.6
69603.7
67344.4
65546.7
70329.5
77705.3
66529.1
54703.1
40350.7
23935
4431.58
46.5974
29.8779
21.425
9.47115
-1.29496
-10.2335
-17.8422
-23.7908
-28.4088
-31.9625
-34.7004
-36.838
-38.546
-40.0232
-41.6363
-43.6844
-45.3967
-46.3033
-46.7398
-46.9513
-47.0533
-47.129
-47.2326
-47.4139
-47.6829
-47.8649
-47.8842
-47.8564
-47.8916
-47.8631
-47.7558
-47.4993
-47.1753
-46.8919
-46.7505
-46.79
-46.9737
-47.4979
-48.5207
-48.0785
-47.014
82152.2
81163.9
78852.3
76416.3
73507.6
70363.5
66934.8
66451.3
66556.1
63840.3
60863.6
62226.5
63678.2
68794.9
57134
44292.1
29036
10383.1
104.93
2.04712
4.4234
-2.3069
-9.98292
-17.3397
-23.6607
-29.0501
-33.4146
-36.8979
-39.6623
-41.861
-43.6337
-45.1017
-46.4124
-47.8181
-49.5358
-51.1856
-52.3171
-52.9589
-53.2892
-53.4567
-53.5653
-53.6779
-53.8358
-54.0369
-54.1861
-54.2222
-54.2067
-54.2079
-54.1732
-54.0689
-53.8702
-53.6203
-53.3929
-53.263
-53.2689
-53.4045
-53.743
-54.2059
-53.8307
-52.7602
78567
77426.4
74969
72443
69696.9
66927.5
65980.8
66410.7
66352.1
58710.7
58222.1
59957.3
62149.9
58635
47855.7
34483.9
18246.8
974.728
-16.3388
-12.9119
-17.1496
-21.6598
-26.7675
-31.7015
-36.0297
-39.7523
-42.8517
-45.393
-47.4726
-49.1807
-50.6053
-51.8346
-52.9799
-54.2148
-55.6852
-57.1944
-58.3939
-59.1786
-59.6334
-59.8863
-60.0436
-60.1751
-60.3191
-60.4779
-60.5984
-60.6393
-60.6334
-60.6229
-60.5843
-60.4915
-60.3367
-60.1447
-59.9668
-59.8577
-59.8457
-59.9271
-60.1047
-60.2403
-59.7975
-58.6946
74882.3
73681
71142.7
68591.8
66268.7
63765.6
61408.6
64452.1
63124.4
52355.2
54868.7
58638.1
57897.6
49819.2
39108
25379.5
7647.54
41.2913
-28.5702
-30.8786
-34.6639
-37.838
-41.1938
-44.4086
-47.2813
-49.7906
-51.9372
-53.749
-55.2788
-56.5778
-57.7026
-58.7197
-59.713
-60.8015
-62.077
-63.4274
-64.6032
-65.4619
-66.0163
-66.3533
-66.5665
-66.7235
-66.8649
-66.9985
-67.0978
-67.1399
-67.1422
-67.1288
-67.0912
-67.0156
-66.8979
-66.7552
-66.6238
-66.5406
-66.5215
-66.5547
-66.6065
-66.5322
-65.996
-64.8595
71010.5
69849.8
67388.6
65386.5
63293.7
60710.4
57853.9
56409.2
54570.7
50157.1
52223.8
52780.3
50430.7
42058.9
31105.5
16842.8
764.897
-45.2469
-42.7293
-46.5723
-49.3178
-51.5303
-53.6576
-55.6696
-57.5027
-59.1475
-60.606
-61.8833
-63.0011
-63.9853
-64.8748
-65.7207
-66.5852
-67.5482
-68.6641
-69.8644
-70.9717
-71.8494
-72.4684
-72.8749
-73.1409
-73.3271
-73.473
-73.5943
-73.6829
-73.7278
-73.7363
-73.7248
-73.6946
-73.6385
-73.5543
-73.4558
-73.368
-73.3126
-73.294
-73.2912
-73.2505
-73.0373
-72.4198
-71.2415
66867.5
65874
63686
61910.5
59652.2
57149
54456.4
52275.1
49185.8
48771.8
49675.9
51750.2
44067.4
35354.8
23872.6
8525.05
26.3073
-54.9066
-56.971
-59.994
-61.8979
-63.3267
-64.5823
-65.7543
-66.8563
-67.8974
-68.8755
-69.7794
-70.6072
-71.3695
-72.0915
-72.8106
-73.5724
-74.4302
-75.4166
-76.4828
-77.5037
-78.3628
-79.0116
-79.4665
-79.776
-79.9908
-80.1476
-80.2677
-80.3543
-80.4034
-80.4189
-80.4137
-80.3949
-80.3596
-80.3078
-80.2494
-80.2011
-80.1743
-80.1623
-80.1364
-80.0331
-79.7306
-79.0516
-77.854
62253.1
61664.8
59719.7
57857.1
55866.4
53680.4
51242.9
48982.8
47092.8
45619.9
48640.2
46716.2
38780.3
29281.3
17297.1
1794.45
-68.0583
-65.2648
-69.5025
-71.705
-72.9362
-73.7371
-74.3638
-74.9482
-75.5433
-76.1697
-76.8211
-77.4739
-78.1101
-78.7269
-79.3385
-79.9705
-80.655
-81.4276
-82.3074
-83.2581
-84.189
-85.0063
-85.6578
-86.1401
-86.4824
-86.723
-86.8951
-87.0216
-87.1123
-87.1683
-87.193
-87.1977
-87.1926
-87.1792
-87.1578
-87.1356
-87.1236
-87.1245
-87.1244
-87.0881
-86.948
-86.5928
-85.8788
-84.6711
57186
57244.1
55504
53698.2
51975.5
50181.4
48003
45628.7
43776.4
42940.5
44145.6
41748.4
33513.7
23716.5
11000.2
88.135
-72.6781
-77.7053
-80.807
-82.2143
-82.8765
-83.1787
-83.348
-83.5226
-83.7707
-84.1156
-84.5471
-85.0341
-85.5464
-86.072
-86.6148
-87.189
-87.8163
-88.5211
-89.3143
-90.1672
-91.0122
-91.7769
-92.4121
-92.9048
-93.2688
-93.5318
-93.7213
-93.859
-93.9587
-94.0249
-94.0613
-94.0786
-94.089
-94.0972
-94.1038
-94.1144
-94.1346
-94.1619
-94.178
-94.1422
-93.9867
-93.6088
-92.8838
-91.69
52827.4
52801.9
51158.7
49699.4
48391.9
46630
44822.5
43180.4
40104.5
41649.1
42372.4
37544.5
28894.6
18597.7
5217.81
-41.7257
-86.9276
-89.0129
-91.0731
-91.8543
-92.0566
-91.978
-91.8207
-91.714
-91.7279
-91.8826
-92.1652
-92.5396
-92.9688
-93.4344
-93.9317
-94.466
-95.0497
-95.6998
-96.4218
-97.1918
-97.959
-98.6676
-99.2762
-99.7669
-100.144
-100.425
-100.632
-100.784
-100.896
-100.975
-101.026
-101.058
-101.084
-101.113
-101.145
-101.184
-101.233
-101.285
-101.319
-101.293
-101.14
-100.762
-100.049
-98.8842
48570.9
48466.9
46887.6
46080.1
44829.8
43146.1
41565.8
40313.9
37552.3
38899.7
40089.8
32272
24307
13830.6
911.888
-104.526
-96.1125
-99.3565
-100.568
-100.876
-100.731
-100.379
-100
-99.7109
-99.5718
-99.599
-99.7776
-100.068
-100.433
-100.85
-101.31
-101.812
-102.358
-102.961
-103.623
-104.322
-105.02
-105.674
-106.251
-106.732
-107.115
-107.411
-107.634
-107.801
-107.928
-108.022
-108.089
-108.137
-108.18
-108.227
-108.281
-108.344
-108.416
-108.491
-108.545
-108.536
-108.397
-108.039
-107.356
-106.239
43148.4
43946.1
42592.8
41755.7
40690.9
39253.5
37960.4
35215
35010.2
37845.7
34567.8
28345.1
19931.3
9216.98
46.3976
-99.8132
-106.625
-108.794
-109.497
-109.473
-109.085
-108.556
-108.045
-107.645
-107.413
-107.358
-107.46
-107.681
-107.986
-108.355
-108.776
-109.242
-109.75
-110.308
-110.916
-111.554
-112.191
-112.794
-113.338
-113.804
-114.187
-114.493
-114.731
-114.914
-115.056
-115.167
-115.251
-115.315
-115.373
-115.437
-115.51
-115.591
-115.683
-115.777
-115.85
-115.862
-115.748
-115.423
-114.788
-113.736
37021.8
38726.5
37731.3
37039.5
36251.6
35182.5
34331.6
34152.6
34445.6
34086.5
31689.5
24330.6
15892.1
5053.2
-78.5284
-114.877
-116.336
-117.75
-118.054
-117.798
-117.257
-116.633
-116.053
-115.599
-115.324
-115.21
-115.244
-115.399
-115.645
-115.964
-116.345
-116.773
-117.24
-117.751
-118.308
-118.89
-119.471
-120.028
-120.538
-120.987
-121.367
-121.679
-121.929
-122.128
-122.285
-122.413
-122.514
-122.594
-122.667
-122.745
-122.832
-122.928
-123.034
-123.143
-123.234
-123.268
-123.186
-122.906
-122.332
-121.36
31031.4
33069.1
33027.1
32230.3
31861.8
30884.2
32211.2
33347.5
33750.1
34056.3
27042.7
20623.9
12224.5
1518.04
-118.583
-123.038
-125.484
-126.38
-126.39
-125.974
-125.349
-124.686
-124.082
-123.621
-123.315
-123.156
-123.137
-123.234
-123.422
-123.685
-124.015
-124.399
-124.825
-125.294
-125.804
-126.334
-126.865
-127.377
-127.855
-128.284
-128.657
-128.972
-129.232
-129.444
-129.617
-129.76
-129.879
-129.974
-130.061
-130.15
-130.247
-130.353
-130.469
-130.588
-130.694
-130.75
-130.702
-130.474
-129.976
-129.101
25195.6
27546.6
27693.6
27274
27454.6
26809
28546.9
33220.4
33464.9
31962.1
23860.7
17221.9
8913.4
190.307
-136.821
-132.345
-134.42
-134.805
-134.61
-134.092
-133.432
-132.76
-132.172
-131.718
-131.392
-131.2
-131.137
-131.183
-131.318
-131.528
-131.811
-132.15
-132.526
-132.944
-133.405
-133.889
-134.376
-134.849
-135.295
-135.703
-136.065
-136.379
-136.646
-136.87
-137.056
-137.214
-137.348
-137.459
-137.557
-137.656
-137.761
-137.872
-137.992
-138.117
-138.232
-138.306
-138.292
-138.121
-137.708
-136.949
19099.3
22035.3
22830.1
21931.3
21912.9
22454.5
23561.3
31612
33133.6
26366.8
20484.1
14133
5771.51
-88.9477
-133.836
-141.856
-142.884
-143.095
-142.78
-142.211
-141.545
-140.888
-140.334
-139.889
-139.555
-139.34
-139.243
-139.246
-139.334
-139.498
-139.735
-140.025
-140.353
-140.726
-141.14
-141.574
-142.011
-142.443
-142.86
-143.248
-143.598
-143.908
-144.177
-144.408
-144.605
-144.777
-144.925
-145.049
-145.158
-145.265
-145.375
-145.488
-145.608
-145.733
-145.851
-145.937
-145.951
-145.835
-145.518
-144.897
14477.4
17354.9
17364.4
16115.8
16234.8
17029.6
18784.9
28752.8
28379
25300.2
17753.5
11326.3
3044.92
-125.46
-150.498
-150.455
-151.315
-151.33
-150.95
-150.369
-149.703
-149.098
-148.574
-148.142
-147.807
-147.579
-147.455
-147.424
-147.472
-147.593
-147.788
-148.034
-148.317
-148.646
-149.014
-149.401
-149.795
-150.189
-150.57
-150.928
-151.259
-151.56
-151.83
-152.067
-152.273
-152.454
-152.614
-152.75
-152.868
-152.982
-153.095
-153.209
-153.325
-153.444
-153.558
-153.647
-153.679
-153.61
-153.389
-152.936
8879.16
11699.9
11644
11170
12669.4
12592.5
16404.9
15374.5
25409.8
17463.9
14563.8
8553.65
795.114
-157.872
-156.954
-159.075
-159.632
-159.561
-159.159
-158.582
-157.953
-157.391
-156.898
-156.483
-156.153
-155.919
-155.776
-155.716
-155.73
-155.815
-155.971
-156.176
-156.419
-156.707
-157.032
-157.377
-157.73
-158.085
-158.432
-158.763
-159.074
-159.36
-159.618
-159.85
-160.059
-160.248
-160.418
-160.564
-160.691
-160.811
-160.927
-161.038
-161.148
-161.257
-161.359
-161.441
-161.477
-161.439
-161.303
-161.051
1750.13
6280.66
6328.57
6802.37
8604.3
7384.02
5567.89
4348.63
15949.5
14747.2
11035.8
5874.6
97.7844
-172.692
-166.303
-167.723
-167.972
-167.838
-167.435
-166.856
-166.297
-165.777
-165.316
-164.92
-164.6
-164.364
-164.205
-164.123
-164.11
-164.165
-164.287
-164.454
-164.659
-164.911
-165.197
-165.503
-165.817
-166.137
-166.452
-166.757
-167.045
-167.313
-167.559
-167.784
-167.987
-168.171
-168.341
-168.493
-168.628
-168.755
-168.873
-168.982
-169.083
-169.178
-169.264
-169.329
-169.354
-169.322
-169.231
-169.185
-1409.58
-201.985
38.9905
-234.488
-258.073
-102.218
-234.281
2466.88
5439.21
10565.6
7749.2
3321.59
-128.785
-167.076
-175.604
-176.156
-176.366
-176.193
-175.79
-175.249
-174.738
-174.262
-173.833
-173.459
-173.153
-172.917
-172.748
-172.65
-172.615
-172.644
-172.736
-172.869
-173.041
-173.259
-173.51
-173.779
-174.058
-174.345
-174.631
-174.909
-175.175
-175.425
-175.658
-175.873
-176.068
-176.247
-176.412
-176.558
-176.691
-176.818
-176.938
-177.044
-177.136
-177.217
-177.283
-177.325
-177.329
-177.277
-177.159
-176.986
-1557.12
-1790.06
-1814.49
-1765.21
-1703.09
-1345.49
-929.518
-920.771
2619.09
5575.83
4761.19
1282.04
-174.644
-184.863
-184.351
-184.787
-184.847
-184.648
-184.224
-183.754
-183.293
-182.855
-182.458
-182.108
-181.817
-181.582
-181.409
-181.299
-181.247
-181.255
-181.319
-181.421
-181.565
-181.753
-181.97
-182.205
-182.452
-182.709
-182.968
-183.22
-183.465
-183.697
-183.916
-184.119
-184.305
-184.477
-184.635
-184.776
-184.904
-185.024
-185.135
-185.233
-185.317
-185.384
-185.43
-185.449
-185.428
-185.35
-185.189
-184.892
-1750.3
-1772.11
-1788.64
-1769.22
-1719.55
-1552.86
-1379.65
-1468.33
-788.018
2324.21
2296.8
35.2125
-188.493
-192.468
-193.115
-193.439
-193.431
-193.214
-192.801
-192.382
-191.962
-191.563
-191.197
-190.872
-190.594
-190.364
-190.191
-190.073
-190.008
-189.998
-190.038
-190.114
-190.233
-190.393
-190.579
-190.783
-191.001
-191.231
-191.463
-191.692
-191.916
-192.13
-192.334
-192.525
-192.701
-192.864
-193.015
-193.15
-193.271
-193.384
-193.487
-193.574
-193.643
-193.695
-193.724
-193.723
-193.683
-193.589
-193.422
-193.169
-1915.1
-1848.1
-1848.42
-1805.63
-1774.14
-1687.76
-1445.18
-3368.49
-1770.23
482.224
559.987
-51.3898
-212.969
-201.579
-202.206
-202.199
-202.139
-201.884
-201.509
-201.133
-200.756
-200.394
-200.058
-199.757
-199.493
-199.271
-199.099
-198.975
-198.901
-198.876
-198.893
-198.948
-199.046
-199.18
-199.338
-199.514
-199.706
-199.91
-200.117
-200.324
-200.528
-200.726
-200.915
-201.093
-201.259
-201.413
-201.555
-201.682
-201.798
-201.904
-201.998
-202.076
-202.135
-202.173
-202.188
-202.172
-202.122
-202.03
-201.898
-201.754
-1940.2
-1943.39
-1924.69
-1867.64
-1824.02
-1790.29
-1986.28
-4348.85
-1944.9
-406.626
-451.364
-171.751
-205.534
-211.372
-211.093
-211.081
-210.974
-210.683
-210.362
-210.023
-209.681
-209.353
-209.046
-208.767
-208.519
-208.307
-208.137
-208.011
-207.93
-207.891
-207.891
-207.929
-208.009
-208.119
-208.25
-208.401
-208.568
-208.749
-208.934
-209.12
-209.305
-209.486
-209.66
-209.826
-209.981
-210.125
-210.259
-210.379
-210.487
-210.587
-210.674
-210.743
-210.794
-210.826
-210.835
-210.816
-210.767
-210.687
-210.583
-210.473
-1965.74
-1959
-1948.97
-1913.78
-1883.4
-1838.08
-2706.45
-3829.01
-1752.99
-823.177
-814.396
-221.112
-222.239
-220.547
-220.202
-220.086
-219.937
-219.649
-219.353
-219.049
-218.743
-218.446
-218.166
-217.909
-217.676
-217.474
-217.309
-217.184
-217.097
-217.048
-217.033
-217.057
-217.12
-217.208
-217.316
-217.444
-217.59
-217.749
-217.912
-218.079
-218.246
-218.411
-218.571
-218.725
-218.868
-219.003
-219.128
-219.239
-219.341
-219.435
-219.515
-219.578
-219.622
-219.65
-219.656
-219.639
-219.596
-219.532
-219.451
-219.369
-1984.66
-1977.57
-1973.23
-1955.77
-1935.57
-1842.63
-4485.97
-2877.13
-1486.33
-1050.26
-618.936
-237.08
-230.044
-229.66
-229.378
-229.229
-229.021
-228.763
-228.5
-228.225
-227.95
-227.681
-227.425
-227.188
-226.97
-226.78
-226.621
-226.497
-226.406
-226.348
-226.324
-226.337
-226.384
-226.451
-226.538
-226.647
-226.773
-226.911
-227.055
-227.204
-227.355
-227.504
-227.651
-227.791
-227.924
-228.049
-228.165
-228.269
-228.364
-228.452
-228.526
-228.583
-228.623
-228.647
-228.654
-228.64
-228.605
-228.554
-228.492
-228.431
-1999.84
-1992.56
-1989.61
-1980.9
-1957.64
-2447.71
-3696.3
-2066.29
-1265.4
-1174.49
-99.4867
-243.054
-239.561
-239.018
-238.684
-238.517
-238.28
-238.045
-237.802
-237.554
-237.307
-237.063
-236.83
-236.61
-236.407
-236.228
-236.076
-235.954
-235.861
-235.798
-235.767
-235.771
-235.801
-235.849
-235.92
-236.011
-236.12
-236.24
-236.365
-236.497
-236.633
-236.767
-236.901
-237.029
-237.151
-237.267
-237.374
-237.47
-237.559
-237.641
-237.709
-237.761
-237.798
-237.821
-237.829
-237.818
-237.792
-237.752
-237.705
-237.658
-2012.68
-2005.16
-1999.9
-1992.18
-1964.88
-3813.58
-2558.16
-1549.15
-1122.61
-1095.94
-236.272
-248.149
-249.174
-248.393
-248.123
-247.933
-247.704
-247.487
-247.268
-247.044
-246.82
-246.598
-246.384
-246.18
-245.993
-245.824
-245.678
-245.559
-245.467
-245.401
-245.365
-245.359
-245.374
-245.407
-245.463
-245.539
-245.632
-245.735
-245.845
-245.961
-246.082
-246.203
-246.324
-246.441
-246.552
-246.658
-246.756
-246.845
-246.928
-247.005
-247.068
-247.116
-247.15
-247.172
-247.181
-247.175
-247.156
-247.126
-247.09
-247.054
-2021.81
-2018.04
-2008.51
-1985.7
-2895.1
-2857.72
-1826.01
-1209.8
-1064.53
-662.198
-264.905
-259.105
-258.4
-257.959
-257.719
-257.497
-257.298
-257.098
-256.897
-256.695
-256.491
-256.288
-256.091
-255.903
-255.729
-255.571
-255.432
-255.317
-255.226
-255.159
-255.118
-255.102
-255.105
-255.126
-255.17
-255.233
-255.312
-255.399
-255.494
-255.596
-255.703
-255.811
-255.92
-256.026
-256.127
-256.225
-256.314
-256.396
-256.473
-256.544
-256.602
-256.646
-256.678
-256.7
-256.711
-256.709
-256.696
-256.673
-256.646
-256.619
-2072.47
-2031.55
-2014.87
-2310.33
-2872.8
-2024.12
-1344.11
-976.763
-1072.32
-114.227
-269.602
-268.682
-268.092
-267.702
-267.47
-267.251
-267.06
-266.878
-266.696
-266.512
-266.325
-266.139
-265.958
-265.784
-265.623
-265.475
-265.344
-265.235
-265.146
-265.077
-265.032
-265.008
-265.001
-265.013
-265.047
-265.098
-265.163
-265.236
-265.317
-265.407
-265.5
-265.596
-265.694
-265.79
-265.882
-265.97
-266.052
-266.127
-266.199
-266.264
-266.318
-266.358
-266.388
-266.411
-266.423
-266.425
-266.416
-266.4
-266.379
-266.359
-2143.5
-2052.31
-2226.25
-2732.35
-2017.56
-1395.04
-956.826
-881.707
-807.147
-272.446
-280.554
-278.515
-277.893
-277.604
-277.361
-277.175
-277.002
-276.834
-276.666
-276.496
-276.324
-276.154
-275.987
-275.827
-275.678
-275.54
-275.418
-275.314
-275.226
-275.157
-275.109
-275.078
-275.064
-275.07
-275.093
-275.133
-275.186
-275.246
-275.316
-275.393
-275.475
-275.561
-275.648
-275.734
-275.817
-275.896
-275.97
-276.04
-276.106
-276.166
-276.214
-276.251
-276.281
-276.303
-276.317
-276.321
-276.316
-276.305
-276.29
-276.274
-4740.1
-2601.78
-2023.63
-1611.06
-1138.49
-679.069
-522.358
-855.583
-98.3757
-292.762
-289.506
-288.16
-287.847
-287.637
-287.442
-287.276
-287.119
-286.964
-286.808
-286.652
-286.494
-286.337
-286.183
-286.037
-285.899
-285.771
-285.657
-285.556
-285.471
-285.402
-285.352
-285.317
-285.298
-285.298
-285.313
-285.343
-285.384
-285.433
-285.492
-285.559
-285.63
-285.706
-285.783
-285.859
-285.934
-286.005
-286.072
-286.136
-286.198
-286.252
-286.295
-286.33
-286.358
-286.38
-286.395
-286.401
-286.4
-286.393
-286.382
-286.369
123219
128301
128265
128207
128123
128008
127853
127650
127384
127035
126578
125975
125174
124098
122632
120591
117651
113186
105748
91935.9
113044
118111
118072
118008
117915
117787
117618
117395
117105
116726
116231
115577
114708
113538
111934
109680
106394
101323
92933.9
77938.2
102897
107949
107907
107837
107737
107600
107419
107183
106876
106478
105959
105279
104380
103177
101544
99282.6
96075.3
91387
84335.4
73422.5
92781
97816.5
97771.6
97698.3
97592.8
97449.7
97260.9
97015.8
96699.7
96292.3
95766.2
95083
94189.6
93011.2
91441
89325.9
86441.8
82458.6
76899.4
69183.6
82696.1
87715
87668.4
87592.6
87483.9
87336.9
87144.1
86895.3
86576.6
86169.6
85649.2
84981.5
84121
83006.1
81553.8
79653.1
77156.3
73870
69558.6
64037.2
72643.6
77645.9
77598.5
77521.4
77411.3
77262.9
77069.3
76821
76505.5
76106.1
75601.2
74961.8
74150.5
73119
71805.3
70132.3
68005.8
65316.8
61953.4
57848.3
62624
67609.7
67562.2
67485.2
67375.2
67227.6
67035.9
66791.5
66483.3
66096.9
65613.4
65009.2
64254.3
63311.3
62135.3
60673.4
58866.3
56652.3
53976.8
50814
52637
57606.8
57559.9
57483.9
57375.6
57230.5
57042.8
56804.8
56506.8
56136.3
55677.5
55110.8
54412.4
53553.9
52502.5
51222.3
49675.9
47828.3
45651.5
43136
42682.1
47636.5
47591.1
47517.2
47411.7
47270.5
47088.3
46858.5
46572.4
46219.3
45786
45256.2
44610.8
43827.5
42882.4
41751
40410.7
38842.3
37031.7
34973.2
32757.7
37698.3
37655.3
37584.6
37482.9
37346.5
37170.9
36950.1
36676.7
36341.4
35933.1
35438.1
34840.3
34121.2
33262.2
32247.2
31065.4
29709.9
28174
26449.7
22860.7
27790.6
27752
27685.7
27588.4
27457.4
27288.9
27077.4
26816.6
26498.8
26114.6
25652.3
25097.3
24431.7
23638
22707.5
21642.8
20453.2
19137.4
17678.5
12981.6
17912.5
17882.1
17820.4
17727.3
17602
17440.6
17238.2
16989.4
16688.2
16327
15896.8
15384.2
14766.1
14020.1
13148.6
12178.5
11141
10037.2
8832.45
3076.77
8066.18
8045.92
7987.82
7899.73
7780.95
7626.75
7432.69
7195.19
6909.69
6570.46
6175.37
5722.34
5154.02
4424.64
3579.26
2746.12
2028.67
1429.08
924.151
-429.793
143.316
135.596
106.669
63.5891
11.2944
-47.8818
-112.434
-180.741
-250.853
-320.116
-382.586
-423.484
-427.39
-426.342
-426.42
-426.263
-425.221
-422.615
-422.951
-439.308
-434.063
-434.122
-434.134
-434.129
-434.122
-434.116
-434.113
-434.12
-434.147
-434.231
-434.436
-434.136
-434.485
-434.647
-434.685
-434.611
-434.429
-434.262
-434.077
-448.949
-443.906
-443.935
-443.945
-443.944
-443.943
-443.944
-443.949
-443.96
-443.975
-443.994
-444.005
-443.958
-443.998
-444.048
-444.084
-444.105
-444.115
-444.103
-444.094
-458.712
-453.77
-453.764
-453.766
-453.765
-453.765
-453.765
-453.769
-453.775
-453.784
-453.792
-453.796
-453.791
-453.802
-453.822
-453.848
-453.876
-453.9
-453.914
-453.922
-468.512
-463.594
-463.588
-463.586
-463.585
-463.585
-463.586
-463.589
-463.593
-463.598
-463.603
-463.608
-463.612
-463.621
-463.636
-463.656
-463.678
-463.699
-463.718
-463.736
-478.318
-473.408
-473.404
-473.402
-473.401
-473.401
-473.402
-473.405
-473.409
-473.413
-473.417
-473.422
-473.428
-473.437
-473.449
-473.465
-473.483
-473.503
-473.523
-473.543
-488.126
-483.219
-483.217
-483.215
-483.215
-483.215
-483.217
-483.219
-483.223
-483.227
-483.231
-483.237
-483.244
-483.252
-483.264
-483.277
-483.294
-483.311
-483.33
-483.35
-497.935
-493.028
-493.027
-493.026
-493.026
-493.027
-493.029
-493.032
-493.036
-493.04
-493.045
-493.051
-493.058
-493.066
-493.077
-493.09
-493.104
-493.12
-493.138
-493.156
-507.741
-502.836
-502.835
-502.836
-502.837
-502.839
-502.841
-502.844
-502.848
-502.852
-502.857
-502.863
-502.87
-502.879
-502.889
-502.901
-502.915
-502.929
-502.945
-502.962
-517.537
-512.639
-512.642
-512.644
-512.647
-512.649
-512.652
-512.655
-512.659
-512.664
-512.669
-512.675
-512.682
-512.69
-512.7
-512.711
-512.724
-512.737
-512.752
-512.768
-527.314
-522.44
-522.448
-522.453
-522.456
-522.46
-522.463
-522.466
-522.47
-522.475
-522.48
-522.486
-522.492
-522.5
-522.509
-522.52
-522.532
-522.544
-522.559
-522.574
38869.4
38187.7
37312
37752.8
41388.3
47292.9
54388.6
61421.2
67236.1
70971.2
72063.6
70218.2
65044.7
55453.8
37857.7
48072.4
32324.8
27544
27599.8
30705.7
35984.3
42503.6
49049.1
54485.8
57950.9
58903
57061
52163.6
43759.9
31495.4
57405.4
38457.7
27430.3
23589.7
24596
28641.5
34153.9
39782.3
44390.5
47197.4
47787.8
46013.2
41852.7
35393.5
27081.7
59465.2
47224.1
37038.6
30726.8
28363.4
29061.6
31672.8
34784.8
37346
38695.7
38490.8
36619
33119.2
28181.7
22243.2
57235
49189.8
41782.2
36109.5
32586
31044.1
30951.9
31490.4
31937.4
31789.7
30737.3
28641.9
25511.7
21502.8
16939.8
52917.3
47137.8
41545.1
36753.8
33084.8
30572.9
28972.4
27892.2
26905.5
25662.3
23923.3
21568.1
18593.4
15100.9
11280.6
47100.6
42736.9
38348.5
34288.5
30785.3
27916
25584
23602.7
21735.7
19766.3
17534.7
14949.5
11981.3
8673.46
5183.5
40226.2
36797.7
33250.5
29784.4
26561.2
23640.7
21004.8
18571.6
16221.6
13823.7
11243
8389.45
5288.51
2181.21
115.929
32613
29823.5
26877.9
23896.3
20972.3
18165.7
15489.4
12902.3
10305.2
7583.58
4695.73
1891.75
9.08968
-385.945
-373.986
24479.6
22139.3
19646.1
17070.8
14468
11874.7
9249.89
6555.54
3772.69
1422.55
-232.336
-390.029
-383.395
-386.846
-386.223
16016.8
14042.5
11923.6
9652.33
7278.01
4765.14
2381.52
692.902
-401.777
-391.658
-394.134
-396.665
-395.858
-395.867
-395.942
7399.63
5597.64
3723.71
1961.07
680.345
-387.621
-412.167
-401.907
-405.51
-406.159
-405.424
-405.56
-405.616
-405.67
-405.725
253.976
-350.775
-427.045
-414.069
-411.857
-414.419
-416.031
-414.957
-415.071
-415.217
-415.281
-415.345
-415.392
-415.433
-415.48
-423.171
-424.711
-425.505
-425.177
-424.526
-424.654
-424.799
-424.842
-424.917
-424.987
-425.044
-425.099
-425.149
-425.194
-425.237
-434.103
-434.348
-434.438
-434.485
-434.502
-434.549
-434.593
-434.638
-434.697
-434.757
-434.811
-434.862
-434.91
-434.955
-434.997
-444.13
-444.191
-444.222
-444.261
-444.299
-444.34
-444.384
-444.43
-444.48
-444.532
-444.582
-444.63
-444.676
-444.719
-444.76
-453.943