/*--------------------------------*- C++ -*----------------------------------*\
| =========                 |                                                 |
| \\      /  F ield         | OpenFOAM: The Open Source CFD Toolbox           |
|  \\    /   O peration     | Version:  v1912                                 |
|   \\  /    A nd           | Website:  www.openfoam.com                      |
|    \\/     M anipulation  |                                                 |
\*---------------------------------------------------------------------------*/
FoamFile
{
    version     2.0;
    format      ascii;
    class       volScalarField;
    location    "46";
    object      p_rgh;
}
// * * * * * * * * * * * * * * * * * * * * * * * * * * * * * * * * * * * * * //

dimensions      [1 -1 -2 0 0 0 0];


internalField   nonuniform List<scalar> 
20320
(
434515
434591
434617
434669
434740
434828
434930
435045
435169
435299
435433
435566
435697
435821
435937
436040
436130
436204
436259
436291
434402
434501
434536
434590
434662
434751
434854
434969
435094
435224
435358
435491
435622
435746
435861
435963
436051
436120
436171
436203
434178
434317
434352
434407
434480
434569
434672
434787
434911
435042
435175
435308
435438
435561
435674
435775
435861
435930
435979
436011
433869
434048
434082
434136
434209
434297
434400
434514
434637
434767
434899
435030
435158
435279
435391
435490
435575
435643
435694
435728
433487
433701
433735
433788
433859
433946
434047
434160
434281
434409
434539
434669
434794
434913
435022
435119
435202
435270
435321
435359
433043
433286
433319
433371
433440
433525
433624
433734
433853
433977
434105
434231
434354
434470
434576
434670
434750
434816
434868
434908
432546
432814
432846
432896
432962
433044
433139
433245
433360
433480
433603
433726
433845
433956
434058
434148
434225
434289
434339
434382
432006
432294
432324
432371
432434
432512
432602
432702
432811
432925
433042
433158
433271
433376
433472
433557
433629
433688
433737
433780
431433
431735
431763
431807
431865
431937
432020
432113
432214
432319
432427
432533
432637
432733
432820
432896
432961
433014
433059
433101
430836
431148
431173
431212
431264
431328
431402
431485
431575
431668
431762
431856
431945
432028
432102
432165
432218
432262
432301
432340
430223
430540
430561
430595
430639
430694
430757
430826
430901
430977
431054
431128
431198
431260
431314
431359
431394
431424
431453
431486
429604
429921
429938
429965
430000
430043
430091
430144
430199
430254
430306
430354
430395
430429
430453
430468
430477
430484
430497
430518
428986
429299
429311
429330
429355
429383
429415
429446
429477
429504
429524
429537
429539
429530
429511
429482
429449
429420
429406
429405
428378
428683
428690
428699
428711
428724
428735
428742
428743
428735
428715
428680
428629
428561
428478
428383
428286
428198
428139
428100
427787
428080
428080
428080
428078
428073
428061
428040
428006
427956
427886
427791
427670
427521
427346
427152
426951
426768
426632
426525
427219
427497
427491
427480
427464
427439
427402
427349
427277
427178
427049
426881
426671
426413
426109
425766
425403
425056
424781
424548
426680
426940
426927
426906
426874
426829
426766
426681
426566
426415
426218
425965
425646
425250
424771
424211
423591
422962
422421
421935
426173
426414
426395
426363
426317
426251
426163
426044
425886
425680
425412
425065
424621
424058
423356
422496
421480
420360
419285
418244
425702
425923
425897
425856
425795
425711
425598
425447
425249
424989
424649
424207
423632
422885
421919
420676
419096
417152
414958
412531
425270
425468
425438
425388
425314
425213
425078
424899
424663
424355
423950
423420
422720
421793
420556
418888
416609
413455
409066
402833
126970
127063
125258
123249
121660
120490
119598
118689
117712
117175
118475
121728
112656
106379
104949
105092
106152
127033
334326
274007
196310
140081
100763
74196.7
56996
46167.7
39519.2
35414.2
33015.8
31700.7
31035.4
30780.6
30501.5
30172.6
30867
30352
29832.3
29942.5
30075.5
30284.9
29914.2
30036.1
30210.5
30278.5
31605.2
32076.8
32187.5
31576.9
31580.1
32511.4
32615.4
32630
32650
32955
31587
31530.8
31771
32605.5
32779.9
30681.8
125000
126660
125193
123434
122044
121171
120324
119385
118634
117997
118792
122440
110538
103447
101992
102201
102747
108044
256346
235970
182719
134255
97840
72571.8
56006.7
45519.5
39024.7
35112.4
32877.2
31630.3
30958.5
30665.8
30405.1
30558.9
30676.6
30728.8
30871.2
31030.5
31150.2
31233.3
31362.5
31511
31751.1
32192.4
32236.5
32197.3
32408.8
32647.3
32863.4
32810.6
32818.1
32778.9
32636.2
32597.4
32836.6
33133.1
33062.7
32613.6
32425.9
32648.2
124314
125527
123477
122183
122531
121386
120597
119807
119004
116289
118130
119813
114862
102270
102052
102046
102413
130012
208854
203662
166659
125882
92864.2
69402.7
53973.5
44229.8
38237.2
34637.3
32567.2
31422.8
30844.6
30542.9
30411.4
30530.6
30658.4
30722.2
30901.9
31058.8
31165.5
31224.5
31365
31526
31759.6
32144.8
32325.5
32341.9
32440
32673.9
32885.5
32924.8
32914.5
32861.9
32754.1
32686.1
32883.5
33074.1
33086.1
32812.6
32610.7
32665
124978
127974
126412
124383
122036
119945
119353
119926
119173
114414
115572
118693
117749
115679
101923
101896
103385
138140
168870
170945
145685
112624
83986.9
63371.4
50009.8
41694.1
36666.3
33687.9
31990.5
31080.4
30640.7
30456.8
30411.4
30526.5
30687.7
30804.5
30964.7
31100.7
31191.6
31254.5
31362.7
31512.4
31740.9
32060.6
32274.7
32375.5
32509.3
32706.4
32877.3
32950.2
32963.5
32922.7
32847.8
32824.2
32934.5
33056.5
33065.8
32958.7
32869.8
32826.4
130023
127637
126729
122842
120886
116247
115263
118361
118993
113464
118515
118166
118137
106022
98887.9
101681
121740
125790
138951
139880
121312
94632.3
70920.6
54207.6
43934.7
37779
34216.2
32179.3
31059.3
30507.1
30287.5
30258
30325.6
30481.9
30684.6
30848.1
31008.7
31130.1
31204.1
31256.2
31340
31469.1
31678
31964.9
32194.3
32353.4
32525.6
32713.8
32855.2
32945.9
32987.4
32970
32928.6
32932.8
32995.2
33055.2
33086
33120.3
33126.6
33041.8
128494
129405
127810
125832
123928
122627
121684
116465
115953
117993
118570
117946
106370
93555.8
96958.9
115643
116950
113518
115451
111617
95071.6
72343.6
53239.1
40917.9
35169.7
32078.2
30436.1
29532.3
29027.9
28932.8
29088
29402.7
29773.9
30160.7
30638
30864.7
31051.5
31166.6
31221.7
31251.4
31312.6
31410.8
31598
31872.7
32092.6
32293
32525.6
32722.2
32815.1
32919
33000.2
33008.5
33006.8
33059.1
33078.5
33048.3
33102.6
33337.3
33469.6
33370.2
129234
130607
128621
126420
123813
122209
121158
120368
110493
114117
118739
118707
97121.9
92684.6
92762.2
121527
110179
102139
96075.7
86334.8
67451.5
43686.5
19211.9
2352.25
58.3177
41.1631
30.5126
23.3966
18.6685
15.2655
12.882
11.6143
10.9376
10.9238
54.6401
196.862
416.774
720.223
1142.46
1693.87
2411.92
3387.41
4898.12
7654.68
8205.67
8145.5
10370.9
13792.8
13489.1
13829.6
14781.7
13067.9
10329.8
10857.4
12063.1
10921.7
9175.23
14286.8
18675.3
14543.1
134696
131977
127578
126630
124309
107967
120433
119905
119129
94908.7
119070
119598
87557
90885.1
122591
115485
103500
91806.6
79912.8
63595.9
25770.5
117.292
88.9516
75.3616
57.4748
44.0286
34.4325
27.2819
22.0586
18.2277
15.3823
13.2473
11.4629
9.04568
5.73586
4.96423
5.28109
5.12786
4.89973
4.79598
4.74753
4.69698
4.6669
4.49825
4.24752
4.07687
3.99437
3.81783
3.8881
3.7684
4.2364
4.51379
4.5383
4.51988
4.49593
4.41676
3.16036
-2.58338
1.96392
2.11651
133891
131574
130917
125966
122587
122713
115061
119504
115192
112538
119660
113441
76289.9
81998.9
121986
110347
97099.8
82702.1
66348
21840.9
103.433
90.6105
76.3921
61.2003
48.7406
38.3198
30.5483
24.6954
20.3312
17.0656
14.5884
12.6795
11.0673
9.20598
6.70889
5.12945
4.65105
4.41455
4.26857
4.1977
4.13216
4.0338
3.80252
3.41956
3.2026
3.24901
3.29868
3.18878
3.22075
3.30626
3.65647
4.05799
4.41613
4.56543
4.4654
4.26194
3.63133
1.67504
2.38185
3.37986
134312
135727
131908
124269
128163
124500
81023.2
92414.2
69304.5
120371
118122
65597.5
70380.2
115255
117306
105480
91127.8
74712.2
46023.5
97.3746
80.6551
72.2022
60.2483
49.4822
40.5437
32.935
26.9864
22.3683
18.8147
16.0767
13.9392
12.2312
10.754
9.14088
7.09272
5.38049
4.47388
4.03732
3.82587
3.72391
3.64813
3.54456
3.36325
3.09431
2.91224
2.89292
2.92074
2.88556
2.91408
3.02133
3.27786
3.60188
3.88533
4.02666
3.98716
3.80344
3.27918
2.25652
2.69867
3.7631
139501
137946
134116
133199
130290
127146
69229.8
66755.1
67839.1
120623
87240.8
62283.3
63735
125577
113916
101074
85818.4
67165.4
161.713
58.8295
61.2057
54.4755
46.7994
39.4427
33.1217
27.7322
23.3677
19.8845
17.1201
14.9213
13.1486
11.6807
10.3699
8.96423
7.24657
5.59672
4.46517
3.82341
3.49317
3.32565
3.21699
3.10445
2.94651
2.74541
2.59622
2.56016
2.57567
2.57451
2.60904
2.71346
2.91215
3.162
3.38941
3.51929
3.51341
3.37775
3.03928
2.57651
2.95164
4.02214
144560
139975
137864
135338
132570
129688
98979.1
66747.2
66688.5
121606
59416.1
60020.2
75583.8
121530
110751
97379.1
81142
22976.4
46.5564
49.9833
45.7456
41.2354
36.1277
31.1938
26.8655
23.1429
20.0435
17.5022
15.4226
13.7144
12.2899
11.0606
9.9153
8.68041
7.21002
5.7008
4.50127
3.71663
3.26176
3.00896
2.85164
2.72016
2.57611
2.41722
2.29684
2.25586
2.26182
2.27234
2.3109
2.40376
2.5585
2.75053
2.92831
3.03752
3.04954
2.96814
2.79059
2.65491
3.09779
4.20058
147092
141706
140260
135606
117996
115493
130526
90239.8
124860
121160
54937.8
58707.2
115382
118937
108226
94497.2
76765.2
110.409
40.5475
38.2391
34.4538
31.2796
27.9239
24.7091
21.8364
19.327
17.1805
15.3687
13.839
12.5398
11.4151
10.3981
9.40479
8.31618
7.04079
5.69036
4.51449
3.65581
3.10141
2.76442
2.55116
2.39416
2.25282
2.1192
2.01991
1.97782
1.97549
1.9889
2.02646
2.10215
2.21984
2.36253
2.49393
2.57709
2.59627
2.56301
2.5112
2.58555
3.12177
4.2582
149647
145140
142840
122540
132271
136162
133306
131861
130022
93152.2
52299.3
52855.7
125882
117511
106557
92294.6
27755.5
30.2048
32.7224
28.8794
26.134
23.9214
21.7942
19.7822
17.949
16.3042
14.8457
13.5684
12.4506
11.4665
10.577
9.73101
8.86649
7.90359
6.78763
5.5873
4.48014
3.60232
2.98341
2.57682
2.31085
2.12461
1.97872
1.85748
1.76885
1.72394
1.7155
1.72687
1.75713
1.81326
1.89745
1.99594
2.08379
2.13911
2.15768
2.16057
2.20124
2.41442
3.03197
4.21028
150564
147745
141753
143810
141552
136681
133846
133816
131085
48853.7
49757.8
68017.7
125967
117254
105772
90424.5
108.367
26.9928
24.9284
21.9054
20.0014
18.5727
17.3171
16.1451
15.0431
14.002
13.0239
12.1201
11.2922
10.5299
9.80793
9.0888
8.32698
7.46925
6.48278
5.4166
4.39572
3.53659
2.88784
2.43292
2.12338
1.90864
1.75179
1.63165
1.54505
1.49608
1.48051
1.4857
1.50448
1.53972
1.59164
1.65008
1.69829
1.72507
1.73714
1.76299
1.86621
2.16888
2.84778
4.04542
152856
150092
144816
146320
143221
140261
139642
137445
126201
45708.3
48728.6
114313
127243
117744
105760
66495.8
20.4043
23.1979
18.9601
16.7576
15.5264
14.7256
14.0988
13.5145
12.9194
12.2929
11.6416
10.9887
10.3525
9.73579
9.12419
8.49218
7.80768
7.03507
6.15529
5.20461
4.27369
3.45627
2.80487
2.32255
1.98029
1.73971
1.56756
1.44101
1.3503
1.29433
1.26964
1.26499
1.27004
1.28334
1.30485
1.32705
1.33904
1.33819
1.33822
1.3745
1.51468
1.86989
2.58381
3.79161
116055
151650
149875
148842
143519
145183
143146
140772
104058
43035.6
44240.7
136062
128657
118860
106144
12571.9
22.4655
17.4383
14.3366
12.9293
12.2671
11.9649
11.7956
11.621
11.3729
11.028
10.5965
10.1096
9.59718
9.07156
8.52886
7.95464
7.32739
6.62255
5.8293
4.97649
4.13136
3.3668
2.73151
2.23883
1.87476
1.61178
1.42235
1.28459
1.18491
1.11868
1.08232
1.06511
1.05459
1.04645
1.03978
1.02918
1.00901
0.981655
0.965693
1.00137
1.15689
1.53482
2.25979
3.4537
114259
153865
153103
134587
130329
143642
146766
145125
75652.7
41751
42474.3
139489
130839
120542
107162
60.2186
15.0167
12.9315
10.8712
10.0901
9.8877
9.96632
10.1237
10.2303
10.2164
10.0618
9.77908
9.40476
8.97548
8.50991
8.0127
7.4783
6.89455
6.24456
5.52253
4.75249
3.98536
3.27668
2.6681
2.17745
1.80025
1.51898
1.31213
1.16022
1.04835
0.968935
0.918441
0.886563
0.859865
0.831217
0.798978
0.76023
0.711703
0.65951
0.625304
0.650946
0.804692
1.18215
1.89548
3.06019
121033
157334
150203
133581
142003
152013
150433
148895
37661.2
39008.6
100412
141139
133174
122698
69054.9
4.34172
12.7548
9.51077
8.29918
7.99103
8.13631
8.48856
8.8668
9.15634
9.29549
9.26829
9.08958
8.7991
8.43437
8.01715
7.55696
7.05532
6.50909
5.90645
5.24463
4.54513
3.84713
3.19281
2.61604
2.13509
1.75206
1.45665
1.2333
1.06592
0.939626
0.845066
0.778321
0.730594
0.687741
0.640383
0.586185
0.523395
0.451067
0.376539
0.322638
0.33177
0.470348
0.828716
1.51134
2.62811
162633
159860
151148
157670
156605
155039
153874
64242.3
35126.1
37961.6
139147
144259
135845
125131
17475.3
16.1007
9.28934
7.12027
6.4171
6.44094
6.82902
7.35814
7.86916
8.26901
8.5011
8.5558
8.45389
8.23307
7.92759
7.55916
7.13805
6.67156
6.16342
5.60568
4.99781
4.35983
3.72314
3.11978
2.57631
2.10999
1.72645
1.42101
1.18272
0.999635
0.857914
0.747005
0.662958
0.598948
0.540537
0.47666
0.404271
0.322381
0.23076
0.137012
0.0637218
0.0520877
0.165734
0.490624
1.12594
2.17815
163744
161814
117591
160127
155019
158140
149768
34275.7
34568.7
34209.6
154777
147418
138980
128141
226.62
8.21056
6.75151
5.33785
5.03364
5.28953
5.83072
6.45459
7.03493
7.48812
7.76368
7.87776
7.84302
7.68833
7.44225
7.12331
6.74291
6.3146
5.8477
5.3361
4.77955
4.19753
3.61612
3.05992
2.54947
2.1006
1.72079
1.40888
1.15793
0.959707
0.802404
0.674867
0.57348
0.493235
0.420314
0.342393
0.255724
0.159469
0.0534354
-0.055563
-0.146559
-0.18076
-0.0984601
0.181794
0.755143
1.72726
150271
163458
111807
162434
147937
161273
116876
33477.9
33880.4
45524.3
157432
151013
142614
124910
11.8055
7.35075
4.90508
4.00871
3.99872
4.41525
5.04035
5.703
6.30733
6.76762
7.07428
7.23343
7.2525
7.15522
6.96676
6.70383
6.3739
5.98958
5.56374
5.09461
4.58526
4.05467
3.52453
3.01236
2.53441
2.10496
1.73223
1.41745
1.15655
0.944643
0.772301
0.62868
0.510494
0.414657
0.328499
0.239024
0.141634
0.0355743
-0.0797419
-0.199354
-0.30477
-0.360769
-0.312838
-0.0852058
0.413322
1.2881
162024
165263
125589
164975
159713
164631
138288
33358.3
33602.7
121020
161683
155044
146736
53365.1
1.00146
5.47762
3.40168
3.01731
3.21205
3.73038
4.39037
5.06247
5.64985
6.10436
6.4297
6.62196
6.68493
6.63887
6.50455
6.29393
6.01076
5.67215
5.29619
4.87814
4.41747
3.93288
3.44655
2.9735
2.527
2.119
1.75699
1.4431
1.17579
0.952455
0.766434
0.60787
0.473891
0.36349
0.265476
0.16646
0.0615065
-0.050121
-0.169927
-0.294829
-0.409743
-0.48408
-0.469723
-0.298645
0.113643
0.873344
140156
106615
120815
167319
134391
167843
164896
31757.4
33279
163007
165872
159521
151160
11270.6
11.5517
3.53194
2.50402
2.29283
2.6086
3.17727
3.84325
4.49979
5.05368
5.4995
5.83326
6.04782
6.14526
6.14169
6.05357
5.88992
5.65321
5.36289
5.03509
4.66237
4.24811
3.81388
3.37699
2.94492
2.52825
2.14049
1.79015
1.48054
1.21088
0.979701
0.782613
0.611014
0.462917
0.339122
0.230375
0.123435
0.013394
-0.100303
-0.220104
-0.34493
-0.463028
-0.549146
-0.562998
-0.447278
-0.129447
0.491348
97534.3
141311
170353
169206
58839
170119
171875
47881.4
28532
178390
170843
164416
156135
27.6304
2.59168
2.63507
1.77526
1.75968
2.14039
2.72072
3.38654
3.99164
4.51603
4.94827
5.28308
5.51098
5.63456
5.66602
5.61796
5.49647
5.30231
5.05638
4.77267
4.4439
4.07637
3.68904
3.29502
2.9013
2.51991
2.16199
1.83108
1.52962
1.25951
1.0227
0.817302
0.63571
0.475934
0.340309
0.22171
0.107952
-0.00544614
-0.118718
-0.234652
-0.353938
-0.468098
-0.557053
-0.58897
-0.520347
-0.29951
0.153811
168944
158644
106202
55956
57455.4
173247
177334
15670.7
49109
178394
175493
169483
149816
3.05808
3.97535
1.85458
1.29743
1.36904
1.77087
2.34794
2.97707
3.53879
4.03127
4.44659
4.77654
5.01062
5.15408
5.21411
5.19988
5.11466
4.95844
4.75349
4.51061
4.22248
3.89733
3.55252
3.19955
2.84443
2.49724
2.16622
1.8553
1.56983
1.31176
1.07958
0.870991
0.681602
0.51198
0.366084
0.238418
0.11837
0.0024643
-0.108821
-0.217973
-0.326903
-0.429812
-0.511353
-0.547601
-0.509411
-0.37371
-0.121006
153949
97155.6
174217
164682
148900
176294
128455
4517.54
130975
183657
179945
174784
69780.4
-3.78251
2.6068
1.18655
0.937702
1.07203
1.47426
2.05396
2.61303
3.13286
3.59377
3.99014
4.30975
4.54589
4.70434
4.78662
4.80001
4.74511
4.62283
4.45582
4.25014
3.99884
3.71232
3.40685
3.09223
2.77274
2.45709
2.15299
1.86451
1.59701
1.35078
1.12542
0.922608
0.7383
0.56884
0.416973
0.281173
0.154778
0.036373
-0.0723623
-0.173235
-0.26855
-0.354451
-0.419218
-0.444873
-0.412262
-0.321157
-0.275849
2474.29
135364
146654
112504
115796
83617.4
-57.2477
2643.91
171175
187599
184782
180355
18087.6
9.95736
1.4296
0.876869
0.666953
0.840789
1.24297
1.78429
2.29484
2.77181
3.20013
3.57446
3.88007
4.11657
4.28494
4.38336
4.41855
4.38883
4.29721
4.16475
3.99207
3.77407
3.52338
3.25458
2.97528
2.68824
2.40212
2.12436
1.8581
1.60827
1.37559
1.1608
0.965739
0.786499
0.621589
0.474808
0.341914
0.215004
0.0956627
-0.010496
-0.103079
-0.183858
-0.249951
-0.292123
-0.295989
-0.244094
-0.125355
0.0470248
2505.62
-1604.76
-1629.18
-1579.91
-1517.79
-1160.19
-744.216
-735.469
187922
190878
190064
186585
433.848
0.439954
0.951276
0.51529
0.455554
0.654174
1.07856
1.54844
2.00975
2.44723
2.8449
3.19459
3.48595
3.72101
3.89398
4.00365
4.05582
4.04732
3.98343
3.88138
3.73738
3.54981
3.33257
3.09752
2.85034
2.59322
2.33497
2.0823
1.8374
1.60524
1.38707
1.18381
0.997672
0.825936
0.667874
0.526446
0.398534
0.278765
0.167651
0.0691792
-0.0141171
-0.0810321
-0.12783
-0.14673
-0.125763
-0.0473345
0.113961
0.411029
-275.359
3269.76
-1594.82
-1574.87
-1525.83
-1359.14
-1168.98
47692.8
192932
196044
196017
193755
5.22763
1.25182
0.604858
0.281316
0.289049
0.506069
0.919201
1.3387
1.75844
2.15678
2.52315
2.8477
3.12563
3.35577
3.52923
3.647
3.71222
3.72181
3.68265
3.60656
3.48716
3.32745
3.14122
2.93704
2.71905
2.48959
2.25748
2.02841
1.80413
1.58962
1.38616
1.19492
1.01872
0.855693
0.705346
0.570392
0.448744
0.335819
0.233177
0.146337
0.0771013
0.0255976
-0.00378942
-0.0031186
0.037517
0.131505
0.297727
0.551262
-1333.96
3777.94
6.47394
-1603.35
-1571.84
-1383.61
-1242.9
161886
200518
202771
202848
100603
-10.6806
0.709367
0.0824622
0.0894193
0.1492
0.404353
0.77897
1.15483
1.5326
1.89428
2.23061
2.53162
2.79549
3.01745
3.18963
3.31288
3.38755
3.41262
3.39508
3.3404
3.242
3.1079
2.95029
2.7742
2.58274
2.37875
2.17105
1.96428
1.75987
1.5626
1.3737
1.19489
1.02936
0.875558
0.733409
0.605796
0.490707
0.384581
0.290203
0.212569
0.153515
0.114882
0.100668
0.115982
0.166632
0.257882
0.39076
0.533877
-1457.05
-1732.38
-1713.68
-1656.62
-1613.01
-1500.51
-1775.27
206662
209066
210604
210559
27796.3
5.47715
-0.360846
-0.0826403
-0.0704842
0.0364936
0.327878
0.648904
0.988227
1.32941
1.65741
1.96515
2.2436
2.49223
2.70434
2.87397
2.9996
3.08088
3.11933
3.11993
3.08227
3.00228
2.89208
2.76057
2.60983
2.44245
2.26196
2.07708
1.89125
1.70573
1.52511
1.35061
1.18446
1.02991
0.885588
0.752088
0.63223
0.523809
0.424263
0.337244
0.26767
0.216809
0.18517
0.176189
0.194888
0.244267
0.323479
0.42806
0.537507
-1662.01
-1739.11
-1729.08
-1693.89
-1537.31
-1603.32
89716.1
216060
218136
219066
219075
524.47
-2.3497
-0.657708
-0.313523
-0.197121
-0.0475569
0.23962
0.535943
0.83999
1.14582
1.44255
1.72322
1.98017
2.21339
2.4149
2.58003
2.70536
2.79171
2.84145
2.85604
2.83163
2.76873
2.68103
2.57291
2.4447
2.29909
2.14042
1.97682
1.81044
1.6427
1.47806
1.31771
1.1643
1.02076
0.886035
0.761448
0.649541
0.547743
0.45437
0.373978
0.311304
0.266517
0.239381
0.23278
0.250267
0.292631
0.357157
0.438224
0.519739
-1751.15
-1748.65
-1744.31
-1579
-1541.62
-1613.71
212427
226049
227440
227876
219933
-8.15335
-1.11752
-0.733495
-0.451704
-0.302754
-0.0941105
0.163048
0.426297
0.701277
0.976589
1.24561
1.50137
1.73871
1.95657
2.1468
2.30581
2.42971
2.5201
2.57808
2.60243
2.58891
2.54266
2.47569
2.38804
2.27966
2.15357
2.01504
1.87114
1.72271
1.57172
1.42234
1.27574
1.13493
1.00233
0.87719
0.761607
0.657651
0.562338
0.474827
0.400444
0.343485
0.303283
0.278984
0.272662
0.286807
0.321161
0.372275
0.434428
0.495837
-1756.97
-1754.26
-1751.48
-1599.87
-1719.52
43709.7
234430
236060
236861
236952
80874.2
-4.92739
-1.43429
-0.891705
-0.557887
-0.39114
-0.153448
0.0810868
0.323923
0.571922
0.819193
1.06324
1.29636
1.51643
1.719
1.89798
2.05045
2.17262
2.26521
2.32802
2.35912
2.35559
2.32552
2.27685
2.2066
2.11543
2.00676
1.88668
1.76082
1.62896
1.49374
1.35887
1.22548
1.09687
0.974966
0.859383
0.752811
0.656618
0.567528
0.485629
0.416852
0.364851
0.328076
0.305151
0.297752
0.307812
0.334501
0.374105
0.421561
0.468012
-1760.31
-1757.66
-1752.41
-1743.16
-1717.39
231750
244933
245942
246369
246395
5202.57
-0.657591
-1.68233
-0.901896
-0.631775
-0.441413
-0.212555
0.00438123
0.223979
0.447292
0.671001
0.893131
1.10712
1.31103
1.49874
1.66706
1.81298
1.93244
2.0248
2.09027
2.12667
2.13283
2.11778
2.08437
2.02853
1.95223
1.85925
1.75609
1.6466
1.53007
1.40974
1.28858
1.16774
1.05082
0.939278
0.833092
0.735323
0.646559
0.56341
0.486973
0.423512
0.37589
0.341765
0.319442
0.310398
0.31624
0.335917
0.3659
0.401852
0.437341
-1759.95
-1744.08
-1751.49
-1728.68
133517
254166
255197
255814
255959
253138
-7.88173
-2.08189
-1.37658
-0.935433
-0.695516
-0.473604
-0.274628
-0.0744564
0.126569
0.328274
0.532232
0.73523
0.93223
1.12034
1.29439
1.45265
1.59135
1.70635
1.79708
1.8644
1.90536
1.92083
1.91861
1.89714
1.8533
1.79019
1.71167
1.62404
1.5294
1.42704
1.32067
1.21239
1.10342
0.997553
0.895906
0.798882
0.70954
0.627718
0.550271
0.479284
0.420968
0.377261
0.345207
0.323021
0.312166
0.314135
0.327839
0.350095
0.377235
0.404316
-1087.7
-1687.98
-1748.14
22077.8
263855
264703
265383
265751
265655
70472.3
-2.87483
-1.95475
-1.36426
-0.974861
-0.742344
-0.523375
-0.333034
-0.150782
0.0314509
0.215662
0.402941
0.588853
0.769917
0.943307
1.1048
1.25276
1.38306
1.49262
1.58165
1.65018
1.69511
1.71898
1.72647
1.71397
1.68067
1.62969
1.56466
1.49122
1.40998
1.32073
1.22724
1.13089
1.03313
0.937646
0.845393
0.757251
0.675925
0.600527
0.528582
0.463122
0.409866
0.369663
0.339169
0.316845
0.304308
0.302942
0.311677
0.32774
0.348066
0.368906
-1487.89
-1775.71
10713.7
273873
274588
275210
275648
275723
275798
4.15953
-3.94867
-1.9096
-1.28777
-0.999192
-0.756097
-0.569642
-0.397105
-0.228692
-0.0604185
0.10947
0.28106
0.451441
0.618423
0.778262
0.927586
1.06504
1.18697
1.29166
1.37916
1.44808
1.49634
1.5268
1.54083
1.53543
1.51176
1.47192
1.41936
1.35866
1.28935
1.212
1.13016
1.04471
0.957448
0.87171
0.788395
0.708822
0.635036
0.565557
0.498927
0.439038
0.390759
0.353715
0.324442
0.301919
0.288004
0.283955
0.288699
0.299826
0.31487
0.330908
60569.4
52791.3
284636
285048
285521
285981
286137
285804
125915
-6.10235
-2.84626
-1.50035
-1.18723
-0.977962
-0.782286
-0.616603
-0.459097
-0.304269
-0.148638
0.00801574
0.165798
0.322719
0.476299
0.622661
0.760473
0.888238
1.00286
1.10325
1.18872
1.25722
1.30782
1.34257
1.36104
1.36199
1.34682
1.31689
1.27577
1.22622
1.16733
1.10078
1.02943
0.95394
0.876588
0.800116
0.725391
0.654105
0.587397
0.523384
0.461942
0.407673
0.364232
0.330006
0.301747
0.279169
0.264291
0.258187
0.259777
0.266975
0.277884
0.290345
424876
425053
425018
424960
424876
424760
424606
424402
424136
423787
423330
422727
421926
420851
419385
417343
414403
409938
402501
388688
424511
424674
424635
424570
424477
424350
424180
423958
423668
423289
422793
422140
421271
420100
418496
416242
412956
407885
399496
384501
424175
424322
424279
424210
424109
423973
423792
423555
423249
422850
422332
421652
420753
419550
417916
415655
412448
407760
400708
389795
423869
423999
423954
423881
423775
423632
423443
423198
422882
422475
421949
421266
420372
419194
417624
415508
412624
408641
403082
395366
423594
423707
423661
423585
423476
423329
423137
422888
422569
422162
421642
420974
420114
418999
417546
415645
413149
409863
405551
400030
423351
423448
423401
423324
423214
423065
422872
422623
422308
421909
421404
420764
419953
418922
417608
415935
413808
411119
407756
403651
423141
423222
423175
423098
422988
422840
422648
422404
422096
421709
421226
420622
419867
418924
417748
416286
414479
412265
409589
406427
422965
423029
422982
422906
422798
422653
422465
422227
421929
421559
421100
420533
419835
418976
417925
416645
415098
413251
411074
408558
422820
422869
422824
422750
422644
422503
422321
422091
421805
421452
421018
420489
419843
419060
418115
416983
415643
414075
412264
410206
422705
422741
422698
422627
422525
422389
422213
421993
421719
421384
420976
420481
419883
419164
418305
417290
416108
414752
413217
411492
422618
422643
422604
422538
422441
422310
422141
421930
421669
421351
420967
420505
419950
419284
418491
417560
416495
415306
413990
412531
422549
422575
422545
422483
422390
422265
422103
421901
421652
421351
420990
420559
420047
419429
418683
417811
416841
415803
414700
413495
422454
422539
422518
422460
422372
422253
422099
421905
421668
421382
421043
420648
420195
419627
418033
409712
390347
358708
313199
234972
-0.605486
99155.4
97876.4
92835.8
85344.1
76264.5
65994.6
54798
42949.7
30773.8
18703.8
7568.04
0.798551
-3.10785
-2.05979
-2.13747
-1.98061
-0.938675
1.66776
1.33106
-0.310804
0.0292352
-0.0299022
-0.0419584
-0.0366518
-0.0292838
-0.0235227
-0.0208995
-0.0274396
-0.0549173
-0.138452
-0.343618
-0.0431661
-0.392171
-0.554117
-0.59238
-0.518936
-0.336915
-0.169097
0.0155499
-0.141667
-0.0030302
-0.0326718
-0.0422189
-0.0416992
-0.0400281
-0.0411796
-0.0464634
-0.057051
-0.0726947
-0.0913546
-0.102821
-0.0552354
-0.0957966
-0.145006
-0.18133
-0.202551
-0.212686
-0.200814
-0.191463
-0.0949373
-0.0571097
-0.0513819
-0.0534642
-0.052988
-0.0520508
-0.0529454
-0.0564956
-0.0629369
-0.0716535
-0.0799547
-0.083929
-0.0781075
-0.0890284
-0.109369
-0.135659
-0.163242
-0.18778
-0.201536
-0.209545
-0.0841948
-0.0711057
-0.0654369
-0.0636246
-0.062633
-0.0622221
-0.0632563
-0.0660094
-0.0703704
-0.0757678
-0.0809573
-0.0850543
-0.089267
-0.0987356
-0.113989
-0.133819
-0.155653
-0.176757
-0.195272
-0.213337
-0.0802459
-0.0752428
-0.0717829
-0.0697969
-0.0688193
-0.0687749
-0.0699863
-0.0724702
-0.0760433
-0.080349
-0.0849202
-0.089604
-0.0954222
-0.104095
-0.116542
-0.132495
-0.150905
-0.170452
-0.190257
-0.21066
-0.0785303
-0.076536
-0.0740683
-0.0726688
-0.0721889
-0.0726451
-0.0741577
-0.0766767
-0.0800705
-0.0841803
-0.0889031
-0.0943565
-0.101042
-0.10974
-0.121011
-0.134901
-0.151009
-0.16869
-0.187427
-0.207165
-0.0775468
-0.0759761
-0.074081
-0.07352
-0.073776
-0.074872
-0.0768275
-0.0795898
-0.0830878
-0.0872816
-0.0922193
-0.0980861
-0.105212
-0.113986
-0.124697
-0.137396
-0.151912
-0.167944
-0.185218
-0.203669
-0.0734983
-0.0733115
-0.0724828
-0.0730487
-0.07423
-0.0760517
-0.0785138
-0.0815976
-0.0852882
-0.0896132
-0.0946815
-0.100688
-0.107887
-0.116528
-0.126776
-0.138647
-0.152026
-0.166756
-0.182737
-0.199972
-0.0590328
-0.0669864
-0.069209
-0.071637
-0.0740272
-0.0766316
-0.079573
-0.0829367
-0.0867854
-0.0911996
-0.096311
-0.102298
-0.109361
-0.117695
-0.127428
-0.138572
-0.151041
-0.164749
-0.179699
-0.195955
-0.0264707
-0.0572397
-0.0653932
-0.0702498
-0.0738617
-0.0770908
-0.0803372
-0.0838341
-0.0877294
-0.0921458
-0.0972138
-0.103078
-0.109893
-0.117809
-0.12695
-0.137367
-0.149045
-0.161968
-0.176165
-0.191685
335622
334940
334064
334505
338141
344045
351141
358174
363989
367724
368816
366971
361797
352206
334610
354635
338887
334107
334162
337268
342547
349066
355612
361048
364513
365465
363623
358726
350322
338058
373778
354830
343803
339962
340968
345014
350526
356155
360763
363570
364160
362386
358225
351766
343454
385648
373407
363221
356909
354546
355244
357855
360967
363528
364878
364673
362802
359302
354364
348426
393228
385182
377775
372102
368579
367037
366944
367483
367930
367782
366730
364634
361504
357495
352932
398720
392940
387348
382556
378887
376375
374775
373695
372708
371465
369726
367371
364396
360903
357083
402713
398349
393961
389901
386398
383528
381197
379215
377348
375379
373147
370562
367594
364286
360796
405649
402220
398673
395207
391984
389063
386427
383994
381644
379246
376666
373812
370711
348610
110058
407845
405056
402110
399129
396205
393398
390722
388135
385538
382816
379928
344738
88059
-10.7125
1.24631
409522
407182
404689
402113
399510
396917
394292
391598
388815
318540
34117.6
-4.98653
1.64785
-1.80326
-1.18048
410869
408895
406776
404505
402131
399618
378915
211234
-6.9242
3.19446
0.718573
-1.81239
-1.0059
-1.01441
-1.08918
412062
410260
406227
356784
204404
2526.07
-7.50439
2.75536
-0.847333
-1.49668
-0.761681
-0.897429
-0.953423
-1.00783
-1.06278
124987
11925.4
-12.5728
0.403472
2.61526
0.0534866
-1.55881
-0.484108
-0.598747
-0.744997
-0.808565
-0.872357
-0.919744
-0.960407
-1.00764
1.1115
-0.42885
-1.22243
-0.894482
-0.243146
-0.371809
-0.516942
-0.559327
-0.634979
-0.704973
-0.761995
-0.816837
-0.866895
-0.911011
-0.95498
-0.0103574
-0.255779
-0.345938
-0.39297
-0.40906
-0.456667
-0.500241
-0.545397
-0.604333
-0.664236
-0.718519
-0.769293
-0.817528
-0.862225
-0.904524
-0.22721
-0.288107
-0.319404
-0.358517
-0.396951
-0.437284
-0.481449
-0.527817
-0.577357
-0.629161
-0.679511
-0.727371
-0.773101
-0.816471
-0.85742
-0.230162
-0.268946
-0.309061
-0.346265
-0.382844
-0.421265
-0.462526
-0.506062
-0.551346
-0.597969
-0.644506
-0.689722
-0.733217
-0.774778
-0.814216
-0.235311
-0.265655
-0.299109
-0.332938
-0.367948
-0.404747
-0.443644
-0.484462
-0.526654
-0.569703
-0.612919
-0.655534
-0.69698
-0.736879
-0.77497
-0.233217
-0.260421
-0.290045
-0.321312
-0.354207
-0.388913
-0.425538
-0.463895
-0.503498
-0.543798
-0.584259
-0.624399
-0.663841
-0.702242
-0.739275
-0.228814
-0.254181
-0.281566
-0.310751
-0.341655
-0.3743
-0.408699
-0.444701
-0.481911
-0.519838
-0.558018
-0.596043
-0.633641
-0.670624
-0.706726
-0.224005
-0.247806
-0.273517
-0.301022
-0.330216
-0.361011
-0.393322
-0.427039
-0.461924
-0.497632
-0.533808
-0.570101
-0.606202
-0.641941
-0.677173
-0.219091
-0.241535
-0.265838
-0.291903
-0.319589
-0.348739
-0.379193
-0.410842
-0.443584
-0.477241
-0.511577
-0.546336
-0.581219
-0.615976
-0.650478
-0.214085
-0.235393
-0.258469
-0.28322
-0.309487
-0.33711
-0.365948
-0.395883
-0.426834
-0.458721
-0.49141
-0.524722
-0.558455
-0.592371
-0.626262
-0.209029
-0.229384
-0.251367
-0.274894
-0.299829
-0.326054
-0.353481
-0.382003
-0.411515
-0.441941
-0.473199