/*--------------------------------*- C++ -*----------------------------------*\
| =========                 |                                                 |
| \\      /  F ield         | OpenFOAM: The Open Source CFD Toolbox           |
|  \\    /   O peration     | Version:  v1912                                 |
|   \\  /    A nd           | Website:  www.openfoam.com                      |
|    \\/     M anipulation  |                                                 |
\*---------------------------------------------------------------------------*/
FoamFile
{
    version     2.0;
    format      ascii;
    class       surfaceScalarField;
    location    "46";
    object      phi;
}
// * * * * * * * * * * * * * * * * * * * * * * * * * * * * * * * * * * * * * //

dimensions      [0 3 -1 0 0 0 0];
oriented        oriented;


internalField   nonuniform List<scalar> 
40282
(
0.00278463
0.00266004
1.9201
-1.92675
1.92116
0.00559074
-1.91211
1.8999
0.0122157
-1.88472
1.86658
0.0181429
-1.84556
1.82168
0.0238751
-1.79506
1.76566
0.0293957
-1.73363
1.69896
0.0346681
-1.66178
1.62208
0.0396954
-1.58003
1.5356
0.0444267
-1.48893
1.44
0.0489355
-1.38893
1.33571
0.0532211
-1.28051
1.2233
0.0572011
-1.16431
1.1035
0.0608165
-1.041
0.976863
0.06414
-0.911267
0.84415
0.0671171
-0.775598
0.705547
0.0700515
-0.633797
0.56038
0.0734164
-0.484922
0.407472
0.0774501
-0.326754
0.243383
0.0833707
-0.154476
0.0631954
0.0912806
-0.00422305
0.00560277
1.85519
-1.85074
1.8438
-0.0141097
0.0210562
-1.83411
1.82165
-0.0256301
0.0380891
-1.80641
1.78842
-0.0369332
0.0549249
-1.76771
1.74433
-0.0480069
0.0713936
-1.71829
1.68965
-0.0588045
0.0874475
-1.65843
1.62468
-0.0692525
0.103001
-1.58846
1.54982
-0.0793223
0.117962
-1.5088
1.46548
-0.0889546
0.132274
-1.4199
1.37211
-0.098096
0.145888
-1.32216
1.27012
-0.106714
0.158755
-1.21603
1.15997
-0.114776
0.170836
-1.10198
1.04214
-0.122223
0.182069
-0.980496
0.917126
-0.129015
0.192384
-0.852088
0.785488
-0.135069
0.201669
-0.717423
0.64802
-0.140412
0.209814
-0.577422
0.505812
-0.145239
0.216849
-0.433415
0.360529
-0.150153
0.22304
-0.287459
0.214724
-0.156725
0.229461
-0.142247
0.0772401
-0.171306
0.236313
-0.00701814
0.00836325
1.78871
-1.78451
1.77769
-0.0281961
0.0350116
-1.76823
1.75612
-0.0507209
0.0628267
-1.74139
1.72403
-0.0729807
0.0903352
-1.70407
1.68152
-0.0948088
0.117358
-1.65641
1.62879
-0.116099
0.143727
-1.59867
1.56611
-0.136745
0.169305
-1.53115
1.49381
-0.156615
0.193949
-1.45416
1.41226
-0.175608
0.217508
-1.36818
1.32198
-0.193663
0.239865
-1.27373
1.22351
-0.210734
0.260953
-1.17139
1.11744
-0.226778
0.280732
-1.06171
1.00428
-0.241753
0.299186
-0.945193
0.884504
-0.255592
0.316281
-0.822258
0.758512
-0.268143
0.33189
-0.693316
0.626729
-0.279131
0.345718
-0.558824
0.489698
-0.288224
0.35735
-0.419478
0.348355
-0.295334
0.366457
-0.276615
0.204745
-0.301341
0.373212
-0.133298
0.0641551
-0.308598
0.377741
-0.00964874
0.0109258
1.72465
-1.72079
1.71436
-0.0417347
0.0481606
-1.70538
1.69384
-0.0748742
0.0864088
-1.67977
1.66318
-0.107633
0.124225
-1.64408
1.62251
-0.139835
0.161413
-1.59847
1.572
-0.171299
0.197773
-1.54311
1.51185
-0.201842
0.233101
-1.47825
1.44235
-0.231284
0.267186
-1.40419
1.36382
-0.259445
0.29982
-1.32128
1.27664
-0.286168
0.330805
-1.22997
1.18134
-0.311326
0.35996
-1.13083
1.07852
-0.334844
0.387148
-1.02452
0.968907
-0.356701
0.412311
-0.911783
0.853227
-0.376907
0.435463
-0.793311
0.7321
-0.395402
0.456613
-0.669642
0.605973
-0.411926
0.475596
-0.541128
0.475147
-0.425889
0.49187
-0.408072
0.339967
-0.436449
0.504554
-0.270959
0.201325
-0.443282
0.512916
-0.131451
0.0628934
-0.447433
0.515991
-0.0121465
0.0133536
1.66289
-1.65923
1.65314
-0.0545363
0.0606277
-1.64462
1.63368
-0.0978614
0.108802
-1.62033
1.60457
-0.140706
0.15646
-1.58643
1.56592
-0.182857
0.20337
-1.54305
1.51785
-0.2241
0.249304
-1.49033
1.46052
-0.264209
0.294016
-1.42845
1.39416
-0.302945
0.33724
-1.35767
1.31903
-0.340069
0.378713
-1.27827
1.23545
-0.375352
0.41817
-1.19062
1.14384
-0.408565
0.455346
-1.09518
1.0447
-0.439509
0.489984
-0.992505
0.938675
-0.468058
0.521888
-0.883316
0.826534
-0.494189
0.550971
-0.768434
0.709116
-0.517942
0.57726
-0.648665
0.587149
-0.539247
0.600764
-0.524615
0.461097
-0.557616
0.621134
-0.396619
0.331198
-0.571943
0.637363
-0.264872
0.197739
-0.580896
0.648029
-0.129868
0.0628923
-0.58409
0.651065
-0.0145011
0.0156292
1.60345
-1.59984
1.59412
-0.0666488
0.0723717
-1.58611
1.57583
-0.11962
0.129906
-1.56327
1.54844
-0.172046
0.186877
-1.53134
1.512
-0.223682
0.243028
-1.49041
1.46658
-0.274285
0.298108
-1.44054
1.4123
-0.323592
0.351834
-1.38187
1.34929
-0.371312
0.403894
-1.31458
1.27776
-0.417152
0.453969
-1.23887
1.19796
-0.460819
0.501734
-1.15506
1.11022
-0.502007
0.546846
-1.0635
1.01495
-0.540411
0.588955
-0.964658
0.912691
-0.575766
0.627733
-0.859144
0.804115
-0.607907
0.662935
-0.747717
0.690062
-0.636811
0.694465
-0.631264
0.571422
-0.662526
0.722368
-0.510619
0.448916
-0.68481
0.746513
-0.386352
0.322946
-0.702637
0.766042
-0.258703
0.193617
-0.714123
0.779208
-0.127523
0.0625139
-0.717801
0.782811
-0.0166946
0.0177339
1.54582
-1.54279
1.53748
-0.0779974
0.0833104
-1.53004
1.52048
-0.140023
0.149584
-1.50879
1.49498
-0.201477
0.215288
-1.47904
1.46098
-0.262096
0.280159
-1.44079
1.41848
-0.32162
0.343931
-1.39405
1.36751
-0.379754
0.406298
-1.33886
1.30812
-0.436161
0.466903
-1.2753
1.24042
-0.490497
0.525378
-1.2035
1.16457
-0.542407
0.581337
-1.12366
1.08081
-0.59151
0.634361
-1.03606
0.989466
-0.637408
0.684004
-0.941079
0.890969
-0.679714
0.729825
-0.839211
0.785895
-0.718103
0.771418
-0.731123
0.675008
-0.752392
0.808507
-0.617672
0.559235
-0.782587
0.841024
-0.49981
0.439492
-0.808623
0.868941
-0.378352
0.316434
-0.829698
0.891616
-0.253746
0.190242
-0.843734
0.907237
-0.125506
0.0625732
-0.848641
0.911574
-0.0187074
0.0196475
1.49061
-1.48785
1.483
-0.088494
0.0933487
-1.4762
1.46745
-0.158919
0.16767
-1.45674
1.44406
-0.22879
0.241465
-1.42941
1.41277
-0.297845
0.314482
-1.39414
1.3735
-0.365821
0.38646
-1.35085
1.32617
-0.4324
0.457079
-1.29946
1.27072
-0.49721
0.525949
-1.23995
1.20715
-0.559858
0.592656
-1.17233
1.13551
-0.619926
0.656754
-1.09669
1.0559
-0.676956
0.717742
-1.01318
0.968555
-0.730454
0.775077
-0.922077
0.873798
-0.779916
0.828195
-0.823783
0.772107
-0.824864
0.87654
-0.718861
0.664151
-0.864919
0.91963
-0.608097
0.550831
-0.899928
0.957195
-0.492484
0.433181
-0.929862
0.989165
-0.373026
0.312095
-0.954129
1.01506
-0.250412
0.187913
-0.97064
1.03314
-0.123828
0.0629231
-0.977235
1.03814
-0.0205175
0.0213462
1.43728
-1.43463
1.43029
-0.0980383
0.102379
-1.42421
1.41636
-0.176133
0.183976
-1.40675
1.39534
-0.253744
0.265148
-1.38213
1.36709
-0.330635
0.345677
-1.35019
1.33142
-0.406556
0.42533
-1.31074
1.28814
-0.481184
0.503789
-1.26358
1.23706
-0.554119
0.580644
-1.20854
1.17802
-0.624925
0.655443
-1.14549
1.11094
-0.693126
0.727681
-1.07436
1.03577
-0.758182
0.796774
-0.995171
0.952593
-0.819492
0.862069
-0.908063
0.861621
-0.876428
0.922871
-0.813317
0.763214
-0.928357
0.97846
-0.71139
0.657943
-0.97469
1.02814
-0.60299
0.546668
-1.01504
1.07136
-0.489128
0.430526
-1.04928
1.10789
-0.371013
0.310726
-1.07696
1.13725
-0.249748
0.188068
-1.0961
1.15778
-0.124426
0.0657547
-1.10468
1.16335
-0.0221007
0.0228056
1.38599
-1.38369
1.37992
-0.106515
0.110283
-1.37463
1.36779
-0.191462
0.198295
-1.3594
1.34941
-0.276059
0.286045
-1.3378
1.32454
-0.360115
0.37338
-1.30958
1.29289
-0.443421
0.460116
-1.27441
1.25412
-0.525667
0.545962
-1.23196
1.20789
-0.606441
0.630506
-1.18188
1.15389
-0.685275
0.71327
-1.12387
1.09181
-0.761636
0.793698
-1.05768
1.02146
-0.834901
0.871123
-0.983136
0.942717
-0.904354
0.944773
-0.900209
0.855632
-0.969228
1.01381
-0.809019
0.760417
-1.02872
1.07732
-0.709891
0.657526
-1.08201
1.13437
-0.603431
0.547746
-1.12842
1.1841
-0.490636
0.43229
-1.16761
1.22595
-0.372914
0.312721
-1.19915
1.25934
-0.251899
0.190575
-1.22123
1.28255
-0.126677
0.0701614
-1.2319
1.28841
-0.0234323
0.0240011
1.33639
-1.33446
1.33132
-0.113806
0.116941
-1.32691
1.3212
-0.204697
0.21041
-1.31415
1.30574
-0.295435
0.303848
-1.29592
1.28463
-0.385907
0.397191
-1.27183
1.25746
-0.475968
0.490339
-1.24146
1.22376
-0.56535
0.583053
-1.20429
1.18299
-0.653648
0.674944
-1.1598
1.13465
-0.74038
0.765531
-1.10748
1.07822
-0.824968
0.854224
-1.04683
1.01326
-0.906708
0.94028
-0.977466
0.939423
-0.984764
1.02281
-0.899112
0.856525
-1.05822
1.1008
-0.81167
0.764573
-1.12606
1.17316
-0.715275
0.663845
-1.18722
1.23865
-0.610381
0.555014
-1.24068
1.29604
-0.497921
0.439315
-1.28573
1.34433
-0.37945
0.318624
-1.32183
1.38265
-0.257136
0.195319
-1.3473
1.40911
-0.129719
0.0754032
-1.3605
1.41481
-0.0244887
0.0249108
1.28866
-1.28695
1.2845
-0.11979
0.122237
-1.28105
1.27655
-0.215619
0.22011
-1.27099
1.2643
-0.311557
0.318246
-1.25644
1.24734
-0.407598
0.416698
-1.23693
1.22514
-0.503694
0.515483
-1.21189
1.19709
-0.599647
0.614448
-1.18065
1.16248
-0.695092
0.713261
-1.14248
1.12057
-0.789556
0.811472
-1.09664
1.07059
-0.882444
0.908485
-1.04235
1.01183
-0.972982
1.00351
-0.978938
0.943618
-1.06022
1.09554
-0.905807
0.865461
-1.14308
1.18343
-0.82255
0.777064
-1.22033
1.26582
-0.729014
0.678439
-1.2906
1.34118
-0.625414
0.57006
-1.35246
1.40781
-0.512553
0.453133
-1.40471
1.46413
-0.392111
0.329882
-1.44649
1.50872
-0.266896
0.203766
-1.47616
1.53929
-0.134862
0.0828517
-1.49267
1.54468
-0.0252501
0.0255177
1.24279
-1.24151
1.2398
-0.12436
0.126072
-1.23737
1.23418
-0.224029
0.227213
-1.2302
1.22537
-0.324128
0.328959
-1.21963
1.2129
-0.424783
0.431512
-1.2051
1.19614
-0.526079
0.535035
-1.18593
1.17435
-0.627924
0.639503
-1.1613
1.14664
-0.73003
0.744682
-1.13027
1.11205
-0.831977
0.850198
-1.09185
1.06953
-0.933187
0.955505
-1.04496
1.01802
-1.03286
1.05981
-0.988561
0.956475
-1.12996
1.16204
-0.921645
0.883973
-1.22323
1.26091
-0.843371
0.799775
-1.31124
1.35484
-0.753142
0.703464
-1.39226
1.44194
-0.650772
0.595159
-1.46437
1.51998
-0.536789
0.475925
-1.5257
1.58657
-0.412946
0.3484
-1.57486
1.6394
-0.282976
0.217781
-1.61005
1.67525
-0.144406
0.0949655
-1.6307
1.68014
-0.0257029
0.0258123
1.19822
-1.19758
1.19664
-0.12743
0.128378
-1.19527
1.19346
-0.229766
0.231583
-1.19114
1.18827
-0.332894
0.335766
-1.18477
1.18057
-0.437096
0.441297
-1.17557
1.16968
-0.542625
0.548519
-1.16277
1.15473
-0.649532
0.657571
-1.14543
1.13471
-0.757655
0.76837
-1.12244
1.10844
-0.866679
0.880679
-1.09254
1.07458
-0.976107
0.994069
-1.05437
1.03172
-1.08517
1.10782
-1.00644
0.978345
-1.19281
1.2209
-0.947252
0.912982
-1.29767
1.33194
-0.875367
0.834256
-1.39808
1.43919
-0.789522
0.741069
-1.492
1.54045
-0.688849
0.632881
-1.57688
1.63285
-0.573283
0.510306
-1.65003
1.713
-0.444382
0.376228
-1.70912
1.77727
-0.306865
0.238135
-1.75208
1.82081
-0.158421
0.11157
-1.77865
1.8255
-0.025842
0.0257943
1.15551
-1.15533
1.15516
-0.12895
0.129125
-1.15487
1.15445
-0.232726
0.233152
-1.15383
1.15297
-0.337672
0.338534
-1.15179
1.15022
-0.444246
0.445819
-1.14816
1.1455
-0.552892
0.555552
-1.14212
1.13789
-0.663847
0.668074
-1.13267
1.12629
-0.777124
0.783503
-1.11858
1.10935
-0.892578
0.901807
-1.0984
1.08551
-1.00988
1.02276
-1.07046
1.05299
-1.12838
1.14585
-1.03285
1.00977
-1.24711
1.27018
-0.983495
0.953729
-1.36472
1.39448
-0.920197
0.882625
-1.47944
1.51701
-0.840749
0.794332
-1.58891
1.63533
-0.743179
0.687165
-1.69
1.74602
-0.626282
0.560696
-1.77887
1.84446
-0.490832
0.41756
-1.85177
1.92504
-0.342308
0.26787
-1.90571
1.98014
-0.179218
0.134388
-1.94062
1.98545
-0.0256723
0.0254741
1.11427
-1.11437
1.11495
-0.128916
0.128336
-1.11572
1.11667
-0.232884
0.231941
-1.11773
1.11887
-0.338389
0.337251
-1.12002
1.12109
-0.446069
0.444991
-1.12202
1.12268
-0.556574
0.555913
-1.12296
1.12273
-0.67036
0.670587
-1.12185
1.12013
-0.78766
0.789372
-1.11741
1.11348
-0.908572
0.912507
-1.10811
1.10105
-1.03302
1.04007
-1.09204
1.08078
-1.16062
1.17188
-1.06695
1.05021
-1.29064
1.30738
-1.0302
1.00651
-1.42194
1.44563
-0.978727
0.946412
-1.55288
1.58519
-0.90911
0.86636
-1.68102
1.72377
-0.817722
0.762802
-1.80278
1.8577
-0.701317
0.633187
-1.91307
1.9812
-0.558676
0.478709
-2.00603
2.086
-0.395148
0.312048
-2.07675
2.15985
-0.211486
0.16864
-2.12528
2.16813
-0.0252096
0.0248728
1.07451
-1.07522
1.07651
-0.127376
0.126083
-1.07829
1.08054
-0.230307
0.228063
-1.08321
1.08627
-0.3351
0.332042
-1.08966
1.09332
-0.442563
0.438902
-1.09717
1.10113
-0.55355
0.549593
-1.10509
1.10892
-0.66875
0.664917
-1.11249
1.11565
-0.788653
0.785497
-1.11821
1.11997
-0.913653
0.911887
-1.12072
1.12018
-1.04402
1.04456
-1.11808
1.11409
-1.17978
1.18377
-1.10786
1.09897
-1.32063
1.32952
-1.08698
1.07138
-1.46592
1.48152
-1.05163
1.02709
-1.61453
1.63907
-0.997072
0.960829
-1.76447
1.80071
-0.917547
0.866388
-1.91224
1.9634
-0.80655
0.737386
-2.05185
2.12102
-0.658619
0.570846
-2.17482
2.2626
-0.476078
0.379842
-2.27244
2.36868
-0.262176
0.220792
-2.34467
2.38605
-0.0244797
0.0240205
1.03603
-1.03713
1.03907
-0.124428
0.12249
-1.04176
1.04519
-0.225157
0.221728
-1.04934
1.05416
-0.328004
0.323177
-1.05964
1.06571
-0.433916
0.427841
-1.07233
1.07943
-0.543936
0.536841
-1.08692
1.09471
-0.658975
0.651186
-1.10268
1.11071
-0.779787
0.771755
-1.11865
1.12632
-0.907092
0.899425
-1.13351
1.13999
-1.04157
1.03509
-1.1455
1.1497
-1.18376
1.17955
-1.15225
1.15274
-1.33398
1.3335
-1.15067
1.14549
-1.4924
1.49757
-1.13656
1.1231
-1.65888
1.67234
-1.10423
1.0789
-1.83274
1.85807
-1.04587
1.00372
-2.01181
2.05396
-0.95084
0.885543
-2.19072
2.25602
-0.806271
0.712253
-2.35917
2.45319
-0.60438
0.488595
-2.50244
2.61823
-0.345607
0.297008
-2.61919
2.66779
-0.0235165
0.0229546
0.999014
-1.00064
1.00314
-0.12022
0.117724
-1.00663
1.01109
-0.217688
0.213225
-1.01652
1.02291
-0.317437
0.311052
-1.03023
1.03846
-0.420518
0.412287
-1.04757
1.05752
-0.528118
0.51817
-1.06825
1.07972
-0.641335
0.629871
-1.09183
1.10452
-0.761163
0.748481
-1.11766
1.13113
-0.888629
0.875157
-1.14478
1.15842
-1.02483
1.01118
-1.17185
1.18481
-1.17085
1.1579
-1.19698
1.20802
-1.32775
1.31671
-1.2175
1.22491
-1.49668
1.48928
-1.22962
1.23088
-1.679
1.67774
-1.22774
1.21904
-1.87619
1.8849
-1.20327
1.17857
-2.08929
2.114
-1.14255
1.09225
-2.31694
2.36725
-1.02413
0.934436
-2.55188
2.64158
-0.820138
0.682964
-2.77603
2.9132
-0.510417
0.433649
-2.98253
3.05929
-0.02236
0.0217165
0.963463
-0.96519
0.968145
-0.114935
0.111979
-0.972281
0.977598
-0.208221
0.202904
-0.984098
0.991783
-0.303854
0.29617
-1.00065
1.0107
-0.402933
0.392882
-1.02193
1.03433
-0.506736
0.49434
-1.04788
1.06256
-0.616491
0.60181
-1.07834
1.0952
-0.733368
0.716515
-1.11307
1.1319
-0.858633
0.839804
-1.1516
1.17209
-0.993734
0.97325
-1.19323
1.21486
-1.14023
1.11859
-1.23681
1.25885
-1.29986
1.27782
-1.2807
1.30203
-1.47474
1.45342
-1.3224
1.34128
-1.66776
1.64887
-1.35799
1.37163
-1.88302
1.86939
-1.38095
1.3843
-2.12623
2.12288
-1.37932
1.36271
-2.40415
2.42076
-1.32985
1.27439
-2.72264
2.7781
-1.18815
1.05942
-3.08267
3.2114
-0.883412
0.796907
-3.49693
3.58343
0.106937
-0.224775
0.117838
-0.251686
0.378908
-0.127221
-0.473788
0.537223
-0.0634342
-0.573715
0.587678
-0.0139625
-0.586816
0.56991
0.0169058
-0.532139
0.480477
0.0516618
-0.424131
0.372272
0.0518584
-0.326716
0.27525
0.0514663
-0.214587
0.151604
0.0629835
-0.0853394
0.0134679
0.0718715
0.0873943
-0.296177
0.208783
0.766669
-1.6455
0.878834
2.47884
-2.90546
0.426614
3.22157
-3.44654
0.224964
3.53242
-3.78715
0.254736
3.97499
-4.32335
0.348361
4.50818
-4.23246
-0.275716
3.73555
-2.98499
-0.750558
0.357188
1.85164
-2.20883
-3.26231
4.14891
-0.886594
-4.75484
5.20134
-0.446496
-5.5427
5.80716
-0.264457
-6.01282
6.17295
-0.16013
-6.29756
6.39436
-0.0967924
-6.46919
6.52673
-0.0575429
-6.57069
6.60443
-0.0337346
-6.63116
6.65385
-0.0226913
-6.6731
6.68783
-0.014734
-6.69715
6.70109
-0.00393462
-6.70156
6.70028
0.00127468
-6.69522
6.6846
0.0106242
-6.67379
6.67435
-0.000557597
-6.68882
6.706
-0.0171858
-6.71034
6.69876
0.0115852
-6.68459
6.68479
-0.000201185
-6.69831
6.71222
-0.0139064
-6.71898
6.72142
-0.00243703
-6.72085
6.71723
0.00362652
-6.71089
6.70836
0.00252686
-6.71391
6.72124
-0.00732853
-6.72205
6.71608
0.00597201
-6.70939
6.70776
0.00163348
-6.71138
6.71075
0.000636046
-6.6866
6.63273
0.0538718
-6.58034
6.54483
0.0355154
-6.52305
6.51365
0.0093958
-6.51593
6.51891
-0.00298478
-6.51057
6.49209
0.0184779
-6.4623
6.4288
0.0334982
-6.40491
6.38938
0.0155262
-6.37708
6.36493
0.0121523
-6.35379
6.346
0.00779541
-6.34442
6.35454
-0.0101212
-6.37997
6.41323
-0.0332604
-6.43992
6.44881
-0.00889238
-6.44402
6.42028
0.023741
-6.38338
6.36037
0.0230169
-6.3593
6.37797
-0.0186627
-6.4173
6.46975
-0.0524504
-6.50644
6.51716
-0.0107201
0.325742
-0.392455
0.0667136
-0.208049
0.306067
0.230877
-0.328895
-0.391451
0.459391
0.128451
-0.196391
-0.507462
0.532882
0.0329839
-0.0584043
-0.536822
0.524524
-0.0325076
0.0448055
-0.4975
0.456198
-0.0964099
0.137712
-0.406845
0.355483
-0.102628
0.153991
-0.304562
0.25493
-0.101072
0.150704
-0.205229
0.151874
-0.119498
0.172852
-0.0945454
0.0374616
-0.131828
0.188912
0.0115043
-0.0447615
-0.286735
0.319992
0.0356016
0.0356028
-0.969123
0.897919
-0.0742805
0.104994
-1.19747
1.16676
0.345846
-1.87096
-0.987017
2.51213
3.17842
-3.74534
-0.479976
1.04689
4.22616
-4.48751
-0.489251
0.750597
4.56244
-4.64457
0.143427
-0.0612979
2.52938
1.27606
2.66073
-6.46618
-2.07589
2.82797
3.51493
-4.26701
-3.56855
4.23637
1.67177
-2.33959
-4.79069
5.23725
0.902016
-1.34858
-5.59611
5.88443
0.54358
-0.831892
-6.11574
6.30061
0.335344
-0.520209
-6.44734
6.56296
0.205327
-0.320949
-6.65363
6.72446
0.123734
-0.194565
-6.77966
6.8226
0.0740915
-0.117032
-6.85584
6.88131
0.0473197
-0.0727873
-6.9008
6.91586
0.0295294
-0.0445819
-6.92755
6.93649
0.0118167
-0.020761
-6.94278
6.94696
0.000531899
-0.00471304
-6.94937
6.9515
-0.0102911
0.00815762
-6.95306
6.95296
0.000441602
-0.000337055
-6.9502
6.94778
0.0165466
-0.0141321
-6.94802
6.95018
-0.00649158
0.00432752
-6.95058
6.94923
-0.00219704
0.00355069
-6.9451
6.94054
0.0113907
-0.00682615
-6.9375
6.93566
0.00289567
-0.00105719
-6.93398
6.93298
-0.00416418
0.00516185
-6.93236
6.93078
-0.00116874
0.00274431
-6.92784
6.92502
0.00332805
-0.000504463
-6.92219
6.92023
-0.00771341
0.00966927
-6.91741
6.91171
-0.00553784
0.0112382
-6.90248
6.89196
-0.0170915
0.0276151
-6.88392
6.87892
-0.0648178
0.0698165
-6.87137
6.85966
-0.0536521
0.0653594
-6.84578
6.83115
-0.0234332
0.0380685
-6.81659
6.80281
-0.0137354
0.0275145
-6.79064
6.78056
-0.0330624
0.0431442
-6.77194
6.763
-0.0446714
0.0536103
-6.7518
6.73945
-0.0310809
0.0434293
-6.72785
6.7183
-0.0239485
0.0335013
-6.71099
6.70574
-0.0124598
0.0177078
-6.70186
6.69767
0.0127709
-0.0085808
-6.69229
6.68647
0.0308184
-0.0250067
-6.68099
6.67805
0.0077636
-0.00481923
-6.67601
6.6778
-0.0270955
0.0253043
-6.68204
6.6834
-0.0195383
0.0181711
-6.68311
6.68039
0.0226843
-0.019962
-6.67507
6.6676
0.047573
-0.0401056
-6.66252
6.66084
0.0167241
-0.0150427
0.445229
-0.526502
0.0812727
-0.152861
0.243352
0.426262
-0.516753
-0.325711
0.400104
0.267291
-0.341684
-0.460295
0.502
0.0899227
-0.131627
-0.520719
0.518517
-0.0521454
0.0543477
-0.498667
0.462892
-0.175818
0.211593
-0.415118
0.362888
-0.205103
0.257333
-0.311197
0.260659
-0.199944
0.250483
-0.211766
0.163379
-0.222592
0.270978
-0.109519
0.0541645
-0.24438
0.299734
-0.0133739
-0.00689903
-0.340788
0.361061
-0.0128196
0.0945052
-0.802601
0.720916
-0.183453
0.26032
-1.06076
0.983891
-0.387302
0.646239
-2.05855
1.79961
-0.777254
-0.274025
-2.90178
3.95307
1.80198
-1.61326
-0.714673
0.525951
0.0811679
2.16057
3.33305
-5.57478
-3.28857
3.2946
6.40416
-6.41019
-3.38913
3.67306
4.71544
-4.99938
-4.07666
4.51833
2.87847
-3.32015
-4.94591
5.33155
1.76344
-2.14907
-5.66425
5.9439
1.11604
-1.3957
-6.17407
6.36054
0.706195
-0.892659
-6.50918
6.6261
0.437693
-0.554617
-6.71709
6.78747
0.265721
-0.336103
-6.84163
6.88299
0.159597
-0.200958
-6.91434
6.93794
0.0975304
-0.121129
-6.95557
6.96889
0.0588263
-0.0721413
-6.97919
6.98728
0.0294125
-0.037505
-6.99346
6.99802
0.00909666
-0.0136548
-7.00167
7.00485
-0.00515716
0.00197644
-7.00694
7.00659
-0.000137905
0.000490401
-7.00363
6.99982
0.0104736
-0.0066553
-6.99738
6.99667
-0.00361287
0.00431589
-6.99588
6.99308
-0.00604263
0.0088421
-6.98828
6.98259
0.00123238
0.00445781
-6.97756
6.97342
-0.00240483
0.00654744
-6.97026
6.9678
-0.00703894
0.00950402
-6.96562
6.96298
-0.0048115
0.007457
-6.95962
6.95624
-0.0033326
0.00671958
-6.95377
6.95178
-0.0117685
0.0137603
-6.94914
6.94496
-0.0164071
0.0205947
-6.93958
6.93473
-0.0350792
0.0399338
-6.93245
6.93271
-0.0718028
0.0715351
-6.93243
6.92936
-0.0719402
0.0750013
-6.92346
6.91546
-0.0491292
0.0571313
-6.90633
6.89758
-0.0390205
0.0477713
-6.89028
6.88451
-0.0510133
0.0567833
-6.87986
6.87522
-0.0602374
0.0648786
-6.86949
6.86296
-0.0525101
0.0590406
-6.85636
6.85035
-0.0411353
0.0471512
-6.845
6.83988
-0.0231179
0.0282318
-6.83462
6.82847
0.00292183
0.00322938
-6.82124
6.81373
0.0177433
-0.0102411
-6.80705
6.80268
0.000593644
0.00377656
-6.80059
6.80072
-0.024234
0.024104
-6.802
6.80191
-0.0168651
0.0169539
-6.79938
6.79462
0.0157659
-0.0110086
-6.78777
6.77931
0.0316804
-0.0232287
-6.77263
6.76723
0.0108928
-0.00548981
0.620036
-0.716968
0.0969313
-0.142608
0.199998
0.588767
-0.646157
-0.264355
0.332328
0.413374
-0.481348
-0.397475
0.45423
0.18055
-0.237305
-0.491135
0.506434
-0.0484909
0.0331922
-0.501113
0.475517
-0.242686
0.268282
-0.432703
0.378263
-0.310294
0.364734
-0.325252
0.272017
-0.301929
0.355165
-0.217903
0.162747
-0.32085
0.376006
-0.111534
0.0597819
-0.352963
0.404715
-0.0217456
-0.00294022
-0.38379
0.408476
0.00355825
0.0260068
-0.665856
0.636291
-0.0649045
0.0938819
-0.926333
0.897356
-0.149711
0.266681
-1.62682
1.50985
-0.423429
0.791035
-4.01813
3.65052
-0.741902
2.67316
0.117195
-2.04845
-4.01222
4.09983
6.48354
-6.57115
-4.08891
4.04386
6.35134
-6.30629
-4.07321
4.22938
5.19564
-5.35181
-4.48773
4.80659
3.68555
-4.0044
-5.14494
5.47402
2.50045
-2.82953
-5.77286
6.0323
1.66341
-1.92285
-6.24822
6.42365
1.07328
-1.24871
-6.56182
6.66888
0.66674
-0.773796
-6.75066
6.81296
0.402545
-0.464848
-6.86006
6.89567
0.239306
-0.274922
-6.92252
6.94285
0.142737
-0.163071
-6.95834
6.97039
0.0843719
-0.0964219
-6.98001
6.98798
0.0450907
-0.0530639
-6.99468
7.00039
0.0184515
-0.0241548
-7.00535
7.00964
0.00147095
-0.00576998
-7.0128
7.01401
-0.000336543
-0.00087741
-7.01314
7.01111
0.00344553
-0.00141838
-7.00926
7.00811
-0.00566212
0.00680759
-7.00709
7.00514
-0.0113751
0.0133194
-7.0019
6.99792
-0.00950592
0.0134861
-6.99405
6.99077
-0.010552
0.0138395
-6.98816
6.98605
-0.0120421
0.0141479
-6.98418
6.98219
-0.00997308
0.0119553
-6.98006
6.97813
-0.00944869
0.0113798
-6.97677
6.97582
-0.0153411
0.0162992
-6.97475
6.9733
-0.0234255
0.0248742
-6.97192
6.97162
-0.0423036
0.0426036
-6.97332
6.97667
-0.0695892
0.0662344
-6.98001
6.98173
-0.0753668
0.0736434
-6.98134
6.97916
-0.0620003
0.0641746
-6.97607
6.97303
-0.0535046
0.0565436
-6.97073
6.96915
-0.0603413
0.0619215
-6.96802
6.96676
-0.0677003
0.0689583
-6.96492
6.96248
-0.0633086
0.0657413
-6.9597
6.95672
-0.0515257
0.0545104
-6.95343
6.94952
-0.0327505
0.036666
-6.94481
6.93921
-0.00918621
0.014794
-6.93289
6.92653
0.00328161
0.00308575
-6.92076
6.91633
-0.00818809
0.0126204
-6.91321
6.91106
-0.0250967
0.0272429
-6.90916
6.90645
-0.0183803
0.0210812
-6.90252
6.89736
0.00602974
-0.000868277
-6.89093
6.88343
0.0153227
-0.00782179
-6.87648
6.86973
-0.000630029
0.00737928
0.806117
-0.872084
0.0659668
-0.122033
0.159677
0.689925
-0.727569
-0.207153
0.261874
0.542573
-0.597295
-0.322799
0.384429
0.296459
-0.358089
-0.43975
0.474959
-0.00760462
-0.0276045
-0.487518
0.477082
-0.286813
0.297249
-0.447179
0.405171
-0.416207
0.458215
-0.350317
0.292851
-0.409411
0.466877
-0.234302
0.172107
-0.435251
0.497446
-0.104693
0.0554852
-0.454319
0.503526
-0.0130794
-0.0151188
-0.433945
0.462143
0.0300599
-0.0312519
-0.626236
0.627428
0.0283535
-0.0444496
-0.896545
0.912641
0.107219
-0.213499
-1.46159
1.56788
0.0559116
-0.895088
-3.85624
4.69541
-2.17206
4.25195
4.75804
-6.83793
-4.26687
4.31179
6.57661
-6.62153
-4.34196
4.36802
6.29673
-6.32279
-4.43359
4.56789
5.48785
-5.62216
-4.77645
5.03781
4.286
-4.54735
-5.32683
5.61559
3.13413
-3.42289
-5.88317
6.11487
2.1674
-2.3991
-6.30542
6.45726
1.41249
-1.56433
-6.57446
6.66276
0.871134
-0.959443
-6.73
6.78196
0.521069
-0.573024
-6.82258
6.85506
0.307648
-0.340126
-6.88146
6.90347
0.182911
-0.204923
-6.9222
6.93846
0.109426
-0.125685
-6.95267
6.96542
0.0625319
-0.0752759
-6.97699
6.98751
0.0316318
-0.0421542
-6.99702
7.00543
0.0116529
-0.0200679
-7.01243
7.01764
0.00378043
-0.00898495
-7.02097
7.0229
0.00118731
-0.0031199
-7.02419
7.02536
-0.00701405
0.00584669
-7.02645
7.02705
-0.0141421
0.0135405
-7.02684
7.02601
-0.015943
0.0167678
-7.0251
7.0245
-0.0158698
0.0164685
-7.02422
7.02411
-0.0153468
0.015459
-7.02403
7.02387
-0.0130628
0.0132236
-7.02362
7.02346
-0.0123827
0.0125404
-7.02361
7.02404
-0.0165122
0.016074
-7.02464
7.02543
-0.0250487
0.0242594
-7.0268
7.02937
-0.0412387
0.0386599
-7.03359
7.03906
-0.0617322
0.0562635
-7.04466
7.04928
-0.0702925
0.0656736
-7.0524
7.05415
-0.0641061
0.0623639
-7.05521
7.0564
-0.0572093
0.0560234
-7.05799
7.05972
-0.0616976
0.0599652
-7.06135
7.06263
-0.0688177
0.0675333
-7.06347
7.06384
-0.0666021
0.0662297
-7.06379
7.06315
-0.0562096
0.0568442
-7.06166
7.05894
-0.0399183
0.0426307
-7.05504
7.05026
-0.0198994
0.0246797
-7.04499
7.03975
-0.00877213
0.0140108
-7.0349
7.03061
-0.0169467
0.0212287
-7.02668
7.02269
-0.0303728
0.0343602
-7.01826
7.01325
-0.0249367
0.0299485
-7.00787
7.00238
-0.00437568
0.00986913
-6.99638
6.98943
0.000737411
0.00621355
-6.98204
6.97423
-0.0145827
0.0223852
0.91394
-0.936118
0.0221772
-0.0764198
0.111462
0.764073
-0.799115
-0.149096
0.194176
0.646327
-0.691408
-0.248301
0.310025
0.419526
-0.48125
-0.372386
0.422031
0.069669
-0.119314
-0.448568
0.453187
-0.29865
0.294032
-0.437952
0.408297
-0.491082
0.520737
-0.362925
0.313561
-0.522495
0.571858
-0.261149
0.189213
-0.56305
0.634986
-0.10892
0.0521455
-0.553414
0.610189
-0.00253181
-0.0386984
-0.495318
0.536548
0.0694989
-0.0885925
-0.636693
0.655787
0.100321
-0.154099
-0.932972
0.986749
0.400835
-4.28161
-2.01804
5.89882
4.83123
1.27923
-3.27818
-2.83227
-4.18259
4.22402
6.85884
-6.90028
-4.29365
4.36563
6.67439
-6.74636
-4.44155
4.52719
6.38124
-6.46688
-4.63677
4.78807
5.76244
-5.91373
-4.98713
5.2243
4.79309
-5.03025
-5.4819
5.73506
3.69344
-3.9466
-5.96253
6.15073
2.61034
-2.79855
-6.29706
6.41289
1.69839
-1.81422
-6.50327
6.57488
1.03683
-1.10844
-6.6366
6.69193
0.62264
-0.67797
-6.74163
6.78654
0.375506
-0.420416
-6.82695
6.86308
0.23193
-0.268054
-6.89543
6.92438
0.147254
-0.176204
-6.94993
6.97267
0.0925463
-0.115277
-6.99299
7.01119
0.056386
-0.0745846
-7.02743
7.04169
0.0313829
-0.0456412
-7.0538
7.06363
0.0166072
-0.0264346
-7.07123
7.07696
0.00714849
-0.0128777
-7.0813
7.08486
-0.00331232
-0.000247034
-7.08812
7.09113
-0.0115616
0.00855584
-7.09357
7.09533
-0.0160959
0.0143315
-7.09679
7.09843
-0.0157434
0.014108
-7.1002
7.10184
-0.0145545
0.0129161
-7.1033
7.10453
-0.0125574
0.0113278
-7.10549
7.1063
-0.0120659
0.0112565
-7.10719
7.10824
-0.015197
0.0141479
-7.10947
7.11103
-0.022907
0.0213489
-7.11332
7.1169
-0.0353729
0.0317937
-7.12215
7.12875
-0.0501541
0.0435523
-7.13564
7.14187
-0.0601833
0.0539516
-7.14684
7.15049
-0.05947
0.0558274
-7.1534
7.15665
-0.053527
0.0502823
-7.16047
7.16425
-0.057048
0.0532662
-7.16767
7.17061
-0.0653337
0.0623963
-7.17311
7.17523
-0.0648718
0.0627509
-7.17696
7.17804
-0.0565407
0.0554617
-7.17801
7.17627
-0.0448176
0.0465564
-7.17279
7.16821
-0.0292212
0.0338025
-7.16312
7.15812
-0.0189298
0.0239283
-7.15358
7.14941
-0.0253988
0.0295658
-7.14525
7.14043
-0.0389005
0.0437155
-7.13451
7.1276
-0.0359376
0.0428407
-7.12048
7.11417
-0.0156303
0.0219404
-7.10806
7.10106
-0.0130505
0.0200505
-7.09285
7.08388
-0.0306911
0.0396616
0.945747
-0.947295
0.00154778
-0.0342205
0.0582646
0.828906
-0.85295
-0.0871809
0.122974
0.731725
-0.767518
-0.169611
0.228604
0.541846
-0.600839
-0.298993
0.368674
0.177436
-0.247117
-0.416082
0.43229
-0.285058
0.26885
-0.417033
0.382202
-0.551361
0.586191
-0.346442
0.309367
-0.612963
0.650038
-0.2664
0.212598
-0.704265
0.758067
-0.146785
0.0673382
-0.676642
0.756089
-0.00358978
-0.0536367
-0.585811
0.643038
0.105351
-0.156571
-0.688227
0.739447
0.202722
-0.251711
-1.05977
1.10875
1.23786
-1.62333
-8.11395
8.49942
-3.36513
3.9856
6.80871
-7.42918
-4.07354
4.16582
7.01824
-7.11052
-4.26806
4.37569
6.83733
-6.94496
-4.49153
4.61886
6.57316
-6.70049
-4.76406
4.93433
6.07427
-6.24454
-5.13264
5.35182
5.25919
-5.47836
-5.57315
5.76972
4.1754
-4.37197
-5.92084
6.04871
2.9534
-3.08127
-6.12437
6.23197
1.91232
-2.01992
-6.34441
6.44919
1.18431
-1.2891
-6.54415
6.63104
0.74817
-0.835066
-6.70803
6.77709
0.479038
-0.548097
-6.83772
6.89033
0.31389
-0.366499
-6.93554
6.97457
0.211245
-0.25028
-7.00852
7.03802
0.141803
-0.171303
-7.06373
7.08648
0.0952052
-0.11795
-7.10677
7.12474
0.0617605
-0.0797314
-7.14021
7.15286
0.0376155
-0.0502677
-7.16272
7.17043
0.019592
-0.0272965
-7.17667
7.18189
0.00464084
-0.0098613
-7.18652
7.19086
-0.00465273
0.000309163
-7.19498
7.19861
-0.0115906
0.00795982
-7.20169
7.20442
-0.011807
0.00907744
-7.20703
7.20942
-0.0108891
0.00849907
-7.21139
7.21289
-0.00993401
0.00842527
-7.214
7.21484
-0.0104443
0.00960899
-7.21558
7.21643
-0.0131994
0.0123483
-7.21757
7.21926
-0.0197737
0.0180887
-7.22185
7.22586
-0.0280654
0.0240584
-7.23184
7.23962
-0.0364885
0.0287088
-7.24778
7.25545
-0.0470847
0.0394071
-7.26198
7.26678
-0.0516996
0.0469031
-7.26993
7.2732
-0.04696
0.043691
-7.27748
7.28187
-0.0490671
0.0446795
-7.28636
7.29068
-0.0588254
0.0544999
-7.29455
7.29787
-0.060057
0.0567343
-7.30076
7.30286
-0.0538007
0.0517032
-7.30402
7.30327
-0.0478126
0.0485696
-7.29981
7.2947
-0.0385447
0.043645
-7.2885
7.28213
-0.0293818
0.035757
-7.27666
7.27219
-0.0337905
0.0382565
-7.26868
7.26506
-0.0481931
0.051814
-7.25992
7.25264
-0.050176
0.0574528
-7.24323
7.23504
-0.028978
0.0371744
-7.22771
7.22009
-0.0272224
0.0348387
-7.21152
7.20111
-0.0492799
0.0596929
0.940674
-0.924749
-0.0159249
0.00479419