/*--------------------------------*- C++ -*----------------------------------*\
| =========                 |                                                 |
| \\      /  F ield         | OpenFOAM: The Open Source CFD Toolbox           |
|  \\    /   O peration     | Version:  v1912                                 |
|   \\  /    A nd           | Website:  www.openfoam.com                      |
|    \\/     M anipulation  |                                                 |
\*---------------------------------------------------------------------------*/
FoamFile
{
    version     2.0;
    format      ascii;
    class       volVectorField;
    location    "46";
    object      U;
}
// * * * * * * * * * * * * * * * * * * * * * * * * * * * * * * * * * * * * * //

dimensions      [0 1 -1 0 0 0 0];


internalField   nonuniform List<vector> 
20320
(
(1.8557 0.00629651 0)
(1.85436 -0.00516888 0)
(1.83893 0.0045857 0)
(1.80945 0.0122658 0)
(1.7685 0.0193989 0)
(1.71713 0.0262602 0)
(1.6555 0.0327535 0)
(1.58381 0.0387504 0)
(1.50273 0.0442941 0)
(1.41271 0.0497075 0)
(1.31422 0.0549429 0)
(1.20773 0.0597868 0)
(1.09393 0.0641134 0)
(0.973345 0.068248 0)
(0.846764 0.0719557 0)
(0.714456 0.0759401 0)
(0.576133 0.0808972 0)
(0.430621 0.0878414 0)
(0.275147 0.0984578 0)
(0.103179 0.102675 0)
(1.85583 0.0112932 0)
(1.84729 0.035662 0)
(1.82793 0.0666853 0)
(1.79761 0.0978512 0)
(1.75633 0.128462 0)
(1.7043 0.158347 0)
(1.6419 0.187356 0)
(1.56951 0.215371 0)
(1.48754 0.242232 0)
(1.39642 0.267777 0)
(1.29655 0.291914 0)
(1.18843 0.314587 0)
(1.07248 0.335648 0)
(0.949234 0.354941 0)
(0.819183 0.372225 0)
(0.683064 0.387331 0)
(0.541863 0.400446 0)
(0.397015 0.412482 0)
(0.25092 0.426681 0)
(0.106422 0.459753 0)
(1.85582 0.0170639 0)
(1.84731 0.0698486 0)
(1.82779 0.125474 0)
(1.79728 0.180627 0)
(1.75592 0.234875 0)
(1.70391 0.287818 0)
(1.6415 0.339196 0)
(1.569 0.388732 0)
(1.48679 0.436107 0)
(1.39537 0.481102 0)
(1.29531 0.523606 0)
(1.18722 0.563542 0)
(1.07165 0.600845 0)
(0.949118 0.635381 0)
(0.820041 0.666821 0)
(0.684832 0.694516 0)
(0.543992 0.717577 0)
(0.398315 0.735385 0)
(0.249134 0.749516 0)
(0.0999689 0.784886 0)
(1.85582 0.022849 0)
(1.84756 0.0998562 0)
(1.82839 0.17922 0)
(1.7982 0.257682 0)
(1.75716 0.33481 0)
(1.7055 0.41019 0)
(1.64341 0.483394 0)
(1.57116 0.553986 0)
(1.48909 0.621532 0)
(1.39761 0.685632 0)
(1.29721 0.745939 0)
(1.18855 0.802223 0)
(1.07237 0.854416 0)
(0.949489 0.902569 0)
(0.820619 0.946643 0)
(0.686286 0.986155 0)
(0.54681 1.01981 0)
(0.402469 1.04565 0)
(0.253626 1.06304 0)
(0.10248 1.09752 0)
(1.85582 0.0283179 0)
(1.8477 0.127914 0)
(1.82884 0.229599 0)
(1.79912 0.330181 0)
(1.75868 0.429159 0)
(1.7077 0.526043 0)
(1.64635 0.62031 0)
(1.57484 0.711394 0)
(1.49345 0.798735 0)
(1.40254 0.881786 0)
(1.30253 0.959989 0)
(1.19395 1.03284 0)
(1.07748 1.09997 0)
(0.953962 1.16128 0)
(0.824339 1.21685 0)
(0.689488 1.26666 0)
(0.549997 1.30974 0)
(0.406103 1.34372 0)
(0.257704 1.3663 0)
(0.105254 1.4024 0)
(1.85582 0.0334576 0)
(1.84791 0.154407 0)
(1.82951 0.277218 0)
(1.80051 0.398806 0)
(1.761 0.518607 0)
(1.71107 0.636069 0)
(1.65085 0.75058 0)
(1.58048 0.861471 0)
(1.50017 0.968058 0)
(1.41021 1.06965 0)
(1.31094 1.16553 0)
(1.20282 1.25497 0)
(1.08643 1.3373 0)
(0.9625 1.41207 0)
(0.831983 1.47916 0)
(0.695929 1.5387 0)
(0.555251 1.59028 0)
(0.410439 1.63181 0)
(0.261363 1.66009 0)
(0.106874 1.69887 0)
(1.85582 0.0382283 0)
(1.8482 0.17916 0)
(1.83048 0.321751 0)
(1.8025 0.463084 0)
(1.76428 0.602566 0)
(1.71587 0.739608 0)
(1.65728 0.873537 0)
(1.58855 1.00358 0)
(1.50981 1.12895 0)
(1.42123 1.2488 0)
(1.32307 1.36227 0)
(1.21568 1.4684 0)
(1.09956 1.56627 0)
(0.97533 1.65508 0)
(0.843868 1.73432 0)
(0.706267 1.80393 0)
(0.563672 1.86383 0)
(0.416903 1.91242 0)
(0.266026 1.9462 0)
(0.108366 1.98752 0)
(1.85583 0.0425856 0)
(1.8486 0.201966 0)
(1.83179 0.362843 0)
(1.80519 0.522532 0)
(1.76876 0.680451 0)
(1.72242 0.836013 0)
(1.66607 0.988504 0)
(1.59962 1.13707 0)
(1.52307 1.28082 0)
(1.43643 1.41879 0)
(1.33983 1.54991 0)
(1.2335 1.67302 0)
(1.11783 1.78695 0)
(0.993337 1.89053 0)
(0.860797 1.98283 0)
(0.72128 2.06338 0)
(0.576073 2.13208 0)
(0.426307 2.18773 0)
(0.272326 2.22677 0)
(0.109374 2.27017 0)
(1.85583 0.0464788 0)
(1.84913 0.222595 0)
(1.83353 0.400091 0)
(1.80875 0.576591 0)
(1.77467 0.751578 0)
(1.73108 0.924507 0)
(1.67772 1.09466 0)
(1.61436 1.26114 0)
(1.54077 1.42295 0)
(1.4568 1.579 0)
(1.36238 1.72804 0)
(1.25759 1.86867 0)
(1.14263 1.99943 0)
(1.01792 2.1188 0)
(0.884113 2.22538 0)
(0.742229 2.31813 0)
(0.59368 2.39664 0)
(0.439978 2.45988 0)
(0.282019 2.50427 0)
(0.112486 2.54892 0)
(1.85583 0.0498542 0)
(1.84981 0.24079 0)
(1.83574 0.43304 0)
(1.8133 0.624628 0)
(1.78224 0.815153 0)
(1.74222 1.00417 0)
(1.69278 1.19101 0)
(1.63348 1.37475 0)
(1.56386 1.55434 0)
(1.48352 1.72856 0)
(1.39215 1.89597 0)
(1.28956 2.05493 0)
(1.17576 2.20364 0)
(1.05095 2.3402 0)
(0.91566 2.46268 0)
(0.770812 2.56936 0)
(0.617904 2.65925 0)
(0.458863 2.73121 0)
(0.295232 2.78159 0)
(0.11674 2.82538 0)
(1.85583 0.0526573 0)
(1.85065 0.256283 0)
(1.83848 0.461215 0)
(1.81895 0.665962 0)
(1.79169 0.870308 0)
(1.75617 1.07397 0)
(1.71175 1.27639 0)
(1.65771 1.47666 0)
(1.59333 1.67372 0)
(1.51788 1.86627 0)
(1.43072 2.05269 0)
(1.33134 2.23107 0)
(1.2194 2.39926 0)
(1.09484 2.55491 0)
(0.957922 2.69548 0)
(0.809433 2.81846 0)
(0.650879 2.92198 0)
(0.484565 3.00439 0)
(0.31258 3.06172 0)
(0.119935 3.10281 0)
(1.85583 0.0548377 0)
(1.85165 0.268813 0)
(1.84179 0.484139 0)
(1.82578 0.6999 0)
(1.80314 0.916127 0)
(1.77319 1.13278 0)
(1.73504 1.34945 0)
(1.6877 1.56537 0)
(1.63011 1.77951 0)
(1.56118 1.99053 0)
(1.47984 2.1967 0)
(1.3851 2.39584 0)
(1.27619 2.58546 0)
(1.15258 2.7627 0)
(1.01415 2.92432 0)
(0.861384 3.06686 0)
(0.695724 3.18724 0)
(0.519872 3.28285 0)
(0.336567 3.34895 0)
(0.123539 3.38686 0)
(1.85584 0.0563551 0)
(1.85283 0.27815 0)
(1.84564 0.501387 0)
(1.83377 0.725797 0)
(1.81663 0.951723 0)
(1.79336 1.17943 0)
(1.76287 1.40879 0)
(1.72388 1.6392 0)
(1.67498 1.86979 0)
(1.61463 2.09928 0)
(1.54124 2.32592 0)
(1.45324 2.54735 0)
(1.34918 2.76075 0)
(1.22788 2.96274 0)
(1.08855 3.14933 0)
(0.931115 3.31587 0)
(0.756736 3.45769 0)
(0.568529 3.57053 0)
(0.370422 3.64812 0)
(0.131523 3.68186 0)
(1.85584 0.0571838 0)
(1.85415 0.284123 0)
(1.85 0.512627 0)
(1.84285 0.743122 0)
(1.83203 0.976314 0)
(1.81657 1.21285 0)
(1.79519 1.45295 0)
(1.76637 1.69632 0)
(1.72834 1.94234 0)
(1.67909 2.18997 0)
(1.61645 2.43756 0)
(1.53811 2.68277 0)
(1.44174 2.92256 0)
(1.32515 3.15314 0)
(1.1865 3.36974 0)
(1.02466 3.56638 0)
(0.839973 3.7363 0)
(0.63565 3.87281 0)
(0.417006 3.96724 0)
(0.143047 3.9976 0)
(1.85585 0.0573181 0)
(1.85559 0.286645 0)
(1.85475 0.517667 0)
(1.85281 0.751522 0)
(1.84905 0.989312 0)
(1.84244 1.23212 0)
(1.83161 1.48059 0)
(1.81483 1.73486 0)
(1.79006 1.99472 0)
(1.75487 2.25954 0)
(1.70646 2.52802 0)
(1.64171 2.79808 0)
(1.55721 3.0668 0)
(1.44939 3.33024 0)
(1.31473 3.58307 0)
(1.15025 3.81797 0)
(0.954531 4.02556 0)
(0.729954 4.19534 0)
(0.483083 4.31416 0)
(0.161261 4.34233 0)
(1.85585 0.0567753 0)
(1.8571 0.285734 0)
(1.85977 0.516501 0)
(1.86336 0.750901 0)
(1.86721 0.990432 0)
(1.87031 1.23665 0)
(1.87128 1.49067 0)
(1.86834 1.75317 0)
(1.85927 2.0245 0)
(1.84136 2.30466 0)
(1.8113 2.593 0)
(1.76517 2.88807 0)
(1.69838 3.18755 0)
(1.60566 3.48796 0)
(1.48115 3.78405 0)
(1.31881 4.06767 0)
(1.11365 4.32676 0)
(0.865094 4.54555 0)
(0.57985 4.70337 0)
(0.192817 4.73601 0)
(1.85585 0.0555957 0)
(1.85864 0.281523 0)
(1.86488 0.50933 0)
(1.87416 0.741459 0)
(1.88592 0.979772 0)
(1.89928 1.22627 0)
(1.91298 1.48262 0)
(1.92535 1.75003 0)
(1.93422 2.02957 0)
(1.9368 2.32204 0)
(1.92954 2.62774 0)
(1.90794 2.94633 0)
(1.86643 3.27673 0)
(1.79801 3.61685 0)
(1.69403 3.96283 0)
(1.54406 4.30729 0)
(1.33674 4.63668 0)
(1.06392 4.92936 0)
(0.72769 5.15239 0)
(0.246223 5.20843 0)
(1.85586 0.0538418 0)
(1.86014 0.274262 0)
(1.86988 0.496567 0)
(1.88479 0.723713 0)
(1.90446 0.957861 0)
(1.92824 1.20141 0)
(1.95514 1.4565 0)
(1.98378 1.72494 0)
(2.01227 2.0085 0)
(2.03809 2.30894 0)
(2.05784 2.62771 0)
(2.067 2.96596 0)
(2.05957 3.32451 0)
(2.02745 3.70382 0)
(1.9596 4.10334 0)
(1.84071 4.5196 0)
(1.65028 4.9419 0)
(1.36462 5.34634 0)
(0.967571 5.68512 0)
(0.346472 5.81759 0)
(1.85586 0.0515923 0)
(1.86155 0.264296 0)
(1.8746 0.478815 0)
(1.89485 0.698485 0)
(1.92213 0.925665 0)
(1.95605 1.16306 0)
(1.99603 1.41318 0)
(2.04114 1.67837 0)
(2.09005 1.96104 0)
(2.14087 2.26385 0)
(2.19086 2.58949 0)
(2.2362 2.9407 0)
(2.27152 3.3206 0)
(2.2891 3.73304 0)
(2.27744 4.18272 0)
(2.21863 4.67423 0)
(2.08392 5.20802 0)
(1.82827 5.77158 0)
(1.39123 6.31726 0)
(0.594915 6.6429 0)
(1.85586 0.0489375 0)
(1.86282 0.252048 0)
(1.87887 0.456824 0)
(1.90401 0.666834 0)
(1.93827 0.884527 0)
(1.98164 1.11277 0)
(2.03395 1.35434 0)
(2.0949 1.6119 0)
(2.1639 1.88838 0)
(2.23999 2.18714 0)
(2.32161 2.51186 0)
(2.40641 2.86669 0)
(2.49087 3.25678 0)
(2.56969 3.68926 0)
(2.63449 4.17451 0)
(2.67091 4.72766 0)
(2.65217 5.36874 0)
(2.52585 6.11969 0)
(2.18037 6.9942 0)
(1.32015 7.81852 0)
(0.449921 -0.33322 0)
(1.31501 -0.170653 0)
(1.99987 -0.0756072 0)
(2.2585 -0.0152687 7.44759e-21)
(2.23696 0.0183764 0)
(1.93583 0.0665218 0)
(1.49946 0.0675533 0)
(1.13343 0.0692598 0)
(0.669484 0.0858769 0)
(0.151493 0.0972414 -5.80963e-22)
(-0.73545 0.348869 0)
(-4.58653 1.62739 0)
(-10.2393 -0.864911 -4.62046e-20)
(-13.0433 -0.352594 -1.60114e-20)
(-14.2646 0.155305 0)
(-15.3303 -0.699076 3.68273e-21)
(-16.0399 -3.67533 2.7277e-21)
(-13.8835 -3.26276 -8.91957e-19)
(4.14648 -3.93508 0)
(14.8758 -1.48912 1.87626e-19)
(19.5735 -0.723301 -1.41402e-19)
(22.0926 -0.434826 -1.9437e-19)
(23.6116 -0.271508 6.64525e-20)
(24.5404 -0.172906 -4.37051e-20)
(25.0933 -0.111406 0)
(25.4145 -0.0724928 -1.73918e-20)
(25.6116 -0.0597628 0)
(25.753 -0.045511 6.80437e-21)
(25.8127 -0.0170114 7.82948e-21)
(25.8119 -0.00504349 0)
(25.7673 0.00853517 1.11998e-21)
(25.6913 -0.0164034 -3.81967e-22)
(25.8142 -0.0746903 5.80343e-22)
(25.8235 0.0478005 1.65882e-22)
(25.7268 -0.0213737 0)
(25.848 -0.0905478 0)
(25.8867 -0.0129174 3.43952e-22)
(25.8772 0.00624496 0)
(25.8304 0.0128786 -7.11549e-22)
(25.8754 -0.0465623 0)
(25.8815 -1.05322e-05 0)
(25.8269 -0.00241197 -6.92526e-22)
(25.857 -0.0244794 0)
(25.6467 0.194599 0)
(25.2392 0.108944 1.0046e-21)
(25.0882 -0.00226293 3.47204e-22)
(25.1079 -0.0670007 0)
(25.0456 0.0197319 1.15659e-23)
(24.8085 0.113973 2.8097e-22)
(24.6241 0.0337044 -2.11316e-22)
(24.5305 0.0170686 0)
(24.4414 0.0187801 9.20466e-24)
(24.4292 -0.024302 0)
(24.623 -0.142222 3.24166e-23)
(24.835 -0.0459705 0)
(24.783 0.0685631 0)
(24.5162 0.118717 2.88769e-24)
(24.5026 -0.0356954 -8.41134e-26)
(24.8038 -0.22208 0)
(25.1353 -0.0566452 0)
(0.428589 -0.723756 0)
(1.24908 -0.55408 0)
(1.78003 -0.321812 -7.32945e-21)
(2.02955 -0.0880583 0)
(1.98653 0.0786676 0)
(1.70941 0.234918 2.52659e-21)
(1.32643 0.255356 -2.34191e-21)
(0.949059 0.250219 0)
(0.553299 0.291633 6.62489e-24)
(0.106256 0.320629 -9.20677e-23)
(-0.375151 0.609252 -2.85361e-24)
(-0.749077 1.86083 1.30582e-20)
(-0.62843 2.38751 -4.04046e-20)
(-5.57955 3.7075 0)
(-13.7077 0.731403 0)
(-16.96 1.11368 4.44439e-19)
(-20.8137 1.27566 0)
(11.4421 -11.3532 0)
(11.536 -7.82366 6.13173e-22)
(16.2052 -4.03133 0)
(19.7968 -2.2432 0)
(22.2182 -1.36295 0)
(23.7959 -0.845734 5.81273e-20)
(24.8001 -0.520229 -3.90092e-20)
(25.4203 -0.315152 2.50977e-20)
(25.7983 -0.190077 1.57233e-20)
(26.0279 -0.120902 0)
(26.1618 -0.0761638 0)
(26.2382 -0.0348537 3.16197e-21)
(26.2788 -0.00800038 -4.33323e-25)
(26.2913 0.0177481 0)
(26.3089 -0.00560903 -2.03553e-24)
(26.2976 -0.0374283 1.39404e-22)
(26.287 0.0112188 0)
(26.2969 -0.00294086 0)
(26.2725 -0.0316802 3.32498e-22)
(26.2438 -0.00780643 0)
(26.2289 0.00810534 0)
(26.2246 0.00361731 0)
(26.2061 -0.0103001 1.57452e-22)
(26.1819 0.0150851 1.3667e-22)
(26.1607 0.0161119 -3.04867e-22)
(26.0876 0.0436444 3.28022e-22)
(26.012 0.148781 0)
(25.9598 0.130755 1.58708e-22)
(25.8651 0.0613681 0)
(25.7588 0.0281416 2.68405e-22)
(25.6623 0.0732976 -1.37966e-22)
(25.5936 0.106046 -2.91931e-23)
(25.5137 0.0789053 -2.23742e-23)
(25.4283 0.0583117 -1.57208e-23)
(25.3752 0.0307456 4.09069e-23)
(25.3489 -0.0225788 -1.05243e-22)
(25.311 -0.0689387 0)
(25.2698 -0.0192524 0)
(25.2557 0.0534842 0)
(25.2847 0.0506402 0)
(25.2862 -0.0399749 1.93033e-23)
(25.2482 -0.104174 2.98407e-24)
(25.2074 -0.0404967 0)
(0.687181 -0.953448 0)
(1.2034 -0.944805 -2.52308e-21)
(1.64887 -0.60619 0)
(1.91108 -0.21662 -7.07337e-21)
(1.89663 0.109307 -5.30623e-21)
(1.62543 0.386576 -3.36944e-21)
(1.24103 0.458772 0)
(0.866283 0.445319 -2.44649e-21)
(0.488488 0.488109 0)
(0.0703898 0.537249 0)
(-0.297018 0.692267 0)
(-0.448026 1.498 0)
(-0.0172979 2.02509 0)
(0.374955 3.68196 0)
(-0.740567 7.41378 0)
(-8.52355 1.32064 0)
(5.17411 -9.31412 0)
(17.2663 -12.6843 1.45363e-19)
(16.2676 -9.69573 0)
(18.0453 -6.18443 0)
(20.4239 -3.89485 0)
(22.4224 -2.49344 0)
(23.8309 -1.58556 0)
(24.7399 -0.984426 0)
(25.2929 -0.597569 0)
(25.6206 -0.358441 0)
(25.8107 -0.217575 0)
(25.9159 -0.130296 0)
(25.9741 -0.0665276 3.09267e-21)
(26.0081 -0.0222932 0)
(26.0275 0.00718459 -8.37487e-22)
(26.0442 0.000849888 0)
(26.0267 -0.016544 0)
(26.0027 0.00753455 0)
(25.9953 0.0139422 0)
(25.962 0.0022454 0)
(25.9228 0.0086916 1.81493e-22)
(25.8978 0.0163036 0)
(25.8822 0.0121624 0)
(25.858 0.00990437 0)
(25.8367 0.0254144 -1.43106e-22)
(25.8154 0.0373638 1.6293e-22)
(25.7703 0.0757528 -2.71814e-22)
(25.745 0.142246 0)
(25.743 0.146435 -3.0414e-23)
(25.7055 0.107155 0)
(25.6413 0.087936 0)
(25.5853 0.10801 0)
(25.5497 0.124524 0)
(25.5097 0.111478 1.37753e-24)
(25.4636 0.0882664 0)
(25.427 0.0510539 -6.61492e-23)
(25.3913 0.000421447 0)
(25.3394 -0.0270127 0)
(25.289 0.00288136 5.44899e-23)
(25.2724 0.0470822 -3.24405e-23)
(25.2816 0.0325669 -8.56236e-23)
(25.2658 -0.0266468 2.36263e-23)
(25.2152 -0.0534418 0)
(25.1644 -0.0164973 -2.67276e-24)
(0.935701 -1.33029 0)
(1.21076 -1.22208 0)
(1.51329 -0.883454 0)
(1.75991 -0.409139 0)
(1.80156 0.0834003 7.08487e-21)
(1.57168 0.503295 0)
(1.18698 0.662915 0)
(0.806773 0.647878 5.24149e-25)
(0.397325 0.685578 0)
(-0.0109338 0.749017 2.3516e-23)
(-0.303997 0.780815 -1.54875e-21)
(-0.501546 1.27373 0)
(-0.415342 1.78577 0)
(-0.532086 3.10935 4.46761e-23)
(-0.731332 7.13396 1.03715e-21)
(4.74618 -1.46668 -6.1143e-22)
(19.8314 -12.7786 1.22895e-19)
(19.2837 -12.4973 0)
(18.668 -10.4077 -2.08602e-21)
(19.4976 -7.60359 0)
(21.1389 -5.26935 -2.49885e-22)
(22.7289 -3.54341 1.74548e-22)
(23.8898 -2.29461 -1.23992e-22)
(24.6175 -1.42479 3.50027e-20)
(25.0342 -0.858375 -2.23352e-20)
(25.2696 -0.508788 0)
(25.403 -0.302165 0)
(25.4795 -0.17814 -1.45693e-23)
(25.5264 -0.0963017 8.97739e-24)
(25.5604 -0.0413181 0)
(25.5875 -0.00648648 7.01067e-22)
(25.6087 0.000189897 0)
(25.6034 -0.00400925 0)
(25.5861 0.0126582 0)
(25.5758 0.0248484 4.70891e-22)
(25.5529 0.0234372 0)
(25.5245 0.0246169 0)
(25.5053 0.026197 1.08038e-22)
(25.4925 0.0219901 -1.33299e-22)
(25.4773 0.0209731 7.19497e-23)
(25.4658 0.0315564 2.18665e-22)
(25.4556 0.0482824 0)
(25.4407 0.0845843 4.60178e-22)
(25.4468 0.13455 0)
(25.4702 0.147796 9.97953e-23)
(25.4715 0.12556 -9.06296e-23)
(25.4518 0.109692 0)
(25.4345 0.121434 -8.28199e-23)
(25.4258 0.135465 0)
(25.4141 0.128045 1.55145e-23)
(25.3968 0.10518 -2.24902e-24)
(25.3762 0.0687608 2.4817e-23)
(25.3452 0.0238896 -2.15956e-23)
(25.3008 0.000111524 1.99836e-23)
(25.2581 0.0205497 0)
(25.2344 0.0511057 -1.66723e-23)
(25.221 0.0383745 1.51836e-23)
(25.1941 -0.00683149 -9.17462e-24)
(25.1475 -0.022661 0)
(25.0968 0.00766 0)
(0.979248 -1.64906 -8.32531e-22)
(1.17608 -1.39412 3.71704e-21)
(1.37351 -1.12225 0)
(1.57431 -0.643445 -5.93484e-21)
(1.6662 -0.0160768 6.54107e-21)
(1.48582 0.579989 0)
(1.15253 0.86634 0)
(0.777883 0.859035 -4.07766e-24)
(0.33815 0.914694 2.0012e-24)
(-0.121814 0.938247 2.77156e-21)
(-0.377482 0.877421 2.05543e-21)
(-0.620742 1.22533 9.36825e-24)
(-0.779834 1.76676 2.18856e-21)
(-1.69275 2.79169 0)
(-2.54999 7.47292 4.72515e-21)
(20.3307 -14.1462 -2.33162e-19)
(20.1324 -12.9642 0)
(20.0222 -12.3706 1.5747e-21)
(19.8735 -10.9002 -7.08385e-21)
(20.5007 -8.67885 0)
(21.7586 -6.44646 6.34882e-20)
(22.9973 -4.49185 -2.00116e-22)
(23.8422 -2.92892 0)
(24.3154 -1.79962 0)
(24.5652 -1.07387 1.96677e-20)
(24.7205 -0.633861 5.41747e-23)
(24.8324 -0.378059 0)
(24.9225 -0.228258 0)
(24.9975 -0.133193 1.36977e-23)
(25.0631 -0.0707385 0)
(25.1206 -0.0297778 -1.05293e-21)
(25.166 -0.011319 -3.32718e-24)
(25.188 -0.00307857 -8.37882e-23)
(25.1935 0.0133257 5.47708e-22)
(25.1982 0.0278359 -5.90072e-22)
(25.196 0.0328459 -5.55083e-22)
(25.1899 0.0323778 0)
(25.1883 0.0307334 1.322e-25)
(25.1889 0.0262191 0)
(25.1875 0.0248 -5.07108e-23)
(25.1875 0.0322279 -8.07385e-23)
(25.1895 0.0487362 -1.22919e-22)
(25.1954 0.0788342 -1.94264e-22)
(25.221 0.116169 2.0613e-22)
(25.2597 0.133958 -1.31073e-22)
(25.2843 0.124796 -1.18181e-22)
(25.2947 0.111871 3.09618e-22)
(25.3059 0.120072 -9.67096e-27)
(25.3172 0.134349 -4.48453e-23)
(25.3246 0.130913 2.50905e-23)
(25.3268 0.111451 -6.042e-24)
(25.319 0.0812875 0)
(25.2943 0.0438612 5.20931e-24)
(25.2581 0.0224963 1.81468e-23)
(25.2228 0.0375033 0)
(25.1939 0.0632323 -8.94676e-24)
(25.163 0.053329 -4.33721e-24)
(25.1261 0.0137687 -1.39e-25)
(25.0834 0.00541485 0)
(25.031 0.0359178 -9.57534e-24)
(0.920459 -1.80383 -3.39469e-22)
(1.0754 -1.52906 0)
(1.22629 -1.30931 1.45676e-23)
(1.39487 -0.88016 0)
(1.49963 -0.181174 0)
(1.34538 0.580935 -4.47488e-21)
(1.05788 0.988493 0)
(0.720505 1.07382 5.97859e-21)
(0.309621 1.16812 -4.32214e-21)
(-0.216735 1.13645 4.55396e-21)
(-0.487718 1.00437 -1.42489e-21)
(-0.804383 1.25648 -1.29631e-21)
(-1.07295 1.86414 -4.82308e-20)
(-9.35668 7.47223 4.59854e-20)
(-10.1897 4.22267 0)
(19.6718 -13.3915 3.31739e-20)
(20.0288 -13.1023 0)
(20.2602 -12.5406 0)
(20.5365 -11.4011 3.58031e-20)
(21.2187 -9.6026 0)
(22.2421 -7.47262 0)
(23.0798 -5.29131 -5.90354e-20)
(23.4982 -3.4487 -8.96721e-20)
(23.7094 -2.12457 0)
(23.8769 -1.29858 -1.49039e-20)
(24.073 -0.802484 0)
(24.2668 -0.506093 4.28733e-21)
(24.441 -0.326567 0)
(24.5876 -0.208978 2.83963e-21)
(24.7089 -0.131061 0)
(24.8088 -0.0769041 -5.26763e-22)
(24.8854 -0.0429215 3.2531e-22)
(24.9332 -0.0198956 0)
(24.9588 0.00271886 -5.44468e-23)
(24.978 0.0197814 -4.41024e-23)
(24.9933 0.0299544 3.41271e-23)
(25.0041 0.0293925 1.17608e-24)
(25.0171 0.0268924 1.76904e-23)
(25.0282 0.0233613 -4.7958e-23)
(25.0353 0.0227505 -1.60589e-25)
(25.0408 0.0285325 0)
(25.0474 0.0429753 1.33695e-23)
(25.0608 0.0651091 1.19209e-22)
(25.0948 0.0906496 0)
(25.1414 0.110605 -3.18797e-27)
(25.1772 0.112152 1.48279e-22)
(25.2004 0.101043 -1.93289e-22)
(25.227 0.107349 -9.83973e-23)
(25.2504 0.124422 7.28693e-23)
(25.2691 0.124453 3.87472e-23)
(25.2835 0.109414 -2.00562e-23)
(25.2854 0.0896944 8.28759e-24)
(25.2636 0.0624526 1.50416e-23)
(25.2294 0.0428055 0)
(25.197 0.0544059 5.1631e-24)
(25.167 0.0814015 0)
(25.1262 0.0779856 -2.52199e-23)
(25.0782 0.037667 0)
(25.0353 0.0333395 0)
(24.9786 0.0700961 0)
(0.902573 -1.84616 1.12403e-21)
(0.958147 -1.63853 0)
(1.05858 -1.46041 0)
(1.2038 -1.11271 6.18733e-21)
(1.35278 -0.407172 0)
(1.25138 0.542527 0)
(0.897243 1.10433 0)
(0.592741 1.22901 0)
(0.233004 1.43311 0)
(-0.22145 1.38288 0)
(-0.583445 1.19195 0)
(-1.0249 1.38124 7.61181e-21)
(-1.58431 2.12401 0)
(-16.2169 17.2545 0)
(19.3353 -14.3156 7.34711e-20)
(19.3615 -13.7375 0)
(19.8386 -13.3951 5.9751e-23)
(20.3537 -12.9025 0)
(20.9331 -11.976 -1.7505e-22)
(21.6806 -10.4457 0)
(22.4041 -8.33726 0)
(22.643 -6.02818 -5.49775e-20)
(22.6304 -3.96193 -2.38737e-20)
(22.8699 -2.361 1.41937e-20)
(23.2467 -1.44645 3.44569e-20)
(23.6079 -0.900812 0)
(23.9293 -0.578114 -1.20647e-22)
(24.1847 -0.383696 -1.28923e-22)
(24.3815 -0.25454 0)
(24.5359 -0.168071 3.68915e-20)
(24.6597 -0.106441 0)
(24.7557 -0.0635841 3.17391e-20)
(24.8163 -0.0327092 -1.1543e-23)
(24.8532 -0.00613714 2.73648e-20)
(24.8817 0.0119586 0)
(24.9072 0.0250737 -1.98019e-20)
(24.9288 0.025236 1.57708e-20)
(24.9475 0.0228073 1.22849e-20)
(24.9618 0.0201766 4.52705e-21)
(24.9694 0.0205577 3.21944e-21)
(24.974 0.0256851 0)
(24.98 0.0383738 -1.63224e-21)
(24.996 0.054396 -1.23284e-21)
(25.0359 0.0700762 4.28087e-24)
(25.0904 0.091074 0)
(25.135 0.100455 -6.33703e-22)
(25.1601 0.0909457 6.90293e-22)
(25.1881 0.0949781 -2.00388e-22)
(25.2185 0.113949 0)
(25.2462 0.116586 -1.03738e-22)
(25.2677 0.104634 0)
(25.2766 0.0930815 0)
(25.2562 0.0753453 0)
(25.2148 0.0579459 0)
(25.1764 0.0663936 0)
(25.151 0.0937247 0)
(25.1168 0.0978914 0)
(25.0568 0.0582802 1.58055e-22)
(25.0049 0.0563931 -1.18473e-23)
(24.9462 0.099431 4.05852e-24)
(0.852238 -1.79937 0)
(0.826703 -1.6986 -2.93914e-23)
(0.871731 -1.57338 5.12462e-21)
(0.984154 -1.32065 6.61383e-21)
(1.14771 -0.720481 0)
(1.25671 0.436086 0)
(0.814322 1.2533 0)
(0.447715 1.36373 4.83082e-21)
(0.135028 1.56766 0)
(-0.285066 1.70168 0)
(-0.604135 1.42722 0)
(-1.10461 1.61588 5.79231e-21)
(-1.60757 1.90023 0)
(-3.44498 7.11742 0)
(18.5423 -14.4323 -3.29456e-20)
(19.0258 -14.0707 0)
(19.675 -13.8051 0)
(20.4046 -13.3926 0)
(21.1308 -12.592 -3.63787e-20)
(21.7556 -11.1898 -5.5288e-20)
(21.8447 -9.11642 0)
(21.4374 -6.44833 -9.99625e-20)
(21.3976 -4.07331 -4.32156e-20)
(21.4006 -2.81174 -3.26913e-20)
(21.4653 -1.76868 -3.33059e-20)
(21.5408 -1.19382 0)
(21.5996 -0.811841 0)
(21.6577 -0.561049 0)
(21.7109 -0.390607 0)
(21.7621 -0.274796 0)
(21.8131 -0.19374 0)
(21.8693 -0.133082 3.69201e-21)
(21.9455 -0.0947332 0)
(22.0815 -0.11777 0)
(22.3413 -0.192495 -2.48206e-21)
(22.6578 -0.154294 9.53618e-22)
(22.9246 -0.0793722 7.95391e-25)
(23.1045 -0.0396004 0)
(23.2214 -0.016714 0)
(23.302 -0.00153302 0)
(23.3643 0.00948711 0)
(23.4197 0.0178933 0)
(23.4795 0.0162694 0)
(23.5485 0.00792932 0)
(23.6199 0.0257053 0)
(23.687 0.0548667 0)
(23.7447 0.0607765 0)
(23.7903 0.0585064 0)
(23.8415 0.0737119 0)
(23.8995 0.0826143 -4.65955e-23)
(23.956 0.0845723 0)
(23.9719 0.0986159 0)
(23.985 0.115447 0)
(23.9831 0.110105 0)
(23.9818 0.102935 6.04254e-23)
(24.0053 0.119313 0)
(24.0808 0.13892 0)
(24.3361 0.089508 0)
(24.569 0.100442 0)
(24.5948 0.147478 2.66836e-23)
(0.749075 -1.68964 -1.75423e-21)
(0.678364 -1.70224 0)
(0.671312 -1.64211 1.0092e-20)
(0.72796 -1.47799 0)
(0.872598 -1.04502 0)
(1.10233 0.0630232 0)
(0.84803 1.47118 -1.46722e-20)
(0.366389 1.53004 0)
(-1.95466e-05 1.68896 5.26066e-21)
(-0.191218 1.8286 0)
(-0.463951 1.71274 3.40358e-21)
(-1.10228 1.82204 2.76163e-20)
(-3.26314 5.55888 0)
(18.1073 -15.2575 0)
(18.0805 -14.6821 1.03228e-19)
(18.7411 -14.5009 -4.65539e-20)
(19.5648 -14.312 1.13447e-19)
(20.4064 -13.9453 -6.67132e-20)
(21.0659 -13.1618 -4.40866e-20)
(21.2603 -11.8295 0)
(22.0758 -8.00789 2.51927e-19)
(20.0403 -6.31824 -3.01746e-20)
(19.4431 -4.3282 0)
(19.1612 -2.92058 3.13072e-20)
(19.1071 -1.90454 0)
(19.1205 -1.2712 -1.8514e-20)
(19.1297 -0.863885 1.33222e-20)
(19.141 -0.599473 0)
(19.1565 -0.423172 0)
(19.1805 -0.305237 0)
(19.2159 -0.226189 3.78464e-21)
(19.2701 -0.174096 2.93836e-21)
(19.3574 -0.154316 -5.42309e-21)
(19.491 -0.203932 0)
(19.6404 -0.297358 3.17038e-21)
(19.8001 -0.285856 -2.56523e-21)
(19.9957 -0.201814 -6.353e-22)
(20.1858 -0.130723 1.0756e-21)
(20.3449 -0.0850851 -3.98004e-22)
(20.4775 -0.0570261 -3.16787e-22)
(20.5931 -0.0391622 1.63652e-22)
(20.7009 -0.0262801 -2.87014e-24)
(20.8062 -0.0200856 -3.29633e-22)
(20.9042 -0.0155505 -3.01342e-22)
(20.9971 0.00296701 -1.30378e-22)
(21.0921 0.0246032 -4.35247e-24)
(21.1872 0.0323025 0)
(21.2702 0.036552 7.83578e-23)
(21.3533 0.0482148 -2.33083e-24)
(21.438 0.0541244 0)
(21.5154 0.0609697 0)
(21.5875 0.0690869 0)
(21.6572 0.0726216 0)
(21.7241 0.066083 -1.86323e-23)
(21.7918 0.0591571 0)
(21.8794 0.054929 0)
(22.0109 0.013317 -4.8914e-22)
(22.144 -0.0648602 -1.68867e-22)
(22.2366 0.00993669 1.32738e-22)
(22.3452 0.0442355 3.22684e-23)
(0.629033 -1.51149 0)
(0.52893 -1.65218 0)
(0.464957 -1.6586 0)
(0.445105 -1.56925 0)
(0.506375 -1.30225 0)
(0.686511 -0.464258 0)
(0.824213 1.51908 0)
(0.357667 1.66179 0)
(-0.179458 1.97523 0)
(-0.0629717 1.85311 0)
(-0.205212 1.91383 0)
(-0.133648 1.80144 0)
(-13.6298 13.514 0)
(17.0256 -15.2048 0)
(17.7792 -15.1092 0)
(18.581 -15.01 0)
(19.4935 -14.8751 0)
(20.296 -14.4738 0)
(20.6359 -13.662 0)
(20.7852 -12.2643 0)
(18.6349 -8.76198 0)
(17.5393 -6.26007 0)
(16.921 -4.36178 0)
(16.6031 -3.01567 0)
(16.4848 -2.03289 0)
(16.4876 -1.37053 0)
(16.524 -0.9348 1.09064e-20)
(16.5701 -0.650897 0)
(16.6204 -0.464959 0)
(16.6779 -0.344204 0)
(16.7468 -0.26825 0)
(16.8344 -0.226145 0)
(16.95 -0.221294 0)
(17.092 -0.27446 0)
(17.2211 -0.360534 0)
(17.3362 -0.375848 0)
(17.4824 -0.314951 0)
(17.653 -0.23988 0)
(17.8231 -0.180855 0)
(17.9826 -0.14121 0)
(18.1308 -0.115698 0)
(18.2708 -0.0989358 0)
(18.4038 -0.0887512 0)
(18.527 -0.0788994 0)
(18.6441 -0.0610927 0)
(18.7632 -0.040659 0)
(18.8832 -0.0288563 0)
(18.9965 -0.021016 0)
(19.1081 -0.0104587 1.21407e-23)
(19.2199 -0.00202587 8.0868e-23)
(19.3284 0.00672358 0)
(19.4371 0.0160799 0)
(19.5484 0.020343 0)
(19.6606 0.0148489 0)
(19.7736 0.00363057 -5.15046e-23)
(19.897 -0.0146774 5.54178e-23)
(20.0307 -0.0607753 -1.49788e-22)
(20.1206 -0.102888 0)
(20.1895 -0.0469446 8.83342e-23)
(20.2861 -0.00744913 0)
(0.530967 -1.30437 2.97364e-21)
(0.393299 -1.54975 0)
(0.271341 -1.62025 -6.98679e-21)
(0.200252 -1.58605 5.10124e-21)
(0.14535 -1.42188 0)
(0.125772 -0.882134 0)
(0.314112 0.744671 0)
(0.823758 2.30913 9.17468e-20)
(0.0918358 2.04986 2.49652e-21)
(0.0591512 1.86838 0)
(-0.14081 2.04132 -6.68583e-21)
(-15.3755 18.2633 0)
(16.4215 -14.7168 0)
(16.9955 -15.6656 1.69018e-20)
(17.6629 -15.5635 4.32005e-20)
(18.498 -15.5475 -5.2828e-20)
(19.3978 -15.4296 -9.28754e-23)
(19.9544 -14.9402 0)
(20.1865 -14.0773 -6.16794e-19)
(18.5552 -11.2182 1.66335e-20)
(16.3206 -8.48506 3.27716e-22)
(15.1224 -6.14548 -4.90277e-20)
(14.4235 -4.37876 2.16512e-20)
(14.0505 -3.08196 1.78946e-20)
(13.8899 -2.13932 0)
(13.8748 -1.47932 4.37457e-23)
(13.9334 -1.03076 8.59653e-21)
(14.0257 -0.732292 0)
(14.1327 -0.536567 4.96578e-21)
(14.2493 -0.411621 3.78093e-21)
(14.3757 -0.336922 -2.96358e-21)
(14.5156 -0.301154 2.43148e-21)
(14.6724 -0.303731 0)
(14.838 -0.351811 0)
(14.9821 -0.422637 0)
(15.1018 -0.448506 0)
(15.2341 -0.41095 1.26746e-21)
(15.3921 -0.346376 -7.56703e-22)
(15.5638 -0.285966 2.95939e-24)
(15.7369 -0.240463 -3.38679e-22)
(15.9049 -0.208842 -3.09153e-22)
(16.0661 -0.18693 0)
(16.2194 -0.171181 1.9799e-22)
(16.3639 -0.156382 0)
(16.5034 -0.137855 0)
(16.6438 -0.118698 0)
(16.7849 -0.1049 0)
(16.9227 -0.0945775 0)
(17.0592 -0.0841079 0)
(17.1958 -0.0747966 -6.63909e-23)
(17.3319 -0.0658935 0)
(17.4699 -0.0578439 -6.59804e-23)
(17.6108 -0.0548334 -4.57703e-23)
(17.7524 -0.0599879 5.34273e-24)
(17.8925 -0.072169 -3.56348e-23)
(18.0314 -0.0928996 0)
(18.1577 -0.126232 -8.0348e-23)
(18.2409 -0.140484 -2.35676e-23)
(18.3092 -0.0958113 0)
(18.3879 -0.0522352 2.91997e-23)
(0.382311 -1.06074 -3.11739e-21)
(0.255875 -1.40165 0)
(0.1136 -1.54402 0)
(0.00979352 -1.55325 -4.31317e-21)
(-0.108035 -1.42786 0)
(-0.288679 -1.0218 4.2645e-21)
(-0.456813 0.0197007 -7.09288e-21)
(-0.136861 2.38943 0)
(0.28354 2.03222 3.85644e-19)
(0.125975 1.99559 -2.01439e-20)
(-0.266033 2.21764 1.50714e-20)
(-24.6055 19.4954 0)
(16.2442 -15.9673 0)
(16.8589 -16.0212 0)
(17.5509 -16.0103 -4.37998e-20)
(18.4166 -16.0814 -5.82788e-23)
(19.1958 -15.9152 0)
(19.4889 -15.3582 0)
(19.1502 -13.1069 2.2044e-19)
(16.2528 -10.4816 0)
(14.3133 -7.97893 -3.4291e-20)
(12.9864 -5.92202 0)
(12.1568 -4.31066 1.53748e-20)
(11.6849 -3.10085 1.30515e-20)
(11.4618 -2.21635 1.05752e-20)
(11.4138 -1.58556 8.4587e-21)
(11.4757 -1.14587 0)
(11.6 -0.845633 0)
(11.7572 -0.645353 -4.00692e-21)
(11.9322 -0.51688 0)
(12.1182 -0.441086 2.56941e-21)
(12.3129 -0.406455 2.19538e-21)
(12.514 -0.408783 0)
(12.7113 -0.446498 2.23647e-21)
(12.8837 -0.49993 2.38419e-21)
(13.0284 -0.525282 4.2909e-25)
(13.1714 -0.503135 1.47336e-21)
(13.3312 -0.451974 9.40654e-22)
(13.5068 -0.396469 0)
(13.6891 -0.349641 3.98852e-22)
(13.8705 -0.313944 -3.2758e-22)
(14.0471 -0.287234 3.23798e-22)
(14.2171 -0.266371 -1.71486e-22)
(14.3803 -0.247535 1.57134e-22)
(14.5396 -0.228027 -1.04533e-22)
(14.6989 -0.209367 -5.21359e-23)
(14.8586 -0.194544 0)
(15.0167 -0.182823 -2.18388e-23)
(15.1741 -0.172225 -9.92773e-24)
(15.3318 -0.162816 -5.16138e-23)
(15.4899 -0.154402 0)
(15.6496 -0.147654 0)
(15.8106 -0.145183 0)
(15.97 -0.148881 0)
(16.124 -0.158279 0)
(16.2678 -0.172816 -2.58106e-23)
(16.3895 -0.188361 -3.63972e-23)
(16.4763 -0.182738 0)
(16.5481 -0.140371 -5.2072e-26)
(16.6177 -0.0920047 3.12335e-23)
(0.186173 -0.762552 0)
(0.0923948 -1.22661 0)
(-0.042808 -1.44322 3.40563e-21)
(-0.15241 -1.49578 0)
(-0.289254 -1.39587 0)
(-0.484275 -1.045 -4.79807e-21)
(-0.742171 -0.215359 -4.37769e-21)
(-0.630953 1.13982 0)
(-0.0255182 1.88143 0)
(-0.0247429 2.14748 -3.835e-23)
(-2.99637 6.42092 0)
(0.265391 4.56567 0)
(16.3944 -16.3642 -1.29132e-20)
(16.7514 -16.3444 -3.15322e-20)
(17.4478 -16.4679 -4.32435e-20)
(18.3014 -16.5835 -5.69473e-20)
(18.804 -16.328 -6.20778e-20)
(19.0588 -15.6366 -2.82987e-22)
(16.6476 -12.4849 -1.06298e-20)
(14.1963 -9.70239 0)
(12.3521 -7.43969 0)
(11.0005 -5.60052 -2.39678e-20)
(10.0907 -4.15267 -2.15086e-20)
(9.53463 -3.05674 1.83204e-20)
(9.24838 -2.25307 7.54849e-21)
(9.1623 -1.67573 0)
(9.21439 -1.26669 -4.90588e-21)
(9.35432 -0.980655 3.94161e-21)
(9.54595 -0.785036 -3.16935e-21)
(9.76626 -0.656714 0)
(10.0013 -0.579318 2.1862e-21)
(10.2427 -0.542012 -1.94256e-21)
(10.4834 -0.538493 0)
(10.7127 -0.562843 2.02471e-21)
(10.9161 -0.598639 -2.15677e-21)
(11.0919 -0.617165 -1.98607e-21)
(11.2575 -0.602184 3.09183e-21)
(11.4303 -0.56164 0)
(11.6146 -0.512493 6.99295e-22)
(11.8059 -0.466697 0)
(11.9984 -0.428628 -3.59397e-22)
(12.1878 -0.398066 -2.68728e-24)
(12.3722 -0.373024 -1.51449e-22)
(12.5516 -0.350987 1.33669e-22)
(12.7279 -0.330316 0)
(12.9036 -0.311581 5.29832e-23)
(13.0792 -0.296107 3.27832e-23)
(13.2538 -0.283537 -1.23469e-24)
(13.4279 -0.272738 5.2006e-24)
(13.602 -0.263359 0)
(13.7761 -0.255246 0)
(13.9503 -0.248846 0)