/*--------------------------------*- C++ -*----------------------------------*\
| =========                 |                                                 |
| \\      /  F ield         | OpenFOAM: The Open Source CFD Toolbox           |
|  \\    /   O peration     | Version:  v1912                                 |
|   \\  /    A nd           | Website:  www.openfoam.com                      |
|    \\/     M anipulation  |                                                 |
\*---------------------------------------------------------------------------*/
FoamFile
{
    version     2.0;
    format      ascii;
    class       volScalarField;
    location    "30";
    object      alpha.water;
}
// * * * * * * * * * * * * * * * * * * * * * * * * * * * * * * * * * * * * * //

dimensions      [0 0 0 0 0 0 0];


internalField   nonuniform List<scalar> 
20320
(
1
1
1
1
1
1
1
1
1
1
1
1
1
1
1
1
1
1
1
1
1
1
1
1
1
1
1
1
1
1
1
1
1
1
1
1
1
1
1
1
1
1
1
1
1
1
1
1
1
1
1
1
1
1
1
1
1
1
1
1
1
1
1
1
1
1
1
1
1
1
1
1
1
1
1
1
1
1
1
1
1
1
1
1
1
1
1
1
1
1
1
1
1
1
1
1
1
1
1
1
1
1
1
1
1
1
1
1
1
1
1
1
1
1
1
1
1
1
1
1
1
1
1
1
1
1
1
1
1
1
1
1
1
1
1
1
1
1
1
1
1
1
1
1
1
1
1
1
1
1
1
1
1
1
1
1
1
1
1
1
1
1
1
1
1
1
1
1
1
1
1
1
1
1
1
1
1
1
1
1
1
1
1
1
1
1
1
1
1
1
1
1
1
1
1
1
1
1
1
1
1
1
1
1
1
1
1
1
1
1
1
1
1
1
1
1
1
1
1
1
1
1
1
1
1
1
1
1
1
1
1
1
1
1
1
1
1
1
1
1
1
1
1
1
1
1
1
1
1
1
1
1
1
1
1
1
1
1
1
1
1
1
1
1
1
1
1
1
1
1
1
1
1
1
1
1
1
1
1
1
1
1
1
1
1
1
1
1
1
1
1
1
1
1
1
1
1
1
1
1
1
1
1
1
1
1
1
1
1
1
1
1
1
1
1
1
1
1
1
1
1
1
1
1
1
1
1
1
1
1
1
1
1
1
1
1
1
1
1
1
1
1
1
1
1
1
1
1
1
1
1
1
1
1
1
1
1
1
1
1
1
1
1
1
1
1
1
1
1
1
1
1
1
1
1
1
1
1
1
1
1
1
1
1
1
1
1
1
1
1
1
1
1
1
1
1
1
1
1
1
0.998389
0.999643
0.999643
0.999643
0.998322
0.999984
0.317895
0.359863
0.314585
0.791722
0.951221
0.936058
1
0.99444
0.98835
0.993647
0.999966
0.481364
0.995015
0.968315
0.973066
0.983278
0.999872
0.84793
0.832989
0.832255
1
1
1
0.998717
0.977794
0.927243
1
1
0.999963
0.858797
0.148706
0.585561
0.999357
0.999345
0.999344
0.0672157
0.000576344
0.00317238
0.00150783
-2.19356e-21
-1.07245e-22
-1.45955e-22
-6.78936e-22
-8.62329e-22
0.00280187
0.030715
0.172888
0.184518
0.873385
1
1
0.999048
0.945514
0.837122
0.999999
0.984562
0.984525
0.996534
0.999855
0.999983
0.907114
0.0926626
1.21257e-23
2.0826e-21
0.90438
0.874518
0.955293
0.867933
1
1
0.971916
0.417419
0.543315
0.302531
0.361859
0.998342
0.999992
1
1
1
1
0.999999
0.992296
0.593882
0.949284
0.999969
0.343781
0.143428
0.142776
0.142776
0.389799
0.986795
0.236753
0.0947128
0.0949398
0.913342
1
1
0.976299
0.827962
0.812766
0.917359
0.92976
0.915778
0.98013
1
1
1
1
1
1
1
0.292234
6.99135e-19
0.999996
0.999999
0.99631
0.949588
0.972078
0.997429
0.966059
0.938471
3.3773e-20
-1.64008e-25
0.802775
0.999893
0.957985
0.711781
0.978339
0.940872
0.670788
-7.38719e-38
2.00341e-17
6.32912e-19
1.28796e-19
0.999671
1
1
1
1
1
1
1
1
1
0.999422
0.999999
1
1
1
0.963365
0.711474
0.871104
0.999555
1
1
1
1
1
1
1
1
1
1
1
1
1
1
1
0.999977
0.999992
1
0.337329
-2.4181e-21
0.977319
0.998333
0.927723
0.91401
0.924303
0.918664
0.971582
0.999743
0.52624
0.199243
1
0.99973
0.710617
0.117299
0.767366
0.00332035
0.0109272
7.23748e-20
3.80421e-08
-1.6579e-20
0.266447
1
1
1
1
1
1
1
1
1
1
1
1
1
1
1
1
1
1
1
1
1
1
1
1
1
1
1
1
1
1
1
1
1
1
0.999991
0.999995
1
1
0.0732659
0.92566
0.852249
0.870653
0.990231
0.999582
1
1
0.999985
1
1
0.994716
0.901671
0.290087
0.426945
0.0136342
0.54907
0.79725
0.434025
2.89738e-07
6.62847e-26
0.892132
1
1
1
1
1
1
1
1
1
1
1
1
1
1
1
1
1
1
1
1
1
1
1
1
1
1
1
1
1
1
1
1
1
1
1
1
1
1
0.750899
1
0.99845
1
1
0.999737
0.999008
1
0.999939
1
0.971548
1
0.54914
0.659909
0.739779
-5.5922e-20
-3.00428e-22
0.134194
0.72053
-1.12704e-22
0.307759
1
1
1
1
1
1
1
1
1
1
1
1
1
1
1
1
1
1
1
1
1
1
1
1
1
1
1
1
1
1
1
1
0.902466
0.254434
0.389739
0.955149
1
1
1
1
1
1
0.833203
0.916419
0.995425
0.999483
1
0.999999
0.970718
0.971106
1
0.26133
-1.15462e-19
0.000974807
7.93409e-10
6.1508e-08
0.000121299
0.261494
1.976e-18
1
1
1
1
1
1
1
0.998708
0.966492
0.935001
0.944982
0.971335
0.993813
1
1
1
1
1
1
1
1
0.985461
0.857914
0.64111
0.302516
0.230613
0.348732
0.178397
1.53249e-19
-1.16247e-38
-9.72125e-37
7.66205e-07
4.70513e-23
-2.65964e-22
1.26486e-12
2.31554e-26
-4.38274e-24
0.141995
0.992251
1
1
0.999949
0.814707
0.944049
1
1
1
1
0.999732
0.978142
1
1
0.450435
2.01872e-31
9.09434e-10
1.16992e-09
8.05912e-07
0.541963
0.0512786
0.897876
1
1
1
1
1
0.895044
0.174547
-4.80509e-36
-2.94388e-20
-1.71422e-20
-1.23001e-20
-6.75601e-21
0.000311161
0.0117934
0.0340095
0.0445829
0.0719309
0.0963506
0.0581292
-3.65917e-20
-3.91454e-21
-6.50485e-21
-6.50033e-21
-8.24732e-21
-9.54683e-21
-1.053e-20
-1.13541e-20
-1.04291e-20
3.19014e-20
5.91534e-18
2.93837e-16
1.85143e-14
6.44512e-12
1.4888e-09
1.02112e-09
1.63826e-08
7.43826e-07
1.68055e-07
0.0061194
0.89095
1
0.854461
0.827238
1
0.967637
0.83847
0.83847
0.838659
1
1
1
0.941568
0.961474
-1.15113e-27
8.74213e-09
8.52151e-07
0.0101328
0.351778
0.243264
1
1
1
1
1
0.65693
3.86583e-19
-6.52454e-21
-8.9186e-21
-9.70294e-21
-1.03394e-20
-1.10996e-20
-1.22465e-20
-1.34613e-20
-1.47964e-20
-1.59615e-20
-1.60802e-20
-1.48607e-20
-1.2898e-20
-1.10709e-20
-9.61768e-21
-8.61901e-21
-8.16207e-21
-8.07916e-21
-8.2619e-21
-8.66652e-21
-9.232e-21
-9.7131e-21
-6.00735e-21
9.68555e-19
2.55877e-16
2.34396e-14
9.30975e-13
1.8195e-11
8.62443e-11
5.80479e-11
1.6575e-14
3.13034e-05
2.77541e-05
9.11293e-09
-5.56933e-21
0.557333
0.84781
0.999858
1
0.999169
0.957111
0.994397
0.988105
0.974351
0.933998
0.996697
0.927145
0.999701
0.518009
2.12323e-08
1.79682e-08
0.928706
-1.27579e-19
0.981531
1
1
1
1
0.730873
-1.19436e-19
-1.03411e-20
-8.30149e-21
-7.99303e-21
-8.12364e-21
-7.69531e-21
-7.03542e-21
-6.45094e-21
-6.06192e-21
-5.87594e-21
-5.80633e-21
-5.73517e-21
-5.62862e-21
-5.54736e-21
-5.57164e-21
-5.71258e-21
-5.96987e-21
-6.34581e-21
-6.77553e-21
-7.18029e-21
-7.53005e-21
-7.81074e-21
-7.6087e-21
-2.02349e-21
2.67378e-19
1.2239e-17
1.88551e-16
1.85701e-16
6.66223e-15
2.26007e-13
2.09985e-11
1.15873e-10
1.74317e-11
2.54054e-20
9.587e-13
5.45347e-12
0
0.999832
0.999238
0.957028
0.698555
0.982821
0.906659
0.946494
0.839679
0.956195
0.97836
0.990788
0.999701
1
0.440153
0.510031
0.281529
0.373132
1
1
1
1
1
8.49362e-19
-9.45309e-21
-8.2815e-21
-6.56186e-21
-6.16255e-21
-5.80468e-21
-5.34474e-21
-4.92701e-21
-4.62453e-21
-4.41278e-21
-4.26514e-21
-4.18456e-21
-4.18371e-21
-4.27074e-21
-4.44223e-21
-4.67775e-21
-4.92778e-21
-5.14858e-21
-5.32692e-21
-5.43073e-21
-5.43525e-21
-5.36596e-21
-5.26355e-21
-5.15488e-21
-5.04378e-21
-4.92671e-21
-4.83882e-21
-4.83677e-21
-4.94877e-21
-5.17575e-21
-5.51956e-21
-5.98363e-21
1.93473e-19
6.24722e-19
-7.00018e-22
-2.7571e-21
-4.58495e-21
-5.98129e-21
0.999802
0.999999
0.655855
1
1
1
0.951854
0.929161
1
1
1
0.992956
0.98694
1
1
-1.28238e-19
0.950783
1
1
1
1
0.0938546
-2.28571e-37
-5.43945e-21
-5.21042e-21
-4.51893e-21
-3.88923e-21
-3.5127e-21
-3.33018e-21
-3.26309e-21
-3.25858e-21
-3.28224e-21
-3.32342e-21
-3.38695e-21
-3.47571e-21
-3.58383e-21
-3.69842e-21
-3.79761e-21
-3.84584e-21
-3.82459e-21
-3.74544e-21
-3.61376e-21
-3.43897e-21
-3.25126e-21
-3.08103e-21
-2.9447e-21
-2.84553e-21
-2.78451e-21
-2.77326e-21
-2.82678e-21
-2.95022e-21
-3.14295e-21
-3.4104e-21
-3.76603e-21
-4.22695e-21
-4.8094e-21
-5.5275e-21
-6.39419e-21
-7.40408e-21
-8.48542e-21
0.999993
0.982314
0.657777
1
1
0.999802
0.992188
0.999705
1
1
0.986499
0.973605
0.999821
1
0.154331
0.0396769
1
1
1
1
0.629549
-2.32874e-20
-4.30492e-21
-4.79208e-21
-3.93898e-21
-3.0798e-21
-2.56848e-21
-2.34326e-21
-2.29357e-21
-2.33284e-21
-2.40341e-21
-2.47449e-21
-2.53448e-21
-2.57913e-21
-2.60396e-21
-2.60491e-21
-2.57982e-21
-2.52439e-21
-2.43062e-21
-2.30078e-21
-2.14916e-21
-1.98698e-21
-1.82546e-21
-1.68045e-21
-1.56479e-21
-1.48385e-21
-1.43728e-21
-1.42346e-21
-1.44307e-21
-1.49766e-21
-1.58749e-21
-1.71414e-21
-1.88425e-21
-2.1092e-21
-2.40192e-21
-2.77637e-21
-3.24999e-21
-3.8425e-21
-4.55573e-21
-5.33044e-21
0.999993
0.655855
0.98686
1
0.999582
0.99999
1
0.858012
0.819598
0.98851
0.981868
0.998695
1
0.758477
-3.42567e-20
0.751852
1
1
1
1
6.98824e-19
-4.81573e-21
-4.38896e-21
-4.0095e-21
-2.97412e-21
-2.16021e-21
-1.72356e-21
-1.54715e-21
-1.51296e-21
-1.54368e-21
-1.59191e-21
-1.63102e-21
-1.64835e-21
-1.63892e-21
-1.60167e-21
-1.53912e-21
-1.45614e-21
-1.35706e-21
-1.24502e-21
-1.12608e-21
-1.00871e-21
-8.99601e-22
-8.04134e-22
-7.27327e-22
-6.7206e-22
-6.38383e-22
-6.24508e-22
-6.28233e-22
-6.48101e-22
-6.83586e-22
-7.35173e-22
-8.05197e-22
-8.9848e-22
-1.02136e-21
-1.18044e-21
-1.38305e-21
-1.63829e-21
-1.95285e-21
-2.31604e-21
-2.67686e-21
0.981343
0.822414
1
0.91411
1
1
0.995777
0.99796
0.998527
0.999984
0.999931
0.969189
0.990426
0.0116549
-1.95065e-19
0.99582
1
1
1
0.478626
2.27613e-36
-4.14899e-21
-3.99912e-21
-3.02985e-21
-2.06529e-21
-1.42813e-21
-1.09268e-21
-9.44938e-22
-8.94515e-22
-8.87725e-22
-8.93546e-22
-8.94031e-22
-8.79765e-22
-8.47138e-22
-7.96799e-22
-7.32621e-22
-6.60055e-22
-5.84241e-22
-5.09334e-22
-4.39167e-22
-3.76957e-22
-3.2454e-22
-2.82747e-22
-2.5184e-22
-2.31486e-22
-2.20741e-22
-2.18288e-22
-2.22789e-22
-2.33294e-22
-2.49517e-22
-2.71986e-22
-3.02182e-22
-3.42427e-22
-3.95386e-22
-4.63756e-22
-5.50501e-22
-6.58524e-22
-7.87493e-22
-9.2685e-22
-1.04813e-21
1
1
0.651228
0.906726
0.987709
0.881799
1
1
0.999359
0.954481
0.881846
0.909154
0.975138
-2.34618e-22
0.0564897
1
1
1
1
0.00755375
-2.20462e-21
-3.8203e-21
-3.11239e-21
-2.11419e-21
-1.3612e-21
-8.89559e-22
-6.36487e-22
-5.12755e-22
-4.55467e-22
-4.29367e-22
-4.14655e-22
-3.99829e-22
-3.78784e-22
-3.49474e-22
-3.12993e-22
-2.72388e-22
-2.31232e-22
-1.92482e-22
-1.58034e-22
-1.28891e-22
-1.05321e-22
-8.70259e-23
-7.34655e-23
-6.40721e-23
-5.82985e-23
-5.55755e-23
-5.5315e-23
-5.69912e-23
-6.02646e-23
-6.50693e-23
-7.16447e-23
-8.0516e-23
-9.24057e-23
-1.08113e-22
-1.28456e-22
-1.54256e-22
-1.8601e-22
-2.22663e-22
-2.59513e-22
-2.86802e-22
1
0.892727
0.615175
1
0.453926
1
0.936125
0.667147
0.988043
0.994625
0.984458
1
0.857621
-6.4602e-20
0.711905
1
1
1
0.750459
-7.32219e-20
-3.49145e-21
-3.07325e-21
-2.206e-21
-1.41838e-21
-8.53893e-22
-5.10025e-22
-3.28466e-22
-2.3854e-22
-1.94186e-22
-1.70872e-22
-1.55818e-22
-1.42322e-22
-1.27335e-22
-1.10292e-22
-9.21423e-23
-7.44165e-23
-5.84524e-23
-4.50105e-23
-3.42842e-23
-2.60806e-23
-2.00174e-23
-1.56614e-23
-1.26318e-23
-1.06389e-23
-9.46628e-24
-8.93433e-24
-8.88211e-24
-9.17973e-24
-9.75014e-24
-1.05805e-23
-1.17207e-23
-1.32713e-23
-1.53677e-23
-1.81602e-23
-2.1805e-23
-2.64432e-23
-3.21052e-23
-3.84619e-23
-4.44663e-23
-4.82327e-23
0.348972
0.845567
1
0.729955
0.625319
0.41253
0.159029
1
0.999922
0.995845
0.9958
1
0.462064
-6.65083e-20
0.985872
1
1
1
0.114838
-1.79059e-20
-3.67067e-21
-2.36322e-21
-1.55537e-21
-9.22034e-22
-4.96648e-22
-2.59495e-22
-1.44787e-22
-9.21858e-23
-6.73955e-23
-5.42755e-23
-4.56305e-23
-3.83751e-23
-3.14433e-23
-2.47893e-23
-1.87565e-23
-1.36761e-23
-9.69018e-24
-6.74281e-24
-4.66168e-24
-3.24041e-24
-2.2905e-24
-1.66383e-24
-1.25637e-24
-1.00139e-24
-8.56489e-25
-7.91055e-25
-7.80468e-25
-8.06189e-25
-8.57592e-25
-9.32233e-25
-1.03475e-24
-1.17525e-24
-1.36752e-24
-1.62759e-24
-1.97278e-24
-2.41842e-24
-2.96668e-24
-3.58158e-24
-4.15385e-24
-4.49573e-24
0.0444769
0.0536794
0.930415
0.191836
0.860623
0.242334
1
1
1
1
1
0.564466
-5.97095e-21
5.3241e-19
1
1
1
1
-6.65899e-20
-4.45628e-21
-3.07166e-21
-1.91535e-21
-1.10418e-21
-5.68452e-22
-2.60062e-22
-1.13305e-22
-5.2654e-23
-2.85598e-23
-1.82854e-23
-1.30731e-23
-9.75963e-24
-7.24888e-24
-5.21448e-24
-3.59235e-24
-2.36854e-24
-1.50414e-24
-9.3007e-25
-5.67472e-25
-3.46612e-25
-2.14961e-25
-1.37057e-25
-9.07513e-26
-6.30064e-26
-4.65791e-26
-3.75172e-26
-3.33965e-26
-3.24568e-26
-3.34223e-26
-3.55458e-26
-3.85868e-26
-4.27123e-26
-4.84076e-26
-5.64016e-26
-6.76104e-26
-8.31179e-26
-1.04096e-25
-1.31294e-25
-1.6385e-25
-1.97483e-25
-2.23681e-25
0.0814664
0.050644
0.89902
0.213285
0.178752
0.984305
0.744579
0.397297
0.168241
0.0318509
0.00701211
-4.34802e-21
1.64959e-10
0.626835
1
1
1
0.470244
3.87734e-25
-3.55787e-21
-2.69309e-21
-1.48362e-21
-7.38902e-22
-3.19169e-22
-1.18363e-22
-4.08801e-23
-1.51327e-23
-6.74402e-24
-3.63885e-24
-2.2025e-24
-1.38341e-24
-8.58206e-25
-5.13029e-25
-2.93058e-25
-1.60338e-25
-8.48297e-26
-4.40269e-26
-2.27974e-26
-1.19882e-26
-6.50826e-27
-3.69706e-27
-2.21769e-27
-1.41201e-27
-9.61325e-28
-7.14332e-28
-5.95962e-28
-5.6006e-28
-5.72971e-28
-6.13089e-28
-6.71459e-28
-7.50344e-28
-8.61571e-28
-1.02685e-27
-1.2789e-27
-1.66443e-27
-2.24893e-27
-3.11809e-27
-4.35529e-27
-5.99839e-27
-7.96402e-27
0.118128
0.0435149
0.0652958
0.318363
0.0464111
0.0560655
8.68778e-23
8.8868e-11
1.11434e-10
2.83792e-12
-2.66668e-26
5.31289e-08
2.31367e-26
0.968453
1
1
1
0.0632541
-2.36051e-21
-3.65413e-21
-2.17583e-21
-1.07217e-21
-4.54497e-22
-1.58126e-22
-4.50478e-23
-1.16058e-23
-3.23078e-24
-1.12154e-24
-4.80326e-25
-2.29581e-25
-1.12625e-25
-5.41726e-26
-2.50522e-26
-1.11049e-26
-4.75525e-27
-1.99686e-27
-8.38451e-28
-3.59546e-28
-1.60733e-28
-7.62207e-29
-3.88303e-29
-2.1416e-29
-1.28378e-29
-8.38742e-30
-6.01339e-30
-4.83204e-30
-4.4702e-30
-4.73083e-30
-5.48552e-30
-6.70079e-30
-8.48061e-30
-1.1097e-29
-1.50608e-29
-2.12895e-29
-3.14243e-29
-4.83346e-29
-7.69189e-29
-1.25123e-28
-2.04285e-28
-3.27848e-28
3.75753e-09
7.0004e-05
0.0594133
0.00177093
0.014233
-2.34205e-23
1.09195e-11
2.04602e-12
6.22353e-05
0.000587924
2.16033e-05
-2.42762e-20
-1.08323e-18
1
1
1
1
1.61943e-19
-9.17994e-21
-3.14103e-21
-1.64661e-21
-7.20414e-22
-2.51867e-22
-6.70431e-23
-1.3687e-23
-2.41806e-24
-4.64566e-25
-1.15566e-25
-3.57771e-26
-1.21764e-26
-4.19776e-27
-1.41367e-27
-4.60973e-28
-1.46747e-28
-4.64013e-29
-1.49015e-29
-4.9811e-30
-1.77382e-30
-6.87017e-31
-2.94539e-31
-1.42145e-31
-7.86544e-32
-5.09249e-32
-3.91383e-32
-3.55359e-32
-3.71117e-32
-4.29942e-32
-5.35703e-32
-7.04212e-32
-9.63005e-32
-1.35235e-31
-1.93382e-31
-2.80683e-31
-4.13317e-31
-6.1767e-31
-9.38821e-31
-1.4775e-30
-2.49461e-30
-4.56971e-30
-8.71263e-30
3.71054e-09
7.0004e-05
0.0632864
3.56706e-08
5.34345e-11
1.55586e-09
2.88719e-09
1.60337e-23
0.00138987
0.00215984
0.000227266
-1.82363e-20
0.678896
1
1
1
0.443577
-1.85091e-20
-4.39663e-21
-2.48351e-21
-1.18908e-21
-4.46915e-22
-1.22954e-22
-2.34097e-23
-3.10231e-24
-3.29106e-25
-3.78264e-26
-5.84708e-27
-1.11903e-27
-2.29578e-28
-4.72736e-29
-9.68637e-30
-2.00557e-30
-4.29856e-31
-9.80693e-32
-2.44121e-32
-6.79324e-33
-2.17356e-33
-8.33112e-34
-4.04716e-34
-2.60406e-34
-2.17917e-34
-2.20172e-34
-2.49055e-34
-3.00374e-34
-3.76301e-34
-4.83328e-34
-6.3258e-34
-8.4141e-34
-1.13672e-33
-1.56013e-33
-2.17697e-33
-3.09073e-33
-4.46825e-33
-6.58082e-33
-9.87514e-33
-1.50914e-32
-2.35386e-32
-3.98659e-32
-8.46508e-32
3.68602e-09
0.000699252
2.35263e-20
6.09977e-06
2.72918e-07
7.85418e-10
1.88891e-09
1.15304e-09
8.78418e-11
0.00215959
6.16051e-05
-1.89411e-20
0.994398
1
1
1
0.0588856
-6.16348e-21
-3.46972e-21
-1.88838e-21
-8.14852e-22
-2.52046e-22
-5.13883e-23
-6.37251e-24
-4.67794e-25
-2.33393e-26
-1.2147e-27
-8.99686e-29
-8.2782e-30
-8.18544e-31
-8.24354e-32
-8.94691e-33
-1.11895e-33
-1.66437e-34
-2.99096e-35
-6.88505e-36
-2.2747e-36
-1.18232e-36
-8.98774e-37
-8.48205e-37
-8.90487e-37
-9.89359e-37
-1.13799e-36
-1.34039e-36
-1.60702e-36
-1.95473e-36
-2.40874e-36
-3.00558e-36
-3.80053e-36
-4.87769e-36
-6.36558e-36
-8.46753e-36
-1.15075e-35
-1.60193e-35
-2.28984e-35
-3.36838e-35
-5.10787e-35
-7.98928e-35
-1.29722e-34
-2.67474e-34
1.27469e-13
6.42977e-06
7.94934e-06
1.75519e-05
6.00564e-27
3.38899e-08
8.00929e-27
-9.97054e-28
2.86962e-05
0.00215899
-1.64382e-22
0.158927
1
1
1
1
2.42348e-19
-8.23797e-21
-3.11439e-21
-1.4423e-21
-5.24606e-22
-1.26554e-22
-1.76859e-23
-1.23413e-24
-3.70448e-26
-4.72938e-28
-8.06363e-30
-4.52365e-31
-2.09525e-32
-7.84254e-34
-2.74275e-35
-1.13529e-36
-7.22952e-38
-1.02947e-38
-3.94919e-39
-2.6869e-39
-2.21389e-39
-1.98725e-39
-1.8815e-39
-1.85463e-39
-1.88905e-39
-1.97652e-39
-2.11552e-39
-2.30745e-39
-2.55824e-39
-2.87864e-39
-3.28628e-39
-3.80892e-39
-4.48922e-39
-5.39537e-39
-6.63277e-39
-8.37166e-39
-1.08935e-38
-1.46785e-38
-2.05766e-38
-3.01486e-38
-4.63578e-38
-7.49619e-38
-1.27307e-37
-2.5836e-37
2.15749e-13
1.97738e-22
0.0015499
0.0026131
-4.30482e-27
7.72947e-08
1.66401e-09
7.0717e-07
0.00112465
3.77073e-05
-7.5229e-20
0.863827
1
1
1
0.416181
-1.02912e-21
-4.39695e-21
-2.51799e-21
-1.03572e-21
-3.09183e-22
-5.49492e-23
-4.71222e-24
-1.42254e-25
-7.32766e-28
-2.08378e-30
-4.69533e-32
-6.68049e-34
-5.93963e-36
-3.97814e-38
-2.8973e-40
-1.9379e-41
-8.20296e-42
-4.71589e-42
-3.03313e-42
-2.12339e-42
-1.59331e-42
-1.26348e-42
-1.05856e-42
-9.26275e-43
-8.41477e-43
-7.8951e-43
-7.62445e-43
-7.55137e-43
-7.65191e-43
-7.92178e-43
-8.37411e-43
-9.05168e-43
-1.00267e-42
-1.14187e-42
-1.34232e-42
-1.63672e-42
-2.08047e-42
-2.77343e-42
-3.90196e-42
-5.8303e-42
-9.30455e-42
-1.58924e-41
-2.88016e-41
-6.41465e-41
1.45345e-13
1.18021e-05
0.00220476
0.000356333
9.78256e-08
5.79056e-07
1.06408e-07
5.2591e-07
0.00118956
-2.80806e-22
-1.60817e-18
1
1
1
1
0.0406321
-3.61364e-21
-3.44449e-21
-1.88561e-21
-6.94941e-22
-1.63461e-22
-1.97857e-23
-8.68628e-25
-5.90624e-27
-1.37226e-30
-1.17656e-32
-6.2476e-35
-1.48723e-37
-3.212e-41
-1.52074e-43
-2.3347e-44
-6.99965e-45
-2.46045e-45
-9.9375e-46
-4.59155e-46
-2.39992e-46
-1.39096e-46
-9.05501e-47
-6.49747e-47
-4.97592e-47
-4.04109e-47
-3.44496e-47
-3.05416e-47
-2.79788e-47
-2.63522e-47
-2.55171e-47
-2.53391e-47
-2.58113e-47
-2.70462e-47
-2.92535e-47
-3.28166e-47
-3.84161e-47
-4.7234e-47
-6.14515e-47
-8.53116e-47
-1.2744e-46
-2.06318e-46
-3.62771e-46
-6.83659e-46
-2.05429e-45
0.000976039
-3.62259e-24
0.000451904
9.30485e-05
8.26299e-06
1.20845e-25
6.20579e-08
2.42332e-08
0.000209748
-1.88833e-20
0.687114
1
1
1
1
9.04805e-21
-4.59482e-21
-2.79944e-21
-1.38883e-21
-4.3039e-22
-7.51361e-23
-5.5146e-24
-8.65084e-26
-2.9278e-30
-1.1066e-32
-3.14307e-35
-1.84038e-38
-8.00784e-43
-4.12525e-46
-3.90814e-47
-4.94731e-48
-6.69503e-49
-1.02683e-49
-1.92294e-50
-4.65642e-51
-1.49581e-51
-6.16142e-52
-3.05277e-52
-1.7459e-52
-1.10315e-52
-7.49186e-53
-5.60283e-53
-4.39152e-53
-3.57843e-53
-3.00901e-53
-2.59478e-53
-2.29317e-53
-2.08874e-53
-1.96398e-53
-1.9167e-53
-1.95357e-53
-2.09356e-53
-2.38092e-53
-2.89978e-53
-3.81843e-53
-5.49452e-53
-8.71148e-53
-1.52301e-52
-2.87991e-52
-3.88866e-51
0.00367118
0.00815051
0.00161392
5.99716e-05
1.80247e-05
8.40916e-10
2.00624e-07
0.000457398
-4.63956e-23
-4.81668e-21
1
1
1
1
0.307483
-6.02009e-37
-3.12869e-21
-2.30616e-21
-9.72323e-22
-2.38634e-22
-2.8654e-23
-1.0508e-24
-1.63739e-27
-3.98058e-32
-7.45177e-35
-2.80859e-38
-5.77463e-44
-5.26345e-48
-2.18397e-49
-8.2782e-51
-2.61973e-52
-7.17076e-54
-1.9835e-55
-7.17277e-57
-4.28311e-58
-4.45669e-59
-7.34997e-60
-1.70949e-60
-5.17417e-61
-1.97542e-61
-9.23712e-62
-4.92048e-62
-2.87144e-62
-1.76667e-62
-1.18066e-62
-8.40331e-63
-6.24458e-63
-4.88462e-63
-4.09294e-63
-3.86622e-63
-4.50315e-63
-6.99722e-63
-1.46395e-62
-3.82641e-62
-1.16552e-61
-3.96049e-61
-1.45539e-60
-5.54414e-60
-2.04911e-59
-6.91261e-59
0.00291514
0.00249996
4.32427e-11
4.32427e-11
2.93535e-10
8.36681e-29
1.74261e-07
0.000174243
-2.86684e-20
0.56665
1
1
1
1
0.00246313
-1.94854e-21
-3.01115e-21
-1.79365e-21
-6.23388e-22
-1.14851e-22
-8.45574e-24
-1.02637e-25
-4.32014e-31
-6.13921e-34
-2.60167e-37
-4.09851e-44
-5.55212e-49
-7.08863e-51
-7.31696e-53
-4.25042e-55
-6.68761e-58
-1.06493e-60
-2.12865e-62
-4.07895e-64
-7.01623e-66
-1.08172e-67
-2.54907e-69
-3.6162e-69
-1.14553e-68
-3.43968e-68
-9.74299e-68
-2.61416e-67
-6.68094e-67
-1.63971e-66
-3.90005e-66
-9.08785e-66
-2.09995e-65
-4.87993e-65
-1.1575e-64
-2.84686e-64
-7.39095e-64
-2.03787e-63
-6.07014e-63
-1.95365e-62
-6.8636e-62
-2.65139e-61
-1.13105e-60
-5.2383e-60
-2.46538e-59
-1.07517e-58
0.00614157
0.000286872
6.35584e-10
2.37132e-10
2.31647e-09
2.80505e-06
9.58217e-05
4.1489e-23
-8.38662e-19
1
1
1
1
0.789187
5.33015e-20
-4.08948e-21
-2.66293e-21
-1.29627e-21
-3.59352e-22
-4.60346e-23
-1.70554e-24
-1.02718e-27
-1.09254e-32
-6.36107e-36
-1.70257e-40
-5.06029e-49
-2.06886e-51
-7.13973e-54
-4.86903e-56
-1.23216e-57
-3.19697e-59
-7.51366e-61
-1.59412e-62
-3.04792e-64
-5.2415e-66
-8.09216e-68
-1.24775e-69
-4.82584e-70
-1.62386e-69
-5.33597e-69
-1.65678e-68
-4.84894e-68
-1.34152e-67
-3.53692e-67
-8.9995e-67
-2.24495e-66
-5.59314e-66
-1.41976e-65
-3.74229e-65
-1.03938e-64
-3.06738e-64
-9.62769e-64
-3.19903e-63
-1.11796e-62
-4.11577e-62
-1.63765e-61
-7.14873e-61
-3.58094e-60
-1.98686e-59
-1.08928e-58
0.00255936
7.36421e-06
6.88358e-10
6.35834e-09
8.06411e-10
7.78113e-10
4.91534e-05
-1.45074e-20
0.606691
1
1
1
1
0.122164
-1.71092e-20
-3.38967e-21
-2.17229e-21
-8.70085e-22
-1.81244e-22
-1.43271e-23
-1.75365e-25
-2.95497e-31
-2.44367e-34
-2.31303e-38
-3.13191e-48
-5.47112e-51
-3.76573e-53
-1.09719e-54
-3.33296e-56
-9.30686e-58
-2.37262e-59
-5.5009e-61
-1.15618e-62
-2.19824e-64
-3.77297e-66
-5.83471e-68
-8.22256e-70
-5.22791e-71
-1.57004e-70
-5.55346e-70
-1.86877e-69
-5.97719e-69
-1.81661e-68
-5.25762e-68
-1.4649e-67
-4.00772e-67
-1.10677e-66
-3.17277e-66
-9.66956e-66
-3.1729e-65
-1.12016e-64
-4.20867e-64
-1.65597e-63
-6.71218e-63
-2.76154e-62
-1.14468e-61
-4.81983e-61
-2.14388e-60
-1.08865e-59
-6.58896e-59
0.0103432
4.32427e-11
1.55825e-07
4.45602e-09
5.83646e-10
1.03448e-05
8.55069e-25
-1.02451e-18
1
1
1
1
1
6.06435e-20
-5.67276e-21
-3.318e-21
-1.67725e-21
-5.27085e-22
-7.62299e-23
-3.05018e-24
-1.68689e-27
-1.03666e-32
-2.728e-36
-8.95885e-43
-1.30455e-49
-7.92578e-52
-2.65873e-53
-8.51201e-55
-2.51898e-56
-6.85733e-58
-1.71154e-59
-3.90184e-61
-8.09855e-63
-1.52818e-64
-2.61437e-66
-4.04445e-68
-5.65038e-70
-9.7412e-72
-1.06428e-71
-4.00656e-71
-1.44951e-70
-4.99801e-70
-1.6472e-69
-5.23416e-69
-1.6224e-68
-4.99814e-68
-1.57748e-67
-5.28585e-67
-1.92441e-66
-7.63013e-66
-3.24705e-65
-1.45327e-64
-6.70834e-64
-3.13846e-63
-1.46621e-62
-6.75662e-62
-3.04869e-61
-1.34915e-60
-5.99701e-60
-2.73261e-59
1.95928e-05
0.00208042
1.18112e-07
5.83646e-10
7.13779e-06
1.17536e-24
1.72756e-25
0.82499
1
1
1
1
0.284568
-4.55793e-21
-4.62177e-21
-2.73416e-21
-1.14566e-21
-2.76188e-22
-2.49235e-23
-3.32524e-25
-6.58748e-31
-3.07736e-34
-9.42027e-39
-2.52007e-43
-3.17331e-50
-6.18513e-52
-2.08832e-53
-6.50495e-55
-1.86958e-56
-4.95032e-58
-1.2054e-59
-2.69185e-61
-5.50012e-63
-1.02639e-64
-1.74403e-66
-2.68971e-68
-3.7562e-70
-4.85785e-72
-5.61968e-73
-2.05349e-72
-7.91957e-72
-2.92065e-71
-1.03478e-70
-3.5531e-70
-1.20262e-69
-4.14444e-69
-1.5119e-68
-6.02686e-68
-2.64847e-67
-1.26098e-66
-6.32805e-66
-3.26532e-65
-1.70074e-64
-8.80138e-64
-4.45756e-63
-2.17307e-62
-9.99969e-62
-4.21934e-61
-1.53615e-60
-4.09666e-60
2.84942e-06
0.000310511
5.85903e-13
2.48944e-05
1.82063e-06
4.39112e-08
0.227423
1
1
1
1
1
-1.6665e-19
-5.2352e-21
-3.38895e-21
-1.93696e-21
-6.96704e-22
-1.2161e-22
-5.63451e-24
-3.5243e-27
-1.54255e-31
-5.18532e-35
-3.70308e-39
-8.2913e-44
-1.82444e-50
-4.80469e-52
-1.59779e-53
-4.86914e-55
-1.36312e-56
-3.51141e-58
-8.32505e-60
-1.8152e-61
-3.63419e-63
-6.67414e-65
-1.12137e-66
-1.71844e-68
-2.39533e-70
-3.02958e-72
-5.27891e-74
-7.80932e-74
-3.1635e-73
-1.23433e-72
-4.63527e-72
-1.68935e-71
-6.10012e-71
-2.2607e-70
-9.03614e-70
-4.09278e-69
-2.09766e-68
-1.15725e-67
-6.54676e-67
-3.68486e-66
-2.02403e-65
-1.06563e-64
-5.25919e-64
-2.36398e-63
-9.31353e-63
-3.06455e-62
-7.92287e-62
-1.47092e-61
5.85903e-13
5.85902e-13
1.37674e-05
1.27106e-06
2.20205e-06
2.36774e-17
1
1
1
1
1
0.407913
0
-3.11327e-21
-2.38266e-21
-1.2583e-21
-3.76545e-22
-4.26397e-23
-6.62768e-25
-2.72132e-29
-6.93754e-32
-3.21573e-35
-2.75829e-39
-3.54652e-44
-1.24043e-50
-3.53674e-52
-1.16982e-53
-3.5215e-55
-9.67745e-57
-2.43665e-58
-5.63496e-60
-1.19839e-61
-2.34486e-63
-4.22185e-65
-6.98439e-67
-1.05839e-68
-1.46449e-70
-1.84423e-72
-2.15666e-74
-2.5176e-75
-9.75498e-75
-3.96191e-74
-1.54773e-73
-5.85788e-73
-2.18329e-72
-8.25199e-72
-3.33478e-71
-1.52464e-70
-8.07549e-70
-4.75073e-69
-2.85706e-68
-1.65399e-67
-8.96665e-67
-4.45707e-66
-1.98477e-65
-7.6841e-65
-2.49828e-64
-6.55752e-64
-1.3329e-63
-1.99864e-63
4.66972e-09
3.61412e-08
5.85903e-13
3.9347e-06
4.76631e-07
0.966267
1
1
1
1
1
-1.45328e-18
-2.91638e-21
-2.60729e-21
-1.70041e-21
-7.76085e-22
-1.76665e-22
-1.06918e-23
-9.76651e-27
-1.04583e-29
-2.95984e-32
-1.65975e-35
-1.52579e-39
-1.61795e-44
-8.03453e-51
-2.42041e-52
-8.02325e-54
-2.40999e-55
-6.57096e-57
-1.63252e-58
-3.7083e-60
-7.72362e-62
-1.4786e-63
-2.60612e-65
-4.22881e-67
-6.30533e-69
-8.62013e-71
-1.07715e-72
-1.22628e-74
-1.80418e-76
-2.39105e-76
-1.00025e-75
-4.02592e-75
-1.5576e-74
-5.8422e-74
-2.16728e-73
-8.23175e-73
-3.37394e-72
-1.57389e-71
-8.39518e-71
-4.85349e-70
-2.78403e-69
-1.47561e-68
-6.98113e-68
-2.88121e-67
-1.01114e-66
-2.92522e-66
-6.73621e-66
-1.1914e-65
-1.57197e-65
1.07288e-08
1.0872e-06
2.69845e-05
1.6792e-06
0.884455
1
1
1
1
1
0.371617
-3.16233e-20
-2.67483e-21
-2.06746e-21
-1.21667e-21
-4.45141e-22
-6.90715e-23
-1.56411e-24
-2.03876e-27
-3.51592e-30
-1.00458e-32
-6.13826e-36
-5.81458e-40
-5.83022e-45
-4.72702e-51
-1.52851e-52
-5.07731e-54
-1.52783e-55
-4.16532e-57
-1.03123e-58
-2.32405e-60
-4.78169e-62
-9.00958e-64
-1.55985e-65
-2.48502e-67
-3.64207e-69
-4.90341e-71
-6.04925e-73
-6.81532e-75
-7.08408e-77
-5.00887e-78
-1.9096e-77
-7.96204e-77
-3.16545e-76
-1.20396e-75
-4.41159e-75
-1.57981e-74
-5.67689e-74
-2.12928e-73
-8.70756e-73
-3.94955e-72
-1.92018e-71
-9.33758e-71
-4.18173e-70
-1.63286e-69
-5.37368e-69
-1.44573e-68
-3.0798e-68
-5.04657e-68
-6.33958e-68
4.44716e-07
1.28871e-05
3.91215e-18
0.887813
1
1
1
1
1
1
-6.37582e-19
-3.33165e-21
-2.39553e-21
-1.63064e-21
-8.10245e-22
-2.25976e-22
-2.25183e-23
-2.29192e-25
-1.46953e-27
-1.45595e-30
-2.49853e-33
-1.48599e-36
-1.40451e-40
-1.37634e-45
-2.62403e-51
-9.00372e-53
-2.97302e-54
-8.92181e-56
-2.43118e-57
-6.01987e-59
-1.35523e-60
-2.77882e-62
-5.20103e-64
-8.9171e-66
-1.40297e-67
-2.02637e-69
-2.68743e-71
-3.26796e-73
-3.63639e-75
-3.69216e-77
-3.92679e-79
-2.42628e-79
-1.0542e-78
-4.39663e-78
-1.73943e-77
-6.52897e-77
-2.33628e-76
-8.02612e-76
-2.68138e-75
-8.88939e-75
-2.9875e-74
-1.03618e-73
-3.68498e-73
-1.30262e-72
-4.33899e-72
-1.27624e-71
-3.15056e-71
-6.29818e-71
-1.00346e-70
-1.31195e-70
0.202571
0.11558
1
1
1
1
1
1
1
0.165235
-2.05643e-21
-2.8621e-21
-2.02699e-21
-1.18444e-21
-4.80888e-22
-1.04718e-22
-7.6925e-24
-1.9874e-25
-1.50846e-27
-1.96312e-30
-9.02692e-34
-2.61588e-37
-1.93681e-41
-1.85078e-46
-1.42405e-51
-5.01201e-53
-1.63463e-54
-4.85499e-56
-1.31295e-57
-3.23551e-59
-7.26929e-61
-1.4888e-62
-2.78349e-64
-4.75779e-66
-7.44663e-68
-1.06733e-69
-1.40174e-71
-1.68562e-73
-1.85285e-75
-1.85835e-77
-1.70022e-79
-2.81498e-81
-6.76126e-81
-3.06835e-80
-1.31497e-79
-5.30451e-79
-2.01082e-78
-7.16162e-78
-2.40163e-77
-7.63235e-77
-2.31576e-76
-6.7832e-76
-1.93311e-75
-5.37583e-75
-1.43889e-74
-3.618e-74
-8.28078e-74
-1.65834e-73
-2.79154e-73
-3.78652e-73
1
1
1
1
1
1
1
1
1
1
1
1
1
1
1
1
1
1
1
1
1
1
1
1
1
1
1
1
1
1
1
1
1
1
1
1
1
1
1
1
1
1
1
1
1
1
1
1
1
1
1
1
1
1
1
1
1
1
1
1
1
1
1
1
1
1
1
1
1
1
1
1
1
1
1
1
1
1
1
1
1
1
1
1
1
1
1
1
1
1
1
1
1
1
1
1
1
1
1
1
1
1
1
1
1
1
1
1
1
1
1
1
1
1
1
1
1
1
1
1
1
1
1
1
1
1
1
1
1
1
1
1
1
1
1
1
1
1
1
1
1
1
1
1
1
1
1
1
1
1
1
1
1
1
1
1
1
1
1
1
1
1
1
1
1
1
1
1
1
1
1
1
1
1
1
1
1
1
1
1
1
1
1
1
1
1
1
1
1
1
1
1
1
1
1
1
1
1
1
1
1
1
1
1
1
1
1
1
1
1
1
1
1
1
1
1
1
1
1
1
1
1
1
1
1
1
1
1
1
1
1
1
1
1
1
1
1
1
1
1
1
1
1
1
1
1
1
1
1
1
1
1
1
1
1
0.993038
0.963874
0.902311
0.802085
0.630505
-1.47506e-31
0.29908
0.299584
0.287233
0.268723
0.245709
0.219657
0.190643
0.159003
0.12503
0.0894547
0.053465
0.0182875
-2.51132e-21
-1.33343e-21
-1.6398e-21
-1.00747e-21
-4.81661e-22
-2.37684e-22
-2.77358e-24
-3.31703e-32
-1.06575e-31
-2.8542e-31
-9.18923e-31
-2.3048e-30
-4.85305e-30
-9.01923e-30
-1.51995e-29
-2.35534e-29
-3.38141e-29
-4.53243e-29
-5.80538e-29
-7.58048e-29
-1.04322e-28
-1.24609e-28
-1.29399e-28
-1.18574e-28
-9.94813e-29
-8.33959e-29
-7.2409e-29
-8.24522e-33
-5.27892e-33
-1.3837e-32
-6.84465e-32
-2.16516e-31
-4.83802e-31
-8.84071e-31
-1.39832e-30
-1.97762e-30
-2.56535e-30
-3.14083e-30
-3.80061e-30
-4.86969e-30
-6.43495e-30
-7.33806e-30
-6.91756e-30
-5.43673e-30
-3.67268e-30
-2.25969e-30
-1.33332e-30
-2.46756e-33
-1.63449e-34
-4.00348e-34
-1.22752e-33
-4.38302e-33
-1.10621e-32
-2.182e-32
-3.66789e-32
-5.46187e-32
-7.41419e-32
-9.42882e-32
-1.15726e-31
-1.39535e-31
-1.57445e-31
-1.51415e-31
-1.20021e-31
-7.87492e-32
-4.37238e-32
-2.13789e-32
-9.6666e-33
-5.85553e-34
-4.7611e-36
-1.11276e-35
-3.77613e-35
-1.11841e-34
-3.16477e-34
-6.701e-34
-1.16892e-33
-1.76401e-33
-2.37018e-33
-2.89763e-33
-3.2714e-33
-3.41006e-33
-3.19379e-33
-2.58962e-33
-1.78946e-33
-1.0579e-33
-5.43989e-34
-2.4992e-34
-1.05743e-34
-1.22665e-34
-1.21046e-37
-3.08049e-37
-1.2068e-36
-3.86997e-36
-1.01874e-35
-2.23437e-35
-3.84956e-35
-5.59402e-35
-7.10002e-35
-8.0342e-35
-8.19201e-35
-7.5258e-35
-6.16289e-35
-4.43999e-35
-2.79739e-35
-1.54505e-35
-7.54812e-36
-3.30682e-36
-1.3186e-36
-2.3325e-35
-4.5187e-39
-7.09858e-39
-3.35446e-38
-1.19279e-37
-3.18583e-37
-6.67129e-37
-1.10756e-36
-1.513e-36
-1.78886e-36
-1.8711e-36
-1.74654e-36
-1.45523e-36
-1.07738e-36
-7.04974e-37
-4.06586e-37
-2.06943e-37
-9.34857e-38
-3.78474e-38
-1.38887e-38
-2.34062e-36
-3.5701e-39
-1.3554e-40
-7.47782e-40
-2.85268e-39
-7.68207e-39
-1.54642e-38
-2.41573e-38
-3.10301e-38
-3.46093e-38
-3.41434e-38
-2.98119e-38
-2.29277e-38
-1.5469e-38
-9.14538e-39
-4.74874e-39
-2.17814e-39
-8.90315e-40
-3.27877e-40
-1.10084e-40
-1.71332e-38
-1.49662e-39
-6.81947e-42
-1.2058e-41
-4.62324e-41
-1.21501e-40
-2.33733e-40
-3.42528e-40
-4.1764e-40
-4.48183e-40
-4.25027e-40
-3.50657e-40
-2.48765e-40
-1.51547e-40
-7.98383e-41
-3.6819e-41
-1.50823e-41
-5.56994e-42
-1.87927e-42
-5.85476e-43
-2.85639e-42
-6.47555e-42
-7.04677e-44
-1.15612e-43
-4.02025e-43
-9.96255e-43
-1.81235e-42
-2.50924e-42
-2.94918e-42
-3.09746e-42
-2.84319e-42
-2.20339e-42
-1.42199e-42
-7.70697e-43
-3.58681e-43
-1.47198e-43
-5.44804e-44
-1.84425e-44
-5.7512e-45
-1.66107e-45
-5.95076e-47
-5.28444e-46
-9.22616e-47
-3.75948e-46
-1.11875e-45
-2.57608e-45
-4.44951e-45
-5.89864e-45
-6.80477e-45
-7.07878e-45
-6.2722e-45
-4.50156e-45
-2.59581e-45