/*--------------------------------*- C++ -*----------------------------------*\
| =========                 |                                                 |
| \\      /  F ield         | OpenFOAM: The Open Source CFD Toolbox           |
|  \\    /   O peration     | Version:  v1912                                 |
|   \\  /    A nd           | Website:  www.openfoam.com                      |
|    \\/     M anipulation  |                                                 |
\*---------------------------------------------------------------------------*/
FoamFile
{
    version     2.0;
    format      ascii;
    class       surfaceScalarField;
    location    "30";
    object      alphaPhi0.water;
}
// * * * * * * * * * * * * * * * * * * * * * * * * * * * * * * * * * * * * * //

dimensions      [0 3 -1 0 0 0 0];
oriented        oriented;


internalField   nonuniform List<scalar> 
40282
(
0.00280234
0.00266504
1.91882
-1.92551
1.91998
0.00552899
-1.91098
1.89879
0.0121905
-1.8836
1.86546
0.0181402
-1.84445
1.82056
0.0238893
-1.79396
1.7646
0.029361
-1.73262
1.69799
0.0346329
-1.66088
1.62122
0.039654
-1.5792
1.53475
0.0444507
-1.48807
1.43912
0.0489543
-1.38807
1.33487
0.053203
-1.27971
1.22259
0.0571284
-1.16361
1.10294
0.0606625
-1.0405
0.976659
0.0638424
-0.911045
0.844365
0.06668
-0.775892
0.706626
0.0692656
-0.635513
0.563571
0.071942
-0.489512
0.414062
0.0754497
-0.336402
0.255359
0.0810426
-0.173532
0.0793795
0.0941529
-0.00420387
0.00559883
1.85395
-1.84961
1.8427
-0.0141162
0.0210229
-1.83303
1.82058
-0.0256007
0.0380553
-1.80534
1.78736
-0.0368912
0.0548771
-1.76665
1.74328
-0.0479566
0.0713312
-1.71726
1.68865
-0.0587442
0.0873605
-1.65746
1.62376
-0.0691923
0.102897
-1.58757
1.54895
-0.0792382
0.117851
-1.50796
1.46466
-0.0888551
0.132157
-1.41909
1.37131
-0.0979978
0.145769
-1.32139
1.26937
-0.106632
0.158646
-1.21532
1.15929
-0.1147
0.170731
-1.10133
1.0415
-0.122134
0.181962
-0.979882
0.916504
-0.128885
0.192263
-0.851484
0.784843
-0.1349
0.201541
-0.716738
0.647172
-0.140166
0.209733
-0.57636
0.504304
-0.144853
0.216909
-0.431329
0.357448
-0.149428
0.223308
-0.283214
0.209056
-0.155099
0.229257
-0.134901
0.0636012
-0.16692
0.23822
-0.0070131
0.00835086
1.78754
-1.78334
1.77652
-0.0281661
0.034979
-1.76707
1.75498
-0.0506776
0.0627648
-1.74027
1.72294
-0.0729198
0.0902475
-1.70301
1.68049
-0.0947278
0.117247
-1.65541
1.6278
-0.115987
0.143592
-1.59771
1.56517
-0.136601
0.169141
-1.53023
1.49292
-0.156457
0.193759
-1.45332
1.41146
-0.175451
0.217307
-1.36742
1.32126
-0.193514
0.239676
-1.27304
1.22285
-0.210599
0.260791
-1.17075
1.11682
-0.22665
0.280587
-1.06111
1.0037
-0.241617
0.299033
-0.94463
0.883961
-0.255438
0.316107
-0.821738
0.757999
-0.267964
0.331704
-0.692787
0.626131
-0.278923
0.34558
-0.558066
0.488635
-0.287971
0.357402
-0.417944
0.346173
-0.294943
0.366714
-0.273672
0.200749
-0.299835
0.372758
-0.127928
0.0574581
-0.308134
0.378604
-0.00963302
0.0109098
1.72352
-1.71966
1.71324
-0.0416844
0.048108
-1.70426
1.69273
-0.0748088
0.0863349
-1.67867
1.66209
-0.107544
0.124121
-1.64302
1.62146
-0.139714
0.161273
-1.59744
1.57099
-0.171137
0.197588
-1.54213
1.5109
-0.201644
0.232874
-1.47733
1.44146
-0.231062
0.266935
-1.40332
1.36298
-0.259212
0.299557
-1.32047
1.27587
-0.285944
0.33055
-1.22923
1.18062
-0.311131
0.359734
-1.13014
1.07786
-0.334671
0.386946
-1.02389
0.968307
-0.356522
0.412102
-0.911215
0.852696
-0.376703
0.435222
-0.792826
0.731666
-0.395171
0.456332
-0.669261
0.605642
-0.411664
0.475284
-0.540813
0.47476
-0.425535
0.491587
-0.407467
0.338956
-0.43576
0.504271
-0.269325
0.198726
-0.441349
0.511948
-0.127607
0.0578182
-0.447283
0.517071
-0.0121287
0.0133336
1.6618
-1.65815
1.65206
-0.0544784
0.060564
-1.64355
1.63262
-0.0977783
0.108712
-1.61927
1.60353
-0.14059
0.156333
-1.5854
1.5649
-0.182701
0.203199
-1.54205
1.51687
-0.223893
0.249077
-1.48937
1.45959
-0.263954
0.293735
-1.42755
1.39328
-0.302663
0.336931
-1.35682
1.31821
-0.339777
0.378393
-1.27748
1.23469
-0.37507
0.417863
-1.18988
1.14312
-0.408315
0.455073
-1.09448
1.04403
-0.439282
0.489735
-0.991848
0.938043
-0.467819
0.521625
-0.88271
0.825957
-0.493912
0.550665
-0.76789
0.708608
-0.517617
0.576898
-0.648198
0.586729
-0.538872
0.600342
-0.524246
0.460774
-0.557159
0.620631
-0.396305
0.330792
-0.571068
0.636581
-0.264149
0.196321
-0.578807
0.646636
-0.127398
0.0590848
-0.584162
0.652475
-0.0144788
0.0156045
1.6024
-1.5988
1.59308
-0.0665795
0.0722968
-1.58508
1.5748
-0.119523
0.129803
-1.56225
1.54742
-0.171909
0.186732
-1.53034
1.511
-0.223497
0.242833
-1.48943
1.46562
-0.274039
0.297846
-1.4396
1.41138
-0.323287
0.351508
-1.38098
1.34842
-0.370976
0.403535
-1.31373
1.27693
-0.416805
0.453599
-1.23807
1.19718
-0.460487
0.501381
-1.15429
1.10947
-0.501714
0.546537
-1.06277
1.01424
-0.540144
0.588674
-0.963956
0.912004
-0.575483
0.627435
-0.858473
0.803464
-0.607577
0.662587
-0.747087
0.689458
-0.636421
0.694051
-0.63069
0.570887
-0.662068
0.721871
-0.510141
0.44852
-0.684229
0.745849
-0.386071
0.322789
-0.701565
0.764847
-0.258563
0.193206
-0.712009
0.777366
-0.126392
0.0602261
-0.718077
0.784243
-0.0166675
0.0177044
1.54481
-1.54178
1.53647
-0.0779172
0.0832252
-1.52904
1.51948
-0.139915
0.149473
-1.5078
1.494
-0.201324
0.215131
-1.47807
1.46001
-0.26189
0.279945
-1.43983
1.41754
-0.321343
0.343641
-1.39312
1.36659
-0.379408
0.405935
-1.33796
1.30724
-0.435781
0.466505
-1.27444
1.23957
-0.490107
0.524971
-1.20267
1.16376
-0.542036
0.580951
-1.12286
1.08002
-0.591186
0.634025
-1.03528
0.988697
-0.637115
0.683703
-0.940318
0.890217
-0.679403
0.729505
-0.838469
0.785166
-0.71774
0.771044
-0.730407
0.67431
-0.75196
0.808058
-0.616995
0.558589
-0.78207
0.840476
-0.499214
0.438978
-0.807921
0.868158
-0.377964
0.31621
-0.828394
0.890148
-0.253654
0.190105
-0.841599
0.905148
-0.124702
0.0611972
-0.849128
0.912633
-0.0186752
0.0196127
1.48964
-1.48688
1.48203
-0.0884041
0.0932546
-1.47523
1.46648
-0.158805
0.167554
-1.45578
1.4431
-0.228629
0.241302
-1.42845
1.41182
-0.297625
0.314258
-1.39319
1.37256
-0.36552
0.386151
-1.34992
1.32525
-0.432023
0.456689
-1.29856
1.26983
-0.496797
0.525523
-1.23907
1.20628
-0.559436
0.592224
-1.17147
1.13465
-0.619528
0.656348
-1.09584
1.05506
-0.676611
0.717391
-1.01234
0.967725
-0.730146
0.774765
-0.921252
0.872978
-0.77959
0.827863
-0.822969
0.771303
-0.824479
0.876146
-0.718069
0.663377
-0.864457
0.91915
-0.607348
0.550122
-0.899362
0.956588
-0.491844
0.432654
-0.92904
0.98823
-0.372677
0.311994
-0.952584
1.01327
-0.250586
0.188332
-0.968419
1.03067
-0.123591
0.0625543
-0.977982
1.03902
-0.0204799
0.0213059
1.43634
-1.4337
1.42936
-0.0979404
0.102278
-1.42327
1.41543
-0.176017
0.183862
-1.40581
1.39441
-0.253582
0.264987
-1.38119
1.36615
-0.33041
0.345453
-1.34925
1.33048
-0.406241
0.425013
-1.30981
1.28721
-0.480785
0.503384
-1.26266
1.23614
-0.553683
0.580203
-1.20763
1.17712
-0.624486
0.655
-1.14459
1.11004
-0.692715
0.727268
-1.07346
1.03487
-0.757827
0.79642
-0.994271
0.951693
-0.819177
0.861755
-0.907162
0.860721
-0.876094
0.922535
-0.81242
0.762322
-0.927956
0.978053
-0.710508
0.657075
-0.974198
1.02763
-0.602144
0.545858
-1.01442
1.0707
-0.488379
0.429882
-1.04832
1.10682
-0.370538
0.310493
-1.07516
1.13521
-0.249803
0.188513
-1.09379
1.15508
-0.123818
0.0649418
-1.10525
1.16413
-0.0220575
0.0227595
1.38509
-1.38278
1.37902
-0.106412
0.110178
-1.37373
1.36689
-0.191351
0.198188
-1.35849
1.34849
-0.275903
0.285897
-1.33688
1.32361
-0.359896
0.373167
-1.30864
1.29194
-0.443104
0.459803
-1.27347
1.25317
-0.52526
0.545556
-1.23101
1.20695
-0.605997
0.630064
-1.18093
1.15293
-0.684832
0.712831
-1.12292
1.09085
-0.761225
0.793292
-1.05671
1.02048
-0.834549
0.870777
-0.982153
0.941728
-0.904043
0.944469
-0.899214
0.854634
-0.968894
1.01347
-0.808021
0.759423
-1.02831
1.0769
-0.708905
0.656554
-1.08149
1.13384
-0.602482
0.546832
-1.12773
1.18338
-0.489781
0.431532
-1.1665
1.22475
-0.372302
0.312309
-1.19708
1.25707
-0.251695
0.190781
-1.21876
1.27968
-0.125032
0.0680731
-1.23222
1.28918
-0.0233832
0.023949
1.33552
-1.33359
1.33046
-0.113699
0.116834
-1.32604
1.32032
-0.204597
0.210318
-1.31326
1.30484
-0.295296
0.303721
-1.295
1.2837
-0.385705
0.397002
-1.27089
1.25651
-0.475662
0.490044
-1.2405
1.22278
-0.564948
0.58266
-1.20331
1.182
-0.653212
0.674517
-1.1588
1.13364
-0.739949
0.765114
-1.10645
1.07718
-0.824573
0.853843
-1.04577
1.01218
-0.906373
0.939959
-0.976378
0.938322
-0.98447
1.02253
-0.897999
0.855404
-1.05789
1.10049
-0.810546
0.76345
-1.12564
1.17274
-0.714161
0.662748
-1.18667
1.23809
-0.609312
0.553993
-1.23992
1.29524
-0.496974
0.438488
-1.28447
1.34296
-0.378803
0.31822
-1.31952
1.3801
-0.256988
0.195807
-1.34472
1.4059
-0.127789
0.0726987
-1.36059
1.41568
-0.0244335
0.0248526
1.28782
-1.28611
1.28366
-0.119683
0.122131
-1.2802
1.2757
-0.215538
0.220042
-1.27011
1.26341
-0.311445
0.318152
-1.25552
1.2464
-0.407426
0.416547
-1.23598
1.22417
-0.503414
0.515222
-1.2109
1.19608
-0.599267
0.614085
-1.17962
1.16143
-0.69468
0.712869
-1.14142
1.11948
-0.789157
0.811097
-1.09552
1.06945
-0.882084
0.908151
-1.04118
1.01063
-0.972682
1.00323
-0.977719
0.942375
-1.05996
1.0953
-0.904544
0.864182
-1.14278
1.18314
-0.821261
0.775772
-1.21991
1.2654
-0.727728
0.677169
-1.29002
1.34058
-0.624176
0.568874
-1.35162
1.40692
-0.511452
0.452169
-1.40327
1.46255
-0.391357
0.32943
-1.44389
1.50582
-0.266797
0.204691
-1.47346
1.53557
-0.133316
0.0801079
-1.4923
1.5455
-0.025189
0.0254539
1.24198
-1.2407
1.23899
-0.124256
0.125971
-1.23655
1.23334
-0.223975
0.227177
-1.22934
1.22449
-0.324055
0.328911
-1.21872
1.21196
-0.424657
0.431415
-1.20413
1.19515
-0.525842
0.534826
-1.18491
1.1733
-0.627584
0.63919
-1.16022
1.14553
-0.729664
0.744347
-1.12913
1.11087
-0.831633
0.849892
-1.09063
1.06827
-0.932887
0.955245
-1.04366
1.01667
-1.03262
1.0596
-0.987179
0.955056
-1.12974
1.16187
-0.920193
0.882492
-1.22297
1.26067
-0.841869
0.79826
-1.31083
1.35444
-0.751625
0.701958
-1.39165
1.44132
-0.649294
0.593728
-1.46343
1.519
-0.535437
0.474697
-1.52406
1.5848
-0.411904
0.347619
-1.57195
1.63624
-0.282488
0.218405
-1.60724
1.67132
-0.142287
0.0907464
-1.62998
1.68152
-0.0256364
0.0257432
1.19744
-1.1968
1.19585
-0.127333
0.128287
-1.19447
1.19263
-0.229749
0.231587
-1.19029
1.18739
-0.332873
0.335776
-1.18386
1.17962
-0.437032
0.44127
-1.17459
1.16865
-0.542449
0.548381
-1.16171
1.15363
-0.649253
0.65733
-1.14429
1.13353
-0.757358
0.768117
-1.1212
1.10715
-0.866419
0.880471
-1.0912
1.07318
-0.975898
0.993918
-1.05291
1.0302
-1.08502
1.10773
-1.00486
0.976714
-1.19268
1.22083
-0.945569
0.911252
-1.29746
1.33178
-0.873598
0.832459
-1.39771
1.43885
-0.78771
0.739259
-1.49136
1.53982
-0.687062
0.631144
-1.57585
1.63177
-0.571629
0.508781
-1.64814
1.71098
-0.443039
0.37512
-1.70576
1.77368
-0.305994
0.238273
-1.74869
1.81641
-0.155499
0.104627
-1.77663
1.8275
-0.0257706
0.0257209
1.15475
-1.15458
1.1544
-0.128866
0.129049
-1.1541
1.15364
-0.232754
0.233206
-1.153
1.1521
-0.337715
0.338614
-1.15088
1.14926
-0.44426
0.445878
-1.14715
1.14444
-0.552798
0.555505
-1.14102
1.13674
-0.663652
0.667929
-1.13147
1.12503
-0.776922
0.78336
-1.11725
1.10796
-0.892433
0.901731
-1.09693
1.08396
-1.00979
1.02276
-1.06882
1.05127
-1.12836
1.14591
-1.03105
1.0079
-1.2471
1.27026
-0.981538
0.951698
-1.36462
1.39446
-0.918101
0.880474
-1.47913
1.51676
-0.83856
0.792125
-1.58829
1.63472
-0.740978
0.685005
-1.68888
1.74485
-0.624205
0.55876
-1.77675
1.84219
-0.489107
0.416134
-1.84801
1.92099
-0.341264
0.268021
-1.90194
1.97518
-0.176863
0.126229
-1.93759
1.98822
-0.0255972
0.0253976
1.11354
-1.11364
1.11421
-0.128849
0.128279
-1.11496
1.11588
-0.232966
0.232052
-1.11691
1.118
-0.338508
0.337412
-1.1191
1.12013
-0.446177
0.445151
-1.12099
1.1216
-0.556581
0.555976
-1.12182
1.12154
-0.670271
0.670559
-1.12058
1.1188
-0.787582
0.789366
-1.116
1.11198
-0.908577
0.9126
-1.10651
1.09935
-1.03311
1.04027
-1.09022
1.07885
-1.16078
1.17215
-1.06491
1.04806
-1.29081
1.30767
-1.02793
1.00413
-1.42201
1.44581
-0.976244
0.943838
-1.55269
1.5851
-0.90646
0.863659
-1.68045
1.72325
-0.814999
0.760096
-1.80158
1.85649
-0.698681
0.630692
-1.91067
1.97865
-0.55641
0.476805
-2.00172
2.08133
-0.393764
0.312271
-2.07235
2.15384
-0.209151
0.160554
-2.12105
2.16964
-0.025132
0.0247945
1.0738
-1.07452
1.0758
-0.127331
0.126051
-1.07755
1.07976
-0.23045
0.22824
-1.0824
1.08541
-0.335307
0.332295
-1.08875
1.09235
-0.442779
0.439177
-1.09614
1.10003
-0.553676
0.549784
-1.10392
1.10768
-0.668789
0.665027
-1.11118
1.11425
-0.788726
0.785655
-1.11671
1.11837
-0.913846
0.912187
-1.119
1.11833
-1.04434
1.045
-1.11609
1.11196
-1.18018
1.18432
-1.10557
1.09652
-1.32106
1.3301
-1.08437
1.06861
-1.46624
1.482
-1.0487
1.02401
-1.61456
1.63924
-0.99387
0.95752
-1.76403
1.80038
-0.914163
0.862973
-1.91103
1.96222
-0.803161
0.734097
-2.04918
2.11824
-0.655512
0.568033
-2.16985
2.25733
-0.473702
0.379142
-2.2673
2.36186
-0.256942
0.210691
-2.34101
2.38726
-0.0244011
0.0239422
1.03535
-1.03645
1.03837
-0.12441
0.122487
-1.04104
1.04443
-0.225369
0.221975
-1.04853
1.05331
-0.328306
0.323529
-1.05873
1.06474
-0.434254
0.428242
-1.07129
1.07831
-0.544196
0.537172
-1.08573
1.09344
-0.659161
0.651451
-1.10133
1.10927
-0.780036
0.772099
-1.1171
1.12464
-0.907509
0.899966
-1.13169
1.13802
-1.04216
1.03584
-1.14335
1.14737
-1.18448
1.18046
-1.14973
1.15
-1.33475
1.33448
-1.14772
1.14232
-1.49307
1.49847
-1.13315
1.11948
-1.65924
1.67292
-1.1004
1.07487
-1.83255
1.85807
-1.04169
0.999431
-2.01069
2.05294
-0.946527
0.881313
-2.18783
2.25304
-0.802265
0.708677
-2.35346
2.44705
-0.60159
0.487845
-2.49605
2.6098
-0.340917
0.285712
-2.61278
2.66799
-0.0234388
0.022878
0.998359
-0.999984
1.00246
-0.120233
0.117753
-1.00592
1.01035
-0.217973
0.213547
-1.01573
1.02206
-0.317843
0.31151
-1.02932
1.03749
-0.420986
0.412822
-1.04653
1.0564
-0.528525
0.518652
-1.06706
1.07844
-0.641684
0.630305
-1.09046
1.10304
-0.761609
0.74903
-1.11606
1.1294
-0.889303
0.875968
-1.14289
1.15636
-1.02575
1.01228
-1.16959
1.18232
-1.17196
1.15923
-1.19425
1.20503
-1.32897
1.31818
-1.21423
1.22134
-1.49784
1.49074
-1.22574
1.22667
-1.67986
1.67893
-1.22321
1.21418
-1.87645
1.88547
-1.19812
1.17317
-2.08845
2.1134
-1.13698
1.08664
-2.31394
2.36428
-1.01871
0.929561
-2.54539
2.63454
-0.816411
0.682091
-2.76839
2.90271
-0.506811
0.42838
-2.97727
3.0557
-0.0222849
0.0216434
0.96283
-0.96455
0.967487
-0.114983
0.112046
-0.971593
0.97687
-0.208583
0.203305
-0.983324
0.990954
-0.304367
0.296736
-0.999761
1.00974
-0.403537
0.393555
-1.0209
1.03322
-0.507297
0.494979
-1.04668
1.06128
-0.617013
0.602418
-1.07697
1.09371
-0.734024
0.717278
-1.11146
1.13015
-0.859587
0.840903
-1.14969
1.16997
-0.995021
0.974732
-1.19089
1.21228
-1.14181
1.12042
-1.23395
1.25568
-1.30163
1.2799
-1.27719
1.29814
-1.47654
1.45559
-1.3181
1.33655
-1.66933
1.65089
-1.35279
1.36593
-1.88401
1.87087
-1.37474
1.37758
-2.126
2.12316
-1.37212
1.35511
-2.40133
2.41833
-1.32207
1.26678
-2.71503
2.77031
-1.18164
1.05483
-3.07165
3.19846
-0.87972
0.79473
-3.49013
3.57512
0.0168565
-0.0472831
0.0303527
-0.0451839
0.0526988
-0.00751501
-0.0446081
0.0206202
0.0239879
0.0213153
-0.0846298
0.0633145
0.165429
-0.222598
0.0570763
0.197008
-0.0671004
-0.129908
-0.196471
0.00455865
0.061708
0.200115
-0.252057
0.0508728
0.271405
-0.32224
0.00192069
0.433152
-0.521121
-0.00599853
0.506921
-0.435111
-0.0278784
0.753426
-1.2533
0.395376
1.56644
-1.73875
0.172315
1.7574
-1.71011
-0.0371934
1.61767
-1.4999
-0.111692
1.48446
-1.5963
0.0878497
1.70504
-1.74871
0.046955
1.20339
-1.02608
-0.0102883
1.6399
-1.56625
-0.0662315
1.59369
-1.63854
0.0615443
1.55394
-1.01893
-0.535848
-0.226087
1.5494
-1.32604
-2.59108
3.37761
-0.791205
-3.63549
3.79375
-0.444736
-4.19243
4.5248
-0.278519
-4.81784
4.98918
-0.16698
-5.83122
5.94353
-0.112306
-6.0466
6.13705
-0.0904481
-6.20229
6.22829
-0.026002
-6.21735
6.18096
0.0136498
-6.10874
5.89307
-0.00164052
-5.6808
5.92188
0.014675
-6.15928
6.13324
0.0260439
-6.11514
6.09917
0.0159672
-6.08269
6.08172
0.000519461
-6.08744
3.05151
-0.0157061
-0.853929
1.05044
-0.000775432
-0.917489
5.97059
0.0520969
-6.05325
6.02123
0.0308022
-5.99632
5.98271
0.0136228
-6.01709
6.04936
-0.0322234
-1.9882
0.0062882
0.0020446
-0.0039878
0.0053646
0.00163719
-0.0195435
0.0237521
-0.0108791
-0.020418
0.00463947
-0.00471044
-1.26392e-05
-1.12508e-20
1.26392e-05
7.32093e-22
-7.60886e-22
-1.29581e-22
8.75583e-22
-9.96139e-22
0
1.42632e-21
-4.79909e-21
0
7.65439e-21
0
0
-0.00338223
0.0401815
0.00041942
-0.135006
0.371979
-0.0135554
-0.970017
1.29964
-0.0184588
-1.32234
1.36312
-0.0166497
-4.04585
6.75933
-0.0733343
-6.84121
6.91313
-0.0719293
-7.03292
7.27095
-0.238031
-7.38734
7.67692
-0.401494
-7.52649
7.03557
0.320292
-7.30025
4.9414
-0.123368
0.073766
-0.0946396
0.0208736
-0.0286252
0.0289256
0.0101087
-0.0104409
-0.0273661
0.0234328
-0.0340493
0.0379685
-0.0179906
0.014337
-0.0827298
0.0865196
-0.0133489
0.00738662
-0.0825052
0.0884906
0.00842177
-0.0308693
0.15865
-0.136194
0.0729612
0.058218
0.178462
-0.416725
-0.0912706
0.011812
-0.0504452
-0.0312153
6.9916e-20
-3.73402e-07
3.73402e-07
2.03814e-20
-8.70283e-07
-0.00124888
0.00124975
1.16855e-23
0.0970367
-0.123864
0.0546807
-0.0565429
0.162467
-0.496828
-0.766491
1.00829
0.928884
-1.1372
-0.401702
0.674797
1.28012
-1.57251
0.00184139
0.0800334
1.60337
-1.58921
0.163245
-0.177398
1.55269
-1.51857
-0.0821631
0.0480467
1.4894
-1.28925
-0.0582669
0.0372055
0.867149
-0.848256
0.0144677
0.00619825
0.953969
-0.790029
0.148231
-7.4973e-18
0.510545
-0.36983
0.0813935
-3.83562e-19
0.169164
0.0587265
0.794673
-1.97825e-19
-0.918679
1.83701
2.42263
-3.30517
-2.65028
3.35072
1.54538
-2.24586
-3.93766
4.43119
1.0186
-1.51213
-4.84766
5.19637
0.667048
-1.01576
-5.48697
5.72877
0.398738
-0.64054
-5.92442
6.07771
0.252775
-0.406064
-6.19648
6.29006
0.183211
-0.276793
-6.36888
5.16255
0.0897359
-0.161872
-4.06597
3.85834
0.00520806
-0.0396351
-5.57522
6.53782
-0.00386631
0.0101432
-6.52285
6.51327
-0.0271311
0.0394513
-4.48597
0.86672
-0.0396632
0.0321724
-0.87672
0.943628
-0.0130408
0.00378703
-0.959896
1.02429
0.00590513
-0.019734
-1.06078
1.13221
0.00247582
-0.0233267
-1.15413
4.9976
-0.0012749
0.00865552
-6.32668
6.00035
-0.0951622
0.0863294
-3.00128
0.496225
-0.0778395
0.0148131
-0.570465
0.589031
-0.0243787
0.00155166
-0.639684
0.771965
0.0158573
-0.145188
-4.60907
6.46444
0.135176
-0.255413
-6.55742
6.6031
0.183056
-0.228737
-6.6418
6.67405
0.160944
-0.193199
-6.66363
6.42052
0.0889493
-0.131784
-5.86173
5.53996
0.00889077
-0.0352764
-5.57546
5.71636
-0.0127156
0.039662
-6.12799
6.41837
-0.0192946
0.0469876
-6.41231
6.34059
-0.0383772
0.0531153
-6.28831
6.3058
-0.0442685
0.0848553
-6.55233
6.78799
-0.00361469
0.0160189
-6.80572
6.79961
0.0210355
-0.0149257
-6.79617
6.79815
0.0230662
-0.0250435
-6.80636
6.81762
0.0547418
-0.066005
-6.83148
6.87154
0.118334
-0.15839
-6.93236
7.01261
0.140527
-0.220771
-7.10083
7.17801
0.311672
-0.388858
-7.3371
7.36587
0.376117
-0.404894
-4.84166
0.016006
-0.0308277
-0.0183892
-1.68486e-18
3.62769e-06
-3.62767e-06
-2.46855e-11
0.11092
-0.123746
0.0128258
-0.0176797
0.0156575
0.00970225
-0.00768012
-0.0140602
0.0137308
-0.039239
0.0387303
-0.0141646
0.0198048
-0.0836277
0.0709534
-0.0299401
0.0375466
-0.0855087
0.0724151
-0.0295691
-0.00262276
0.103364
-0.0670393
0.0699322
-0.142963
0.402148
-0.314978
0.142883
-0.0795881
0.282477
-0.371992
3.01116e-07
-6.6828e-07
-3.9784e-20
3.67163e-07
-1.94227e-06
1.94227e-06
-2.15808e-27
-8.71012e-26
-0.133572
0.2653
0.0186024
0.0494082
-0.274937
0.206788
-1.34599
1.41881
0.152941
-0.472716
-1.05261
1.50981
0.762141
-1.26088
-0.201181
0.232404
1.40448
-1.41633
0.151653
-0.0801578
1.46016
-1.52572
-0.0181859
0.012176
1.44688
-0.424098
0.0153686
-0.0740773
4.07861e-19
-4.10163e-19
8.72334e-22
1.42944e-21
1.14071e-17
-9.1925e-17
7.4973e-18
2.03285e-17
3.20133e-18
2.44907e-22
3.83562e-19
-6.9146e-18
8.44105e-21
0.105431
3.07732e-19
-0.105431
-2.16751
2.67226
3.96281
-4.44532
-3.15818
3.66075
2.84718
-3.34975
-4.13659
4.56703
1.97532
-2.40576
-4.94731
5.2786
1.35695
-1.68824
-5.56343
5.80369
0.883436
-1.12369
-6.00066
6.15685
0.562333
-0.718527
-6.27635
6.36576
0.368321
-0.45773
-6.43253
6.48395
0.220529
-0.271956
-6.52478
6.55519
0.073223
-0.103629
-6.57295
6.58025
-0.00614119
-0.00115565
-6.58011
6.57597
-0.0421024
0.046135
-6.5747
6.57795
-0.0696289
0.0664697
-6.57699
6.574
-0.0281731
0.0311628
-6.57014
6.56578
0.0241228
-0.0197637
-6.56109
6.55612
0.028062
-0.0230853
-6.5507
5.19935
-0.0320196
0.0368338
-4.78315
4.98327
-0.0481895
0.127428
-5.54365
6.22523
-0.0254083
0.104682
-6.56185
6.5964
0.00220601
-0.0196375
-6.60599
6.61002
0.190074
-0.194108
-6.61566
6.62535
0.273341
-0.283033
-6.64267
6.66273
0.258638
-0.278706
-6.68241
6.70052
0.215903
-0.234018
-6.71765
6.73579
0.148061
-0.166203
-6.75713
6.78131
0.0575735
-0.0817595
-6.80683
6.82916
-0.0142817
-0.00805343
-6.8468
6.85638
-0.038517
0.0289399
-6.86191
6.86744
-0.0532014
0.0476711
-6.87781
6.88881
-0.0735949
0.0625909
-6.89232
6.88532
-0.0244447
0.0314436
-6.87417
6.86179
0.00441668
0.00796535
-6.8478
6.83455
0.0187823
-0.00553109
-6.82319
6.8128
0.0659073
-0.0555157
-6.80361
6.80361
0.174924
-0.174929
-6.8148
6.83299
0.267743
-0.28593
-6.84447
6.82769
0.408949
-0.392049
-6.79936
6.7437
0.37227
-0.316607
-4.60257
0.138175
0.00658116
-0.0488977
1.02119e-07
-1.02199e-07
7.97307e-11
-3.35079e-20
0.134017
-0.130039
0.00207079
-0.00733324
0.00194089
0.00416007
0.00114138
0.0026721
-0.00405536
-0.0371648
0.0379406
0.00114381
0.00566325
-0.0649379
0.0625383
-0.0143039
0.0207534
-0.0659903
0.0627018
-0.0173061
-0.00259259
0.0363388
-0.0214304
0.0447443
-0.107472
0.236005
-0.202211
0.164463
-0.213831
0.321319
-0.269325
0.169158
-0.00786348
-0.0330945
0.0754934
-0.0229731
0.150145
7.07953e-25
0.122248
-0.365915
0.38918
-0.0854547
0.0621904
-0.468121
0.592459
-1.37141
1.22295
-0.464196
0.117124
-1.81379
0.654457
0.0303583
-0.276822
-0.122412
0.225475
0.829142
-0.881082
-0.0165857
0.0591877
0.0171665
-0.00447269
-0.0228715
0.00482325
0.0106056
-0.000170642
0.0412414
-0.116249
-5.00349e-05
6.1079e-09
1.63236e-20
5.00288e-05
-9.64448e-08
2.74284e-10
-2.5794e-13
1.57277e-07
-5.149e-21
-2.86371e-20
-3.75755e-20
4.47619e-24
2.04176e-19
1.97327
0.171285
-1.61696
-3.22395
3.5105
4.81543
-5.10198
-3.8241
4.16857
3.75888
-4.10335
-4.5232
4.87007
2.78981
-3.13669
-5.19249
5.48272
1.99771
-2.28793
-5.73546
5.94977
1.35109
-1.5654
-6.12502
6.26339
0.866486
-1.00486
-6.36791
6.4438
0.540845
-0.616728
-6.49656
6.53309
0.315414
-0.351949
-6.55946
6.57916
0.128662
-0.148362
-6.59236
6.59942
0.00905076
-0.0161182
-6.60193
6.60213
-0.0466541
0.0464536
-6.60242
6.60362
-0.0652406
0.0640374
-6.60416
6.6029
-0.033161
0.034426
-6.59978
6.59547
0.0147179
-0.0104004
-6.59127
6.58866
0.018577
-0.0159662
-6.58887
6.59357
-0.0393183
0.0346199
-6.60524
6.62247
-0.111997
0.0947628
-6.64157
6.66082
-0.0885986
0.0693425
-6.67918
6.69461
0.0349539
-0.0503774
-6.70298
6.70589
0.196549
-0.199457
-6.7072
6.71038
0.288161
-0.291335
-6.71737
6.7273
0.292281
-0.302211
-6.73861
6.75099
0.248688
-0.261065
-6.76522
6.78268
0.184216
-0.201675
-6.80378
6.82684
0.105434
-0.128492
-6.84932
6.86842
0.0282524
-0.0473589
-6.88376
6.89554
-0.0182901
0.00650737
-6.9065
6.91848
-0.038499
0.0265208
-6.93243
6.94481
-0.0514053
0.0390218
-6.94995
6.94617
-0.0368779
0.0406596
-6.93737
6.92578
-0.0204754
0.0320631
-6.91043
6.89031
-0.012141
0.0322579
-6.86555
6.83783
0.0359501
-0.00823815
-6.81048
6.78888
0.163333
-0.141734
-6.77458
6.76493
0.287608
-0.278009
-6.75303
6.72535
0.365919
-0.338204
-6.68342
6.64214
0.271117
-0.229834
-6.58595
6.52883
0.0838516
-0.0267341
-1.93912
-2.99224e-05
-0.00448777
0.0748351
0.112052
-0.1228
-0.0060191
0.00724274
-0.0112193
-0.00595638
0.00997648
0.0147904
-0.0152649
-0.0382947
0.0421258
0.0142292
-0.0106963
-0.0574516
0.0534124
0.0057172
-0.00163287
-0.0579974
0.0537572
0.00320565
-0.0158597
0.00674693
0.0059071
0.0435973
-0.0849725
0.151758
-0.110383
0.129245
-0.167185
0.226879
-0.188933
0.169102
-0.106165
0.0129454
-0.0758827
-0.00110795
0.102516
-0.0761877
-0.0252205
-0.182048
0.254382
-0.00105498
-0.0726551
-0.368602
0.416447
-0.958456
0.632049
-0.318927
0.249256
-0.396166
1.54128
-0.337292
0.105857
-0.260473
1.41483
0.0106498
-0.0455966
-0.0192424
-0.00304425
0.258658
-0.439985
-0.135632
0.0399276
0.477485
-0.453396
0.599575
-0.593341
0.312491
-0.0127374
0.231125
-1.3898
1.06312e-10
2.0856e-07
-9.02026e-07
7.66897e-07
-6.70056e-08
6.70056e-08
8.70806e-25
6.49766e-18
-1.74805
3.82358
4.19275
-6.10668
-3.95748
4.15235
5.3262
-5.52107
-4.38767
4.65092
4.39588
-4.65913
-4.93278
5.21655
3.44429
-3.72806
-5.4868
5.73137
2.55222
-2.79679
-5.94257
6.11813
1.7593
-1.93486
-6.25792
6.36552
1.12763
-1.23523
-6.44426
6.49944
0.681988
-0.737168
-6.53583
6.55913
0.381119
-0.404426
-6.5744
6.58512
0.162777
-0.173497
-6.59264
6.59743
0.0217404
-0.0265308
-6.60009
6.60163
-0.0457788
0.0442436
-6.6032
6.60525
-0.0627115
0.0606676
-6.60715
6.60816
-0.0347583
0.0337403
-6.60819
6.60787
0.00780044
-0.00747723
-6.60856
6.61194
0.0161271
-0.0195125
-6.61963
6.63285
-0.0254113
0.0121839
-6.65184
6.67472
-0.0745495
0.0516772
-6.69876
6.72234
-0.0478985
0.0243187
-6.74444
6.76329
0.0669813
-0.0858368
-6.77612
6.78266
0.20376
-0.210302
-6.78592
6.78914
0.294
-0.297216
-6.79428
6.80134
0.310004
-0.317068
-6.80944
6.81851
0.27144
-0.280509
-6.82971
6.84466
0.21781
-0.232756
-6.86372
6.8853
0.150517
-0.172089
-6.90659
6.92508
0.0656856
-0.0841725
-6.94067
6.95458
0.00616565
-0.02007
-6.9687
6.9844
-0.0125578
-0.00313969
-7.00198
7.01855
-0.0249046
0.00833793
-7.02829
7.02856
-0.0424917
0.0422269
-7.02326
7.01613
-0.041555
0.0486809
-7.00596
6.9881
-0.0521933
0.0700521
-6.95896
6.92133
-0.0253945
0.0630222
-6.87891
6.83994
0.111483
-0.0725092
-6.80727
6.78126
0.259807
-0.233793
-6.75858
6.73329
0.312121
-0.286834
-6.7045
6.67643
0.195259
-0.167191
-6.64356
6.59552
-0.040372
0.0884146
-6.51149
2.26987
-0.275701
0.438654
0.119229
-0.112368
-0.00686102
0.0104248
-0.0182312
-0.0167251
0.0247697
0.0257217
-0.0299832
-0.0465536
0.0508151
0.031276
-0.0306807
-0.051492
0.0508967
0.0293033
-0.0283797
-0.0513523
0.0503594
0.0305688
-0.0392678
-0.016041
0.0246937
0.0572313
-0.084835
0.0769986
-0.0493949
0.117509
-0.148906
0.154816
-0.123429
0.164932
-0.151306
0.109926
-0.123551
0.10942
-0.0629469
0.0971224
-0.139839
0.0188547
0.033223
0.14109
-0.193167
-0.103317
0.0512201
-0.341665
0.128026
-0.0228884
0.422073
-1.74764
0.898958
-0.502272
0.474054
-1.51582
1.54287
6.46002e-11
-6.46002e-11
2.22803e-19
-7.98626e-20
-1.39064e-22
2.1117e-21
0
5.44183e-31
0.00782349
-0.0416837
0.356636
-7.95722e-05
0.0868861
-0.0366265
1.86587
-1.62808
0
-1.12123e-22
-9.30608e-25
6.1777e-21
-0.184672
2.88506
0.518658
-3.35222
-4.20265
4.26855
6.3475
-6.4134
-4.39323
4.56835
5.70002
-5.87513
-4.77717
5.00988
4.90168
-5.13438
-5.25607
5.50176
3.98848
-4.23417
-5.73133
5.93375
3.01762
-3.22003
-6.10178
6.2339
2.08731
-2.21944
-6.3343
6.40858
1.32468
-1.39896
-6.4616
6.49872
0.781782
-0.8189
-6.52433
6.54202
0.42313
-0.440822
-6.55489
6.56512
0.182434
-0.192671
-6.57383
6.58142
0.0317451
-0.039338
-6.58833
6.59462
-0.0409478
0.0346632
-6.60076
6.6069
-0.0570593
0.0509158
-6.61278
6.61815
-0.0308213
0.0254552
-6.62307
6.62824
0.00982792
-0.0149972
-6.63497
6.64481
0.0261847
-0.0360305
-6.65917
6.67886
0.00436129
-0.024052
-6.70334
6.73064
-0.0268066
-0.000491589
-6.75832
6.78539
0.000785454
-0.0278547
-6.81149
6.83562
0.107085
-0.13122
-6.85465
6.86606
0.219174
-0.230584
-6.87247
6.87761
0.301409
-0.30655
-6.88318
6.88986
0.323783
-0.330464
-6.89698
6.90401
0.288316
-0.295346
-6.91251
6.92429
0.246076
-0.25786
-6.9406
6.96044
0.19276
-0.212604
-6.98159
7.00161
0.103015
-0.123029
-7.02002
7.03764
0.0353153
-0.0529354
-7.05497
7.0726
0.0198231
-0.0374534
-7.09147
7.11103
0.0103123
-0.0298733
-7.12718
7.13371
-0.0394304
0.0329051
-7.13137
7.12656
-0.0538255
0.0586356
-6.99041
5.12297
-0.0831535
0.0486992
-1.92925
1.67401
-0.0774938
-0.00367608
-2.08136
3.93325
0.0210647
0.000235771
-6.18866
6.82186
0.203956
-0.0771615
-6.81624
6.79212
0.262124
-0.237999
-6.77149
6.75508
0.145506
-0.129099
-6.73964
6.7262
-0.115745
0.129191
-6.71495
6.69876
-0.476071
0.492265
0.101958
-0.085344
-0.016614
0.0226065
-0.0343906
-0.0339056
0.0456897
0.0428782
-0.0453244
-0.0557734
0.0495311
0.0500976
-0.0530146
-0.0476358
0.0490905
0.0555012
-0.0570913
-0.050405
0.0516883
0.0603663
-0.0675563
-0.0323632
0.0395289
0.080519
-0.0999951
0.0266576
-0.00718149
0.124437
-0.150988
0.0948772
-0.0683269
0.172323
-0.178845
0.120849
-0.104253
0.18259
-0.185504
0.163019
-0.170422
0.185051
-0.180202
0.222105
-0.226953
0.101155
-9.9296e-20
-0.0490122
0.0403891
3.615e-20
-0.00380903
0.00380903
-1.11219e-13
-0.0254957
2.11169e-05
-0.0316979
-1.18171e-09
-1.12675e-10
1.7802e-10
3.37679e-10
2.88732e-09
-1.96549e-09
1.60696e-09
-4.36283e-11
1.0657e-07
-1.60696e-09
0.0586158
0.000146378
-0.0572182
-0.257303
0.00919796
1.18015
-0.664634
4.37207e-18
0.571638
-5.98571e-18
-0.571638
-3.84795
4.26921
6.29903
-6.72029
-4.37883
4.49781
6.50755
-6.62652
-4.64554
4.82273
6.04891
-6.2261
-5.02321
5.24045
5.35573
-5.57296
-5.46089
5.67359
4.4622
-4.67489
-5.86301
6.01811
3.39885
-3.55395
-6.13814
6.22483
2.32816
-2.41486
-6.28877
6.31582
1.45964
-1.47697
-6.20814
6.08532
0.85311
-0.646527
-5.9864
5.98673
0.461631
-0.307818
-6.04866
6.15735
0.207356
-0.155755
-6.28785
6.41576
0.0512036
-0.0554473
-6.52205
6.59417
-0.0243952
0.0071754
-6.62655
6.6421
-0.0415869
0.0260335
-6.65383
6.66441
-0.017451
0.00686945
-6.67406
6.6836
0.0226326
-0.0321757
-6.69437
6.70803
0.0482339
-0.0618978
-6.72593
6.74899
0.0458346
-0.0688911
-6.77711
6.80848
0.0294797
-0.0608513
-6.84118
6.87333
0.0567452
-0.0888875
-6.90359
6.93163
0.157556
-0.185599
-6.93913
6.72156
0.244462
-0.194551
-6.17972
5.32818
0.312237
-0.0420423
-4.41052
3.49832
0.3342
2.59419e-21
-2.35019
1.38569
0.220744
2.37922e-21
-1.39308
1.62761
0.174747
2.18475e-21
-2.19273
2.20803
0.184044
2.04864e-21
-1.72067
0.520172
0.0793839
1.34975e-21
-0.0169269
4.23079e-19
0.0169269
2.17324e-22
-3.88891e-37
-8.35251e-38
3.45969e-20
-3.45969e-20
1.04121e-36
-7.37199e-37
7.57998e-19
-7.57998e-19
4.87218e-22