/*--------------------------------*- C++ -*----------------------------------*\
| =========                 |                                                 |
| \\      /  F ield         | OpenFOAM: The Open Source CFD Toolbox           |
|  \\    /   O peration     | Version:  v1912                                 |
|   \\  /    A nd           | Website:  www.openfoam.com                      |
|    \\/     M anipulation  |                                                 |
\*---------------------------------------------------------------------------*/
FoamFile
{
    version     2.0;
    format      ascii;
    class       volScalarField;
    location    "30";
    object      epsilon;
}
// * * * * * * * * * * * * * * * * * * * * * * * * * * * * * * * * * * * * * //

dimensions      [0 2 -3 0 0 0 0];


internalField   nonuniform List<scalar> 
20320
(
4.44149e-05
0.000214352
0.000220193
0.00022597
0.000231639
0.000237155
0.000242457
0.000247477
0.00025213
0.000256324
0.00025995
0.00026289
0.000265011
0.000266161
0.00026616
0.00026477
0.000261576
0.000255817
0.00025322
0.000342072
4.40136e-05
4.39279e-05
4.46779e-05
4.64585e-05
4.97859e-05
5.53244e-05
6.39037e-05
7.65921e-05
9.47506e-05
0.000120107
0.000154802
0.000201441
0.000263157
0.000343537
0.00044641
0.000575015
0.000729356
0.000901461
0.00109002
0.0013613
4.44246e-05
4.49162e-05
4.61313e-05
4.81765e-05
5.14911e-05
5.66938e-05
6.46783e-05
7.67849e-05
9.50149e-05
0.000122291
0.000162716
0.000221781
0.000306503
0.000425389
0.000587835
0.000802065
0.00106906
0.00137139
0.00169761
0.00214383
4.50097e-05
4.65099e-05
4.87989e-05
5.19338e-05
5.63789e-05
6.27816e-05
7.20821e-05
8.57036e-05
0.000105851
0.000135946
0.000181174
0.000249043
0.000349783
0.000496235
0.000702955
0.000983495
0.00134189
0.00175801
0.00221699
0.00290443
4.57362e-05
4.85754e-05
5.2315e-05
5.69426e-05
6.29463e-05
7.10143e-05
8.21437e-05
9.78363e-05
0.000120426
0.000153599
0.000203159
0.00027806
0.00039139
0.000560445
0.000805037
0.0011431
0.00157987
0.00209392
0.00267331
0.00366198
4.65804e-05
5.11003e-05
5.66973e-05
6.32936e-05
7.13886e-05
8.1704e-05
9.52897e-05
0.000113714
0.000139404
0.000176195
0.000230202
0.000311246
0.000434624
0.000622028
0.000899564
0.0012905
0.00180002
0.00240281
0.00309014
0.00441601
4.75142e-05
5.40279e-05
6.18859e-05
7.09514e-05
8.17231e-05
9.49428e-05
0.0001117
0.000133616
0.000163199
0.000204397
0.000263501
0.000350829
0.000483189
0.000686004
0.000992061
0.0014317
0.00201093
0.00269862
0.00348632
0.00516774
4.8503e-05
5.7277e-05
6.77759e-05
7.98203e-05
9.39e-05
0.000110763
0.00013152
0.000157826
0.000192255
0.000238849
0.000304028
0.000398435
0.000539925
0.000756871
0.00108837
0.00157302
0.0022196
0.00299055
0.00387423
0.00592578
4.95048e-05
6.07337e-05
7.4193e-05
8.96954e-05
0.000107727
0.000129037
0.000154744
0.000186515
0.000226965
0.000280217
0.000352802
0.000455616
0.000607324
0.000838667
0.00119441
0.00172188
0.00243476
0.00328959
0.00426803
0.0067041
5.04706e-05
6.42464e-05
8.0878e-05
0.000100232
0.000122818
0.000149409
0.000181133
0.000219653
0.000267606
0.000329176
0.000410992
0.000524186
0.000688137
0.000935624
0.0013165
0.00188691
0.00266716
0.0036088
0.00468363
0.00751679
5.13465e-05
6.76279e-05
8.7485e-05
0.00011093
0.000138566
0.000171243
0.000210139
0.000256925
0.000314252
0.000386356
0.000479951
0.000606409
0.000785827
0.00105292
0.00146229
0.00207891
0.00293104
0.00396568
0.00514083
0.00838489
5.2078e-05
7.06653e-05
9.35961e-05
0.00012115
0.000154133
0.000193587
0.000240841
0.000297637
0.000366674
0.000452258
0.000561205
0.000705149
0.000904984
0.00119747
0.00164203
0.00231266
0.00324664
0.00438611
0.00566894
0.00933934
5.26162e-05
7.31426e-05
9.87624e-05
0.000130162
0.000168503
0.000215202
0.00027192
0.000340634
0.000424216
0.000527139
0.0006564
0.00082399
0.00105179
0.00137899
0.00187036
0.00260972
0.00364459
0.00491055
0.00631467
0.0104205
5.29243e-05
7.4868e-05
0.00010256
0.000137228
0.00018057
0.00023462
0.000301662
0.000384213
0.000485602
0.000610736
0.000767047
0.00096716
0.00123437
0.00161111
0.00216888
0.00300329
0.00417394
0.00560653
0.00715898
0.0117078
5.29834e-05
7.57052e-05
0.000104659
0.000141714
0.000189278
0.000250283
0.000328035
0.000426072
0.00054872
0.000701888
0.000894056
0.00113917
0.00146292
0.00191274
0.00256992
0.00354646
0.00491818
0.00659439
0.00834608
0.0133326
5.2796e-05
7.55986e-05
0.000104886
0.000143201
0.000193788
0.000260746
0.000348862
0.000463365
0.000610438
0.000798034
0.00103693
0.00134391
0.00174923
0.00230906
0.00312138
0.0043257
0.00602633
0.00810871
0.0101772
0.0155791
5.23859e-05
7.45842e-05
0.000103255
0.000141571
0.00019364
0.000264908
0.000362083
0.000492877
0.000666513
0.000894634
0.0011925
0.00158273
0.00210454
0.00283066
0.00389105
0.00548104
0.00777378
0.0106441
0.0133619
0.0191843
5.17934e-05
7.27831e-05
9.99748e-05
0.000137036
0.000188851
0.000262231
0.000366096
0.00051138
0.000711735
0.000984704
0.00135339
0.00185124
0.00253447
0.00350736
0.00496396
0.00722505
0.010664
0.015299
0.0198065
0.0265533
5.10694e-05
7.03785e-05
9.54004e-05
0.000130105
0.000179937
0.000252894
0.000360113
0.000516217
0.000740529
0.00105896
0.00150675
0.00213533
0.00303044
0.00435289
0.00642002
0.0098318
0.0155479
0.0245605
0.0355003
0.0470552
5.02674e-05
6.75829e-05
8.99708e-05
0.000121484
0.000167831
0.000237814
0.000344436
0.00050595
0.000748011
0.0011069
0.00163432
0.0024079
0.00355849
0.00533682
0.00827063
0.0135082
0.023486
0.0431664
0.0798505
0.145545
1.15807
2.94888
3.21584
2.56549
1.95712
3.09072
5.86274
28.7375
39.6426
23.1641
19.9383
38.5264
101.357
171.777
248.873
326.6
522.435
814.613
1147.73
1480.74
1682.93
1488.01
1020.29
736.254
552.651
425.054
339.313
278.797
229.109
191.438
164.151
142.724
126.876
115.434
106.859
99.3412
88.8206
80.3167
76.2559
76.0676
79.7477
82.2441
82.211
78.4939
74.3317
68.1302
60.4088
54.3164
50.6003
47.9938
46.0315
45.3575
46.0811
48.3002
52.2133
56.6524
62.9372
74.4298
91.9331
129.71
2.21973
1.27171
1.4829
1.4878
1.44452
1.78921
3.74417
18.8129
47.7636
24.0797
13.2139
29.0968
59.4407
88.404
129.395
191.83
301.051
463.362
686.796
1030.37
1001.26
645.758
438.92
315.78
239.474
188.274
151.856
125.039
104.837
89.266
77.0076
67.4055
59.9052
53.892
48.9402
44.601
40.7769
37.7549
35.5089
34.0359
32.9511
31.4391
29.7373
28.1061
26.4669
24.7951
23.0687
21.3694
20.0655
19.3264
18.9055
18.8807
19.2697
20.1159
21.4697
23.5832
27.4093
35.1618
53.3977
81.3171
3.10444
1.39045
1.48265
1.53547
1.55468
1.7577
2.59335
8.61378
35.8653
21.8372
13.0716
21.9828
52.451
85.5056
130.649
210.077
353.249
603.574
927.67
1655.78
1683.25
638.62
401.688
284.977
215.514
169.438
136.621
112.523
94.5835
80.9803
70.4084
62.0453
55.3748
49.9535
45.4341
41.5908
38.315
35.5884
33.3587
31.489
29.7922
28.1845
26.6724
25.2541
23.9102
22.6459
21.4898
20.4826
19.6844
19.1608
18.9027
18.891
19.1494
19.7155
20.5503
21.7444
23.7294
27.8051
36.2138
51.2428
4.03612
1.69013
1.68746
1.73586
1.77039
1.91029
2.3964
4.27475
11.7578
14.0179
12.4918
18.5658
38.3358
80.1661
127.553
217.913
388.324
706.396
1056.21
2035.57
1183.67
585.258
360.863
254.843
193.669
153.204
124.294
103.021
87.1622
75.1337
65.7922
58.3617
52.3614
47.4359
43.3055
39.8196
36.9014
34.4711
32.396
30.5314
28.7905
27.1831
25.743
24.4681
23.3395
22.3433
21.4764
20.7513
20.1793
19.7689
19.5174
19.4195
19.4837
19.7174
20.0555
20.462
21.1432
22.8335
27.5091
41.8461
5.05283
2.07308
2.00505
2.04033
2.07518
2.18159
2.52708
3.5092
6.22341
10.1204
13.1343
18.3403
28.4949
60.3104
122.269
206.901
372.411
739.236
1367.58
1743.86
895.954
488.236
304.761
215.521
164.9
131.826
108.354
91.084
78.0817
68.0576
60.1456
53.7602
48.5262
44.1836
40.5379
37.4923
34.9905
32.9279
31.1449
29.503
27.9548
26.5375
25.2852
24.2025
23.2765
22.4871
21.8202
21.279
20.851
20.5091
20.2453
20.0685
19.9813
19.9912
20.0473
20.0939
20.2488
21.0238
23.9017
33.9919
6.17621
2.53048
2.41784
2.44534
2.48037
2.57183
2.86243
3.65187
5.60907
9.48547
14.865
21.2668
27.3656
49.3336
113.717
217.851
400.613
840.635
2460.09
1469.88
698.448
386.394
244.659
173.908
133.984
108.507
90.8235
77.856
67.9194
60.0492
53.6759
48.4291
44.0635
40.4165
37.3742
34.8774
32.8735
31.2626
29.8964
28.6504
27.4737
26.397
25.4326
24.588
23.8687
23.2647
22.7736
22.4063
22.1142
21.8362
21.563
21.3238
21.1211
20.99
20.8966
20.7772
20.7238
21.0214
22.3731
26.408
7.60358
3.06784
2.92591
2.95874
3.00313
3.09717
3.38098
4.15482
6.08783
10.3295
17.497
26.2552
33.3549
52.8667
119.608
259.728
512.405
1012.15
1851.3
934.505
495.925
290.025
189.038
136.314
106.389
87.7286
74.9587
65.5207
58.1546
52.204
47.2995
43.2084
39.781
36.9301
34.5971
32.7401
31.3093
30.2383
29.4248
28.7067
28.0068
27.3556
26.7063
26.0966
25.574
25.13
24.8003
24.6882
24.5857
24.3675
24.0709
23.7598
23.3708
23.0267
22.7493
22.5175
22.3282
22.4276
23.0391
24.4874
9.29144
3.69796
3.53906
3.59883
3.67093
3.79017
4.10703
4.94446
7.04795
11.8849
20.9813
33.4571
45.5916
69.1581
162.979
405.161
769.528
1366.17
946.002
571.989
340.662
212.483
143.677
106.339
85.2358
71.9968
62.5332
55.475
50.0414
45.7046
42.1728
39.2478
36.7889
34.8115
33.2547
32.0738
31.2371
30.7508
30.6785
30.5958
30.3519
30.0069
29.4587
28.948
28.5667
28.2179
27.8672
27.4939
27.187
26.8333
26.435
26.0359
25.584
25.2774
25.1042
24.957
24.9039
25.0815
25.567
26.3245
11.2373
4.43618
4.28116
4.39424
4.52484
4.70633
5.10247
6.08052
8.47574
14.0815
25.4722
43.5003
67.793
105.969
260.135
626.607
1335.9
1313.68
697.685
404.68
245.634
157.948
110.533
85.2067
71.0414
60.7876
53.3195
47.9341
43.9344
40.8811
38.5404
36.8252
35.6634
34.7449
34.0076
33.4731
33.136
32.9456
32.8116
32.6614
32.1576
31.4401
30.6009
29.8633
29.3531
28.9177
28.5209
28.3303
28.0786
27.748
27.5078
27.4334
27.4357
27.6028
27.8332
28.0641
28.3853
28.9154
29.7477
30.5988
13.1237
5.32036
5.18382
5.38423
5.62502
5.93351
6.48468
7.70358
10.5646
17.2228
31.504
57.3826
99.3075
180.236
421.039
1020.12
2152.89
1035.54
539.269
303.277
182.99
120.212
88.1254
71.7973
60.7021
52.2881
46.3429
42.1863
39.219
37.0648
35.5135
34.4301
33.6676
33.2129
32.9379
32.7466
32.5979
32.4688
32.476
32.1598
31.4732
30.903
30.2078
29.475
28.899
28.4575
28.208
28.2587
28.2671
28.2166
28.3353
28.6867
29.1763
29.8162
30.5322
31.3029
32.2217
33.4372
35.1584
37.0249
15.8818
6.37942
6.28662
6.62289
7.06037
7.6068
8.44494
10.0629
13.6322
21.8094
39.9516
76.8013
146.62
294.708
693.912
1702.76
1648.9
784.781
405.906
226.189
137.703
94.2715
74.2698
62.4046
52.8924
45.5526
40.4579
37.0983
34.9135
33.4899
32.5563
31.9132
31.4099
31.1177
30.9975
30.9201
30.8071
30.703
30.7533
30.497
29.9282
29.4776
28.9715
28.3902
27.8989
27.5787
27.5268
27.757
28.0125
28.2791
28.738
29.436
30.3032
31.3274
32.4781
33.7696
35.2961
37.2134
39.7833
42.9834
19.6252
7.6553
7.61845
8.17232
8.9485
9.91797
11.2749
13.5666
18.2171
28.5492
51.9932
104.086
218.469
488.255
1196.28
2910.37
1255.95
589.315
300.707
167.818
105.516
77.5134
65.2421
55.593
46.8268
39.9322
35.1604
32.203
30.5332
29.6693
29.2502
29.0191
28.8318
28.7273
28.7005
28.661
28.5571
28.4648
28.4721
28.2849
27.8923
27.5614
27.2167
26.8232
26.4983
26.3531
26.4733
26.831
27.2639
27.7645
28.4494
29.3524
30.4323
31.676
33.0784
34.6654
36.5043
38.6844
41.2889
44.1948
24.062
9.19474
9.21394
10.1346
11.4436
13.1264
15.4074
18.851
25.1526
38.4961
68.9147
140.967
319.183
796.186
2128.6
2310.38
948.839
435.926
220.876
125.624
84.0242
67.8663
58.5689
49.5924
41.5223
35.014
30.4194
27.6209
26.2006
25.6735
25.6214
25.7406
25.8645
25.9716
26.0518
26.0592
25.9854
25.9105
25.8844
25.7531
25.5095
25.2951
25.0872
24.8676
24.7172
24.7325
24.9714
25.3997
25.9237
26.54
27.315
28.271
29.3863
30.6501
32.0613
33.6312
35.3777
37.3022
39.3706
41.5477
29.1324
11.0014
11.1592
12.6167
14.7264
17.5382
21.37
26.8232
35.7192
53.3013
92.6282
188.838
446.43
1217.64
3662.99
1715.88
695.969
318.024
162.397
96.5832
70.8495
61.4481
52.7978
44.3167
36.7429
30.6085
26.2058
23.4937
22.1604
21.7736
21.9156
22.2615
22.6147
22.8998
23.0885
23.1622
23.142
23.1005
23.0734
22.994
22.863
22.7498
22.6532
22.572
22.5615
22.689
22.9875
23.4297
23.9641
24.5882
25.3355
26.2173
27.221
28.3354
29.5509
30.8559
32.2292
33.6334
35.036
36.4959
33.8267
13.0495
13.5557
15.7398
18.9928
23.4892
29.7249
38.4996
51.7689
75.6995
126.958
251.804
602.752
1741.12
3366.96
1223.05
503.206
231.462
121.079
77.6492
63.5995
56.0403
47.6974
39.5469
32.3823
26.6205
22.455
19.8449
18.5406
18.1744
18.3669
18.8027
19.2707
19.6616
19.9303
20.0684
20.1078
20.109
20.1038
20.0731
20.0236
19.9894
19.9766
19.9928
20.0744
20.2619
20.571
20.9827
21.4691
22.0266
22.6685
23.3978
24.2048
25.0761
25.9943
26.9351
27.8676
28.7646
29.6364
30.5731
36.4356
15.4429
16.4716
19.6019
24.4304
31.3219
41.0577
54.8962
75.3875
109.879
179.474
342.779
791.372
2268.29
2347.59
870.929
365.243
169.455
92.7336
66.2383
58.9698
51.1828
42.9041
35.0855
28.3424
22.9768
19.0951
16.6292
15.3559
14.9608
15.1145
15.5327
16.0109
16.4286
16.7308
16.9101
16.9962
17.0363
17.06
17.0708
17.0784
17.1012
17.1469
17.225
17.3576
17.5659
17.8552
18.2127
18.6224
19.0792
19.5857
20.1405
20.7348
21.3555
21.9846
22.6001
23.183
23.7322
24.2839
24.9079
34.1737
18.0908
19.833
24.2402
31.173
41.3403
55.9467
76.9901
108.562
161.205
263.062
490.98
1105.43
3032.09
1592.48
632.557
266.389
124.97
73.9176
60.4643
54.6436
46.5378
38.3356
30.872
24.574
19.6292
16.0682
13.7867
12.5691
12.1385
12.2132
12.5493
12.9647
13.345
13.6344
13.8232
13.9336
14.0003
14.0493
14.0922
14.1396
14.2026
14.2881
14.4037
14.5611
14.7693
15.0282
15.3285
15.66
16.0174
16.3992
16.8022
17.2204
17.6443
18.0611
18.4594
18.8362
19.2064
19.606
20.0672
28.367
20.9919
23.5268
29.5713
39.1836
53.7515
74.9899
105.81
152.987
234.819
395.481
752.052
1642.35
3233.66
1204.85
464.755
192.253
93.0615
62.1998
57.0377
50.4935
42.0989
34.0045
26.9046
21.0639
16.5555
13.3378
11.2696
10.134
9.68055
9.669
9.89659
10.2113
10.515
10.7581
10.9293
11.0431
11.1236
11.1912
11.2588
11.3356
11.4287
11.5429
11.6826
11.8526
12.0547
12.2864
12.5406
12.8105
13.0915
13.3816
13.6789
13.9804
14.2815
14.5769
14.8645
15.1505
15.4517
15.79
16.1667
31.3368
25.5772
27.4868
35.2341
48.2403
68.4628
98.768
143.01
210.315
332.606
590.724
1192.51
2879.96
2704.33
891.013
329.353
135.192
70.9569
55.9695
53.8807
46.432
37.8389
29.9024
23.1875
17.8145
13.7499
10.8855
9.04667
8.01307
7.55544
7.46889
7.58855
7.79396
8.00741
8.18891
8.32786
8.43246
8.51846
8.60044
8.68844
8.78913
8.90679
9.04365
9.20097
9.3792
9.57695
9.79049
10.0148
10.245
10.4784
10.7138
10.9511
11.1903
11.4309
11.6726
11.9181
12.1751
12.4545
12.7644
13.0882
56.6371
34.7041
31.9028
40.8601
57.9436
85.5039
128.352
192.538
285.181
453.029
840.53
1799.64
4297.09
1740.31
591.506
217.434
93.233
56.8628
53.6988
50.42
42.3576
33.702
26.0164
19.7286
14.8361
11.2165
8.70488
7.10039
6.18135
5.73799
5.59656
5.62581
5.73422
5.86428
5.98643
6.09182
6.1844
6.27332
6.36746
6.47304
6.59372
6.73114
6.88536
7.05545
7.23967
7.43521
7.63862
7.84608
8.05482
8.26332
8.47179
8.68142
8.89384
9.11058
9.33371
9.56676
9.81507
10.0832
10.3702
10.6527
87.9109
46.4556
37.9525
46.5279
67.9395
104.944
163.91
255.976
373.029
564.002
991.844
1984.04
2706.26
969.129
349.808
135.765
65.3952
49.1568
51.9743
46.8679
38.2912
29.6938
22.357
16.5422
12.1411
8.9608
6.79373
5.42028
4.62219
4.20961
4.03695
4.00216
4.03823
4.10488
4.18159
4.26138
4.3452
4.43712
4.54129
4.66028
4.79511
4.94544
5.10991
5.28647
5.47252
5.6652
5.86158
6.05913
6.2562
6.45238
6.64851
6.84632
7.04791
7.25541
7.4711
7.69769
7.93774
8.19172
8.45469
8.70189
113.865
58.9426
43.1486
53.1162
77.9747
124.32
175.296
246.559
353.4
549.377
946.664
1746.27
1199.24
493.861
197.016
84.3537
48.9516
46.3462
49.533
43.052
34.1884
25.8287
18.944
13.6447
9.74014
6.98734
5.15012
3.99895
3.32391
2.9562
2.77619
2.70623
2.69881
2.72671
2.77594
2.84072
2.91985
3.0139
3.12361
3.24901
3.38942
3.54341
3.709
3.88389
4.06558
4.25155
4.4396
4.62803
4.81592
5.00336
5.19133
5.38145
5.57561
5.77572
5.98354
6.2007
6.42804
6.6641
6.90279
7.11979
143.134
68.2028
48.0215
60.3119
86.5666
121.447
162.718
222.567
314.092
472.808
818.877
1178.53
584.412
260.053
112.449
55.0206
40.5187
46.837
46.5667
39.0154
30.1104
22.1464
15.801
11.048
7.63698
5.2944
3.76828
2.82735
2.27462
1.96318
1.79679
1.71764
1.69269
1.70348
1.74012
1.79749
1.87311
1.96559
2.07391
2.19686
2.33306
2.48085
2.6383
2.80333
2.97388
3.148
3.32401
3.50073
3.67765
3.85493
4.0334
4.21428
4.39903
4.58905
4.7856
4.98952
5.2008
5.41753
5.63338
5.82474
142.192
62.3917
50.6547
60.3945
84.0393
111.88
148.878
204.362
282.672
397.104
666.543
598.245
304.652
143.157
67.0547
39.3332
37.4623
46.6701
43.2057
34.856
26.1264
18.694
12.9503
8.75822
5.82884
3.87462
2.63818
1.89368
1.46013
1.21265
1.07523
1.00571
0.981038
0.988446
1.02052
1.07279
1.1425
1.22773
1.32705
1.43913
1.5626
1.69603
1.83791
1.98661
2.14051
2.29813
2.45825
2.61997
2.7829
2.94715
3.11324
3.28203
3.4545
3.63161
3.81418
4.00268
4.1968
4.39456
4.5896
4.75903
122.419
61.4088
48.4932
55.8954
76.0691
102.346
138.21
190.3
256.29
353.472
509.938
326.139
169.438
82.754
42.8368
31.77
38.1038
44.935
39.3289
30.6252
22.3048
15.5113
10.4061
6.77324
4.30567
2.71437
1.74635
1.1838
0.861934
0.679244
0.578384
0.528361
0.512485
0.521556
0.550331
0.59568
0.655346
0.72788
0.812183
0.90732
1.01236
1.12629
1.24804
1.37642
1.51026
1.64843
1.78997
1.93419
2.08071
2.22953
2.38094
2.53544
2.69367
2.85624
3.02366
3.19616
3.37331
3.55314
3.72917
3.87919
102.389
57.6225
48.2061
53.2472
70.1244
95.6554
131.888
180.951
234.854
333.99
343.251
191.417
99.9861
50.3809
30.2448
29.2207
40.9755
42.2186
35.125
26.4448
18.7111
12.6268
8.17271
5.08369
3.05125
1.80225
1.0796
0.674297
0.450812
0.32905
0.265199
0.236182
0.229939
0.240181
0.263681
0.298797
0.344695
0.400874
0.466872
0.542083
0.626082
0.718302
0.818059
0.924552
1.03695
1.15441
1.27618
1.40168
1.53055
1.66269
1.79821
1.93739
2.08057
2.22811
2.38028
2.53708
2.69796
2.86084
3.01905
3.15137
87.8982
52.1401
47.8272
52.2712
67.0793
92.7665
130.598
178.65
228.331
303.441
216.268
119.137
61.4171
32.5593
24.3377
29.9979
41.892
38.8428
30.7826
22.4169
15.3973
10.0563
6.24464
3.67369
2.05838
1.12173
0.60564
0.333623
0.194638
0.125487
0.0929339
0.0803867
0.0799892
0.0883468
0.104239
0.12745
0.158167
0.196681
0.243226
0.297909
0.360693
0.43117
0.509021
0.593764
0.684844
0.78166
0.883636
0.990292
1.1013
1.21651
1.33589
1.45959
1.58773
1.72045
1.85779
1.99954
2.14487
2.29147
2.43255
2.54828
94.7896
44.6628
45.9284
51.5959
66.0443
93.0749
133.998
182.584
233.815
244.539
141.937
75.9459
38.566
22.9755
22.5523
33.1369
40.3264
34.7721
26.4278
18.6363
12.4041
7.80647
4.61086
2.53315
1.30884
0.635684
0.292593
0.130895
0.0599472
0.030713
0.0195397
0.0162847
0.0172144
0.0213639
0.0289192
0.0405373
0.0570342
0.0791982
0.107702
0.143058
0.185576
0.235403
0.29249
0.356636
0.427414
0.504451
0.587351
0.67575
0.769348
0.867977
0.971576
1.08011
1.1936
1.312
1.43508
1.56238
1.69277
1.82352
1.94784
2.04778
87.1763
39.8676
42.5431
50.1848
66.2847
96.0635
140.649
190.08
236.546
171.688
94.7453
48.2708
24.8752
18.4865
23.524
37.0441
37.4882
30.4288
22.2514
15.1809
9.75726
5.87518
3.25651
1.65654
0.764383
0.311965
0.110259
0.0338415
0.00973471
0.00322189
0.00158947
0.0012884
0.0015498
0.00237456
0.00410422
0.00736236
0.0130217
0.022094
0.0355896
0.0543895
0.0791909
0.110483
0.148548
0.19349
0.245289
0.303746
0.368691
0.439745
0.516727
0.599439
0.687796
0.781691
0.88101
0.985533
1.09485
1.2082
1.32404
1.43927
1.54711
1.63182
61.3601
37.4529
40.9099
49.6277
68.1469
101.51
149.825
202.707
209.746
119.454
61.8416
29.9377
17.2225
17.3327
26.5571
37.3312
33.8126
26.0647
18.3616
12.0945
7.46421
4.25306
2.18782
1.00561
0.392704
0.120797
0.0267061
0.00419443
0.000623154
0.000161347
9.35458e-05
8.49859e-05
9.84723e-05
0.00014368
0.000264695
0.000579019
0.00136059
0.0031506
0.00680997
0.0134335
0.0241472
0.0399383
0.0615545
0.0895124
0.124104
0.165443
0.213505
0.268193
0.329365
0.396859
0.470611
0.550316
0.635853
0.726815
0.822635
0.922266
1.02383
1.12381
1.21538
1.28517
39.1618
33.9241
38.7476
48.795
70.3209
108.505
161.446
212.519
151.512
79.4294
37.9206
18.3921
13.7977
18.4869
31.1876
35.557
29.6586
21.8292
14.82
9.39137
5.51775
2.92497
1.37772
0.547054
0.164065
0.0308933
0.00315756
0.000279239
7.78677e-05
5.86575e-05
5.41023e-05
5.17241e-05
5.04269e-05
5.06365e-05
5.41086e-05
6.63303e-05
0.000104713
0.000224183
0.000585203
0.00158542
0.00400033
0.00897068
0.0177791
0.0315762
0.051231
0.0772998
0.110074
0.149648
0.195998
0.249026
0.308592
0.374485
0.446427
0.523916
0.60623
0.692155
0.779403
0.864207
0.939491
0.993667
22.7305
29.6112
34.9189
46.1758
71.1068
116.26
175.088
189.132
100.922
48.3526
21.6111
12.2847
13.2667
21.3683
34.0009
32.2566
25.2371
17.8315
11.6595
7.06823
3.90152
1.89893
0.790036
0.250486
0.0479896
0.00405741
0.000248338
7.34507e-05
6.07298e-05
5.69626e-05
5.41074e-05
5.16798e-05
4.96644e-05
4.80644e-05
4.69374e-05
4.64948e-05
4.74065e-05
5.19102e-05
6.7858e-05
0.000123426
0.000316662
0.00094592
0.00272229
0.00686926
0.0148794
0.0280838
0.0474061
0.073338
0.106068
0.145593
0.191783
0.244389
0.303032
0.367127
0.435777
0.507536
0.580025
0.649116
0.707238
0.741965
24.7354
24.1201
30.4285
42.5746
71.0942
126.481
184.449
126.01
60.6452
26.3553
12.3357
10.0844
14.6925
25.7338
33.1423
28.3074
20.9567
14.2069
8.91019
5.11594
2.59736
1.13689
0.392532
0.0857223
0.00772663
0.000337719
7.82867e-05
6.50488e-05
6.13524e-05
5.82981e-05
5.55078e-05
5.30111e-05
5.08421e-05
4.90109e-05
4.75191e-05
4.63589e-05
4.55379e-05
4.51499e-05
4.5528e-05
4.78466e-05
5.66515e-05
9.03153e-05
0.000223416
0.000728492
0.00237223
0.00660417
0.015152
0.0293563
0.049933
0.0771268
0.110884
0.150946
0.19685
0.247874
0.302935
0.360375
0.417555
0.46992
0.508872
0.516649
39.9477
19.5681
27.4097
42.0164
75.5131
149.518
152.765
74.4502
32.1921
13.5421
8.39281
10.2857
17.5833
30.5989
30.1098
23.8285
16.8913
11.003
6.57628
3.5179
1.61206
0.602918
0.153765
0.0176362
0.000667589
8.64161e-05
6.80384e-05
6.49773e-05
6.23613e-05
5.97046e-05
5.70877e-05
5.4639e-05
5.24278e-05
5.04868e-05
4.8826e-05
4.74424e-05
4.63377e-05
4.55188e-05
4.49956e-05
4.48301e-05
4.52477e-05
4.71154e-05
5.42534e-05
8.44398e-05
0.000221709
0.000817333
0.00291513
0.00832959
0.0187711
0.0351577
0.0577277
0.0862897
0.120331
0.158992
0.200981
0.244369
0.286178
0.321422
0.340713
0.323777
38.5018
19.8897
29.0123
52.3343
100.39
181.513
93.4845
39.518
15.5952
7.74695
7.53776
11.9856
21.8698
30.0218
26.093
19.5119
13.2622
8.26177
4.64658
2.25245
0.902876
0.262727
0.0394307
0.00175828
0.000103375
6.70105e-05
6.51944e-05
6.39869e-05
6.2401e-05
6.04859e-05
5.83748e-05
5.62298e-05
5.41589e-05
5.22286e-05
5.04846e-05
4.89568e-05
4.76612e-05
4.66084e-05
4.58088e-05
4.52773e-05
4.5045e-05
4.51992e-05
4.59894e-05
4.84106e-05
5.76335e-05
0.000101485
0.000326236
0.00134733
0.00471765
0.0123429
0.0252977
0.043726
0.0671743
0.0947052
0.124836
0.155373
0.183029
0.202632
0.205277
0.174081
33.2185
21.5405
35.4586
77.8152
170.017
127.221
49.4298
18.1178
7.67111
5.88525
8.34378
14.8777
26.6373
27.2455
21.9376
15.6288
10.1455
5.97786
3.09455
1.32261
0.430302
0.0808797
0.00493781
0.000157712
6.26954e-05
6.0738e-05
6.10936e-05
6.11307e-05
6.0738e-05
5.98852e-05
5.86474e-05
5.7148e-05
5.55101e-05
5.38379e-05
5.22159e-05
5.06989e-05
4.93213e-05
4.81138e-05
4.71017e-05
4.63136e-05
4.57867e-05
4.55592e-05
4.5685e-05
4.63169e-05
4.78748e-05
5.21437e-05
6.96557e-05
0.000162212
0.000651222
0.0026416
0.00796389
0.0178006
0.0321497
0.0501717
0.0703434
0.0903551
0.106861
0.114977
0.107565
0.07518
30.3169
22.9863
48.4328
141.559
159.046
57.0871
19.4915
7.48253
4.81458
6.01865
10.2674
19.0651
26.6094
23.7067
17.9279
12.1683
7.49201
4.10702
1.88727
0.679122
0.155118
0.0131901
0.000333914
6.07055e-05
5.47983e-05
5.52962e-05
5.60376e-05
5.6729e-05
5.72223e-05
5.73881e-05
5.71825e-05
5.66289e-05
5.5784e-05
5.47246e-05
5.35316e-05
5.22743e-05
5.10162e-05
4.98176e-05
4.87237e-05
4.7775e-05
4.70103e-05
4.64768e-05
4.6249e-05
4.64114e-05
4.70563e-05
4.84505e-05
5.14247e-05
5.99958e-05
9.90507e-05
0.000312202
0.00132456
0.00456146
0.0112427
0.0212887
0.0334906
0.0457716
0.0551787
0.0578105
0.0490685
0.0261235
36.0542
34.279
87.7447
152.345
52.6959
17.5542
6.58765
3.92367
4.50945
7.31174
13.2322
23.8148
24.4616
19.8621
14.1666
9.11719
5.26134
2.61124
1.02615
0.278024
0.0331179
0.000913195
6.66643e-05
5.13122e-05
5.08546e-05
5.10647e-05
5.1521e-05
5.21602e-05
5.28711e-05
5.3537e-05
5.40593e-05
5.43627e-05
5.4405e-05
5.41757e-05
5.37011e-05
5.30246e-05
5.22024e-05
5.12917e-05
5.03416e-05
4.94076e-05
4.85519e-05
4.78393e-05
4.73341e-05
4.71047e-05
4.72644e-05
4.79619e-05
4.93621e-05
5.19332e-05
5.72109e-05
7.33341e-05
0.000148019
0.000520634
0.00194045
0.00538334
0.0109011
0.0172671
0.0223667
0.0236429
0.0188977
0.00835547
84.3361
130.354
102.02
36.3937
12.5566
5.0294
3.09058
3.44628
5.46667
9.51322
17.4686
23.8592
21.1636
15.9572
10.7373
6.49482
3.44458
1.48165
0.463845
0.0749926
0.00292905
8.95873e-05
4.97579e-05
4.85808e-05
4.84436e-05
4.839e-05
4.84678e-05
4.87217e-05
4.91412e-05
4.96934e-05
5.0324e-05
5.09632e-05
5.1539e-05
5.19854e-05
5.22573e-05
5.23255e-05
5.21832e-05
5.18434e-05
5.13363e-05
5.07127e-05
5.00294e-05
4.93431e-05
4.87233e-05
4.82622e-05
4.80623e-05
4.82227e-05
4.88983e-05
5.03098e-05
5.27134e-05
5.67833e-05
6.45228e-05
8.57055e-05
0.000166645
0.000481257
0.00136822
0.00291303
0.00444806
0.00479589
0.00323386
0.000903484
30.421
48.0025
17.2109
6.82261
3.37942
2.4016
2.69982
4.21173
7.31104
12.6687
21.6462
21.4813
17.3766
12.2683
7.74226
4.33823
2.04558
0.72914
0.154175
0.00969946
0.000180413
4.94733e-05
4.63817e-05
4.63738e-05
4.64751e-05
4.65227e-05
4.65431e-05
4.65823e-05
4.66853e-05
4.68951e-05
4.72322e-05
4.76949e-05
4.82554e-05
4.8872e-05
4.94918e-05
5.00571e-05
5.05162e-05
5.0829e-05
5.09688e-05
5.09264e-05
5.07107e-05
5.03576e-05
4.99291e-05
4.94965e-05
4.91397e-05
4.89735e-05
4.91383e-05
4.97678e-05
5.10663e-05
5.32834e-05
5.67369e-05
6.20239e-05
7.0376e-05
8.56331e-05
0.000117158
0.000178195
0.000253098
0.000267667
0.000188587
0.000104782
4.94372e-05
6.46062e-05
8.41327e-05
0.000111948
0.000153704
0.0002185
0.000320516
0.000480926
0.000731346
0.00111907
0.001715
0.0026296
0.00405245
0.00635421
0.0103557
0.0180516
0.0346188
0.0748652
0.192727
0.812447
4.85973e-05
6.15983e-05
7.82112e-05
0.000102094
0.000138552
0.000196439
0.000290223
0.000442726
0.000690019
0.00108911
0.00172985
0.00275763
0.00442628
0.00723569
0.0123149
0.0225517
0.0460529
0.107039
0.284264
1.13337
4.77747e-05
5.86298e-05
7.23917e-05
9.23297e-05
0.000123174
0.000173039
0.000255716
0.000394021
0.00062589
0.00101442
0.00166394
0.0027493
0.00457969
0.0077585
0.0136242
0.0255437
0.0526719
0.119754
0.293209
0.730949
4.69983e-05
5.58149e-05
6.69128e-05
8.31166e-05
0.000108455
0.000149955
0.000219911
0.000339428
0.000545109
0.000900572
0.00151556
0.00257996
0.00443273
0.00772203
0.0138211
0.0259777
0.0523774
0.112854
0.248007
0.519594
4.62901e-05
5.32413e-05
6.1953e-05
7.47981e-05
9.50742e-05
0.000128566
0.000185565
0.000284171
0.000456756
0.000761514
0.00130233
0.00226391
0.00397892
0.00706999
0.0127847
0.0238419
0.0464733
0.094172
0.190391
0.36949
4.56651e-05
5.09652e-05
5.76166e-05
6.75713e-05
8.34471e-05
0.000109806
0.000154793
0.000232887
0.000370431
0.000615776
0.00105718
0.00185476
0.00329923
0.00592601
0.0107545
0.0198237
0.0373432
0.0715584
0.135831
0.246185
4.51316e-05
4.90149e-05
5.39422e-05
6.1499e-05
7.37253e-05
9.41058e-05
0.000128797
0.000188707
0.000293742
0.000480653
0.000817009
0.00142633
0.00253352
0.00454775
0.00821762
0.0149325
0.02729
0.0499278
0.089891
0.154745
4.46926e-05
4.73947e-05
5.09173e-05
5.65418e-05
6.58546e-05
8.147e-05
0.000107887
0.000152946
0.000230825
0.000367449
0.00061
0.00104394
0.00182332
0.00322364
0.00573223
0.0102011
0.0180942
0.0318027
0.0547354
0.0905096
4.43478e-05
4.60923e-05
4.84896e-05
5.25876e-05
5.9645e-05
7.16121e-05
9.17031e-05
0.000125392
0.000182384
0.000280016
0.000449043
0.000743718
0.00125913
0.00215964
0.00372313
0.00640661
0.0109363
0.0184041
0.0302696
0.0480599
4.40961e-05
4.50792e-05
4.657e-05
4.94748e-05
5.48424e-05
6.41104e-05
7.95462e-05
0.000104934
0.000146807
0.000216507
0.000333428
0.000530537
0.00086337
0.00142285
0.00235105
0.00385866
0.00624468
0.00991433
0.0153671
0.0230941
4.39418e-05
4.43061e-05
4.50194e-05
4.69756e-05
5.10883e-05
5.83815e-05
7.0461e-05
8.99516e-05
0.000121237
0.000171638
0.000253121
0.000385498
0.000601477
0.000952462
0.00151185
0.00237357
0.0036578
0.0055406
0.00836071
0.013018
4.43271e-05
4.38466e-05
4.44412e-05
4.70961e-05
5.30705e-05
6.41133e-05
8.3506e-05
0.000116579
0.000172376
0.000267465
0.000432548
0.000724384
0.00124509
0.00219031
0.00399477
0.00746083
0.0145475
0.0273982
0.0480161
0.0806285
0.00126162
0.000160253
0.000460031
0.00118178
0.00253363
0.00462871
0.00749064
0.0110485
0.0152352
0.0200975
0.0260213
0.0335241
0.0428071
0.0547788
0.0727237
0.0999507
0.137658
0.185083
0.240962
0.333656
0.277829
0.0990883
0.0979973
0.0927931
0.089532
0.0891442
0.091471
0.0964096
0.103943
0.114247
0.12733
0.142006
0.155424
0.179012
0.237804
0.318589
0.419484
0.522805
0.608317
0.845616
0.063432
0.0788344
0.0943971
0.113223
0.133023
0.151186
0.167391
0.182887
0.19958
0.219038
0.23984
0.251652
0.248094
0.273072
0.299669
0.326672
0.369041
0.418438
0.477052
0.602488
0.0217023
0.0180487
0.0193208
0.0268172
0.0368436
0.0478186
0.0588542
0.0696015
0.080177
0.090801
0.101234
0.110891
0.123506
0.148057
0.1645
0.168777
0.167929
0.166691
0.174265
0.204081
0.0110411
0.00653973
0.00549015
0.00759683
0.0109467
0.0149337
0.0192508
0.0236928
0.0281335
0.0325096
0.0368314
0.0414882
0.0480584
0.057563
0.0651749
0.0675325
0.0653657
0.0610141
0.0577913
0.0583714
0.00562065
0.00214435
0.00139702
0.0020879
0.0032137
0.0046531
0.00627235
0.00798703
0.00972924
0.0114598
0.0131981
0.0150889
0.0174154
0.0201198
0.0221614
0.022536
0.0211572
0.0186611
0.0159578
0.0136585
0.002774
0.000649353
0.000261346
0.000414448
0.000708807
0.0011303
0.00165044
0.00223143
0.00283902
0.00344701
0.00404356
0.00463555
0.00522598
0.00573233
0.00594208
0.00567379
0.00494043
0.00393512
0.00290603
0.00202207
0.00146729
0.000404255
8.03999e-05
8.2065e-05
0.000121255
0.000189506
0.000288016