/*--------------------------------*- C++ -*----------------------------------*\
| =========                 |                                                 |
| \\      /  F ield         | OpenFOAM: The Open Source CFD Toolbox           |
|  \\    /   O peration     | Version:  v1912                                 |
|   \\  /    A nd           | Website:  www.openfoam.com                      |
|    \\/     M anipulation  |                                                 |
\*---------------------------------------------------------------------------*/
FoamFile
{
    version     2.0;
    format      ascii;
    class       volScalarField;
    location    "30";
    object      k;
}
// * * * * * * * * * * * * * * * * * * * * * * * * * * * * * * * * * * * * * //

dimensions      [0 2 -2 0 0 0 0];


internalField   nonuniform List<scalar> 
20320
(
0.00413927
0.00425408
0.00433101
0.00440644
0.00447984
0.00455067
0.00461825
0.00468177
0.00474028
0.00479269
0.00483779
0.0048742
0.00490038
0.00491455
0.00491453
0.00489741
0.00485794
0.00478638
0.00475376
0.00580797
0.00415082
0.00414929
0.00419491
0.00429181
0.00445999
0.00472021
0.00509116
0.00558972
0.00623013
0.00702473
0.00798373
0.00911521
0.0104257
0.0119167
0.0135801
0.0153859
0.0172446
0.0189292
0.0200012
0.0185994
0.00417745
0.0042171
0.00430373
0.00444327
0.00466095
0.00498864
0.00546597
0.00614234
0.00707606
0.00833011
0.00996342
0.0120193
0.0145153
0.0174344
0.0207128
0.0242161
0.0276697
0.0304858
0.031647
0.0277836
0.00421507
0.00431986
0.00447423
0.00468012
0.0049633
0.00535681
0.00590403
0.00666336
0.00771339
0.00915612
0.0111127
0.0137066
0.0170333
0.0211178
0.0258746
0.0310659
0.0361978
0.0402785
0.0416701
0.0359582
0.00426136
0.00445092
0.00469381
0.00498656
0.00535467
0.00583136
0.00646066
0.0073028
0.00844187
0.00999487
0.012118
0.0150037
0.0188509
0.0237931
0.0297939
0.0365415
0.0432943
0.0486305
0.0503293
0.0433863
0.00431456
0.004608
0.00495991
0.00536171
0.00583772
0.0064206
0.00715413
0.00809836
0.00933817
0.0109944
0.0132369
0.0162973
0.0204606
0.0259931
0.0329823
0.0411137
0.0494013
0.0559487
0.0579552
0.0501584
0.00437267
0.00478608
0.00526512
0.00579658
0.00640288
0.00711526
0.00797642
0.00904526
0.010406
0.0121799
0.0145405
0.0177383
0.0221149
0.0280549
0.0358042
0.0451235
0.0548331
0.062549
0.0648629
0.0563926
0.00443339
0.00497893
0.00559995
0.00627951
0.00703758
0.00790325
0.0089172
0.0101361
0.0116425
0.0135565
0.0160519
0.0193872
0.0239391
0.0301833
0.0385232
0.048846
0.0598479
0.0686785
0.0712941
0.0622685
0.00449406
0.00517893
0.00595212
0.00679458
0.00772385
0.00876644
0.00996021
0.0113585
0.013041
0.0151256
0.0177841
0.0212782
0.0260063
0.0325118
0.0413378
0.0525213
0.0646997
0.0745968
0.0775042
0.0679742
0.00455176
0.00537706
0.00630642
0.0073213
0.00843762
0.00967963
0.011082
0.0126938
0.0145905
0.0168863
0.0197496
0.0234421
0.0283763
0.0351465
0.0444143
0.0563706
0.0696442
0.0805747
0.0837589
0.0736782
0.00460341
0.00556322
0.00664519
0.007835
0.00914888
0.0106102
0.0122511
0.0141157
0.016274
0.0188351
0.0219621
0.0259144
0.0311138
0.0381941
0.0479176
0.0606237
0.0749648
0.0869254
0.0903582
0.0795912
0.00464607
0.00572683
0.00694928
0.00830797
0.00982269
0.0115187
0.0134274
0.0155888
0.0180667
0.0209637
0.0244359
0.028738
0.0342976
0.0417816
0.0520397
0.0655524
0.0810138
0.0940567
0.0976989
0.0859879
0.00467719
0.00585782
0.00719983
0.00871178
0.0104214
0.0123605
0.0145634
0.0170683
0.0199342
0.0232567
0.0271839
0.0319637
0.0380274
0.046072
0.0570287
0.0715134
0.0882685
0.102545
0.106359
0.0932059
0.00469488
0.00594776
0.00738022
0.00901991
0.0109078
0.013088
0.0156043
0.0184985
0.0218284
0.0256854
0.0302104
0.0356449
0.0424239
0.0512768
0.0632194
0.0790065
0.097427
0.113272
0.117262
0.101837
0.00469825
0.00599093
0.00747823
0.00921095
0.0112486
0.0136548
0.0164913
0.0198127
0.0236841
0.0281999
0.0335004
0.0398258
0.0476217
0.057662
0.0710685
0.0887615
0.109577
0.127683
0.131941
0.112851
0.00468749
0.00598524
0.00748786
0.00927161
0.0114189
0.0140201
0.0171653
0.020935
0.025416
0.0307206
0.0370039
0.044521
0.0537484
0.0655389
0.0811813
0.101849
0.126475
0.14835
0.153345
0.128167
0.00466384
0.00593248
0.00741031
0.00919884
0.0114058
0.0141542
0.0175732
0.0217849
0.0269183
0.0331285
0.0406142
0.0496794
0.0608769
0.0752155
0.0942959
0.119791
0.151001
0.180109
0.187747
0.152364
0.00462946
0.00583818
0.00725391
0.00900062
0.0112109
0.0140434
0.0176745
0.0222845
0.0280692
0.0352602
0.0441442
0.0551329
0.0689387
0.0868703
0.111136
0.144507
0.187611
0.232118
0.24963
0.198726
0.00458708
0.00571069
0.00703291
0.00869497
0.0108509
0.0136934
0.0174502
0.0223716
0.0287445
0.0369154
0.0473164
0.0605483
0.0776083
0.100331
0.132034
0.177794
0.242236
0.320937
0.375086
0.309375
0.00453964
0.00556002
0.00676534
0.00830749
0.0103557
0.0131307
0.0169085
0.0220135
0.0288394
0.0378817
0.0497752
0.0654018
0.0861888
0.114767
0.156205
0.21972
0.319194
0.468033
0.643447
0.6689
0.748726
0.969603
1.02718
0.883592
0.737785
1.00031
1.52561
4.38535
5.46417
3.81868
3.45888
5.39261
10.2515
14.562
18.6358
22.3956
30.6545
41.168
51.7691
61.4465
66.8436
61.8054
48.0029
38.5871
31.8586
26.7328
22.98
20.1576
17.6945
15.6855
14.1511
12.8881
11.9065
11.1719
10.6051
10.1105
9.39959
8.77807
8.46315
8.43161
8.69386
8.87452
8.89931
8.63612
8.33508
7.88409
7.28557
6.77794
6.45768
6.23113
6.05294
5.98573
6.04069
6.22029
6.54667
6.90538
7.40593
8.24276
9.43687
11.873
1.15853
2.67375
3.02826
2.91036
2.5679
2.61599
3.64616
7.14918
14.1569
11.266
10.0884
11.9115
25.1469
37.355
49.8381
64.8649
88.5169
119.543
154.631
201.725
199.474
149.574
114.741
91.2769
75.2244
63.4766
54.5333
47.5768
42.0023
37.4187
33.6795
30.6258
28.2007
26.3196
24.7244
23.1842
21.6449
20.3379
19.582
19.2939
19.1892
18.7388
17.9978
17.147
16.1919
15.1585
14.1483
13.3976
12.8859
12.5837
12.5525
12.6195
12.752
12.9943
13.3299
13.6954
14.2772
15.4996
18.1374
21.2185
1.45319
3.47771
4.05553
4.13349
3.95531
3.93486
4.48559
6.49111
13.1023
12.0384
12.336
13.7651
26.6882
43.7638
60.5624
82.916
116.793
166.158
215.979
304.733
308.124
170.793
128.53
103.517
86.5305
73.9656
64.1775
56.4389
50.2581
45.2296
41.1002
37.6978
34.9169
32.6555
30.7186
28.9435
27.2897
25.8799
24.8944
24.2828
23.7885
23.1944
22.4445
21.5739
20.628
19.6667
18.7719
18.0372
17.4872
17.141
16.9964
16.9648
17.0198
17.1713
17.3321
17.3641
17.2498
17.2513
18.0849
19.6612
1.73625
4.20736
4.95138
5.18607
5.15119
5.15042
5.50555
6.57607
9.40541
12.1823
13.8554
15.7214
22.8773
44.0976
64.119
90.7963
131.062
191.74
245.974
356.684
253.901
165.192
124.133
101.273
86.1526
74.8748
65.9322
58.7497
52.9571
48.2194
44.2933
41.01
38.2688
35.9753
33.9927
32.2197
30.6388
29.3201
28.3328
27.6121
26.9868
26.3327
25.6043
24.8099
23.9843
23.1663
22.4028
21.7561
21.2649
20.9274
20.7268
20.6224
20.5886
20.6143
20.6066
20.3648
19.7596
18.8742
18.3709
19.9245
2.0226
4.94907
5.84852
6.21087
6.28307
6.31433
6.58164
7.40799
9.3943
12.7508
15.8433
18.1698
21.0631
37.6918
64.3774
91.0166
130.58
196.149
283.182
319.9
211.526
146.194
111.176
91.7272
79.3337
70.2277
63.0047
57.1507
52.3489
48.3385
44.9424
42.0439
39.5729
37.4674
35.6462
34.0562
32.6935
31.5874
30.7462
30.0966
29.5155
28.9326
28.312
27.6546
26.9888
26.3367
25.7264
25.2151
24.8255
24.5296
24.3049
24.1468
24.0335
23.9621
23.8525
23.5254
22.8279
21.7878
20.8074
21.1586
2.31936
5.73022
6.79955
7.27675
7.43448
7.4997
7.73179
8.4686
10.2783
13.7335
18.0194
21.593
23.3392
34.7908
62.0523
93.4293
134.742
206.551
382.067
276.718
176.329
124.241
95.9673
80.1317
70.3273
63.3834
58.009
53.6537
49.9999
46.8565
44.1238
41.745
39.6885
37.9284
36.4287
35.1663
34.1384
33.3464
32.7741
32.3389
31.9388
31.5326
31.0861
30.5997
30.1071
29.6264
29.1844
28.8419
28.5866
28.3553
28.1227
27.9208
27.7302
27.5714
27.3948
27.0415
26.4209
25.5421
24.6036
24.0697
2.67281
6.58191
7.83533
8.42819
8.66345
8.76451
8.99007
9.69558
11.4811
15.099
20.3493
25.5347
28.5647
37.8613
63.4592
100.729
150.291
225.62
317.198
207.941
141.638
103.499
81.9485
69.6806
62.1908
57.0541
53.1375
49.9416
47.2228
44.8587
42.7921
40.9927
39.4455
38.1487
37.0907
36.2577
35.6425
35.2474
35.0527
34.9405
34.8075
34.6445
34.3921
34.0752
33.7492
33.4217
33.1396
33.0306
32.9523
32.7901
32.5552
32.3102
31.985
31.6679
31.3674
30.9878
30.4338
29.799
29.1462
28.6298
3.06491
7.52035
8.97912
9.70343
10.0206
10.1642
10.4035
11.1081
12.9165
16.7329
22.8715
29.8933
35.522
45.0223
74.2416
126.329
184.312
262.329
211.607
154.71
112.895
86.2762
70.6658
61.7543
56.3972
52.6121
49.5202
47.0046
44.9527
43.2534
41.8476
40.6861
39.7156
38.972
38.4306
38.0713
37.8861
37.9087
38.2246
38.521
38.6503
38.6582
38.4608
38.2211
38.0205
37.7933
37.5282
37.2631
37.0735
36.8385
36.5497
36.257
35.8976
35.6268
35.4231
35.1473
34.807
34.4831
34.2168
34.0206
3.49005
8.55311
10.26
11.1387
11.5555
11.7612
12.0356
12.7743
14.6386
18.6655
25.6571
34.811
44.8175
57.4419
96.0657
161.845
252.19
251.134
172.035
124.027
92.7877
73.5348
62.6373
56.7162
53.1308
49.8528
47.1381
45.0647
43.506
42.3543
41.5522
41.0903
40.9309
40.8782
40.8971
40.9955
41.1688
41.3942
41.6523
41.8786
41.7835
41.4887
41.0581
40.6425
40.351
40.0732
39.7968
39.7026
39.5763
39.372
39.2179
39.1884
39.2016
39.3236
39.4503
39.4958
39.5137
39.6001
39.8534
40.0952
3.88271
9.7142
11.7066
12.7691
13.3214
13.6301
13.9813
14.7983
16.7873
21.0884
28.9637
40.589
55.5128
77.8701
127.758
216.039
335.86
216.429
145.609
103.67
78.73
64.7527
57.7201
54.1902
51.0139
47.9341
45.5032
43.7484
42.5395
41.7656
41.3526
41.2323
41.2949
41.528
41.8411
42.1556
42.4367
42.6756
42.9997
43.056
42.7735
42.5492
42.1881
41.748
41.393
41.1126
40.9714
41.0968
41.1941
41.2234
41.3718
41.7007
42.1214
42.6316
43.1463
43.626
44.141
44.816
45.8355
46.969
4.42321
11.0333
13.3505
14.6343
15.3834
15.8653
16.3668
17.3339
19.5424
24.267
33.2004
47.765
69.1356
103.534
172.129
294.418
287.709
182.739
122.542
87.7481
68.5701
59.1492
55.4159
52.709
49.4336
46.2892
43.897
42.3132
41.3834
40.9366
40.8302
40.9276
41.0998
41.3909
41.7674
42.121
42.3863
42.6059
42.9275
42.9801
42.7381
42.5674
42.3206
41.9726
41.6684
41.4851
41.5231
41.8183
42.1359
42.4423
42.8911
43.5243
44.2698
45.1009
45.9711
46.8755
47.8859
49.1301
50.8165
52.9093
5.11037
12.5249
15.1995
16.7674
17.8128
18.5786
19.3537
20.5959
23.1627
28.5047
38.8235
56.9924
87.1364
139.506
238.708
405.515
244.315
153.469
102.831
75.1951
61.5356
56.1385
54.3767
51.6902
48.0178
44.5519
41.9559
40.3667
39.6109
39.4346
39.6036
39.9196
40.2503
40.6148
41.0031
41.3335
41.5593
41.7501
42.0032
42.0705
41.9308
41.823
41.6804
41.4667
41.2895
41.2562
41.4581
41.8827
42.371
42.8987
43.5653
44.3972
45.3451
46.3812
47.4838
48.662
49.9682
51.4813
53.2796
55.2568
5.87213
14.195
17.2557
19.2317
20.6942
21.9036
23.1525
24.8698
27.9801
34.1605
46.1905
68.5946
109.604
187.725
338.92
357.355
205.928
128.045
86.6486
65.881
57.2493
55.1954
53.6061
50.3243
46.3313
42.5636
39.6977
37.9661
37.2379
37.2189
37.5991
38.1241
38.6379
39.1114
39.5297
39.8467
40.0516
40.2203
40.413
40.4943
40.4511
40.4174
40.373
40.2982
40.271
40.3887
40.7165
41.2272
41.8209
42.48
43.2598
44.1747
45.1932
46.2922
47.4584
48.6954
50.0215
51.453
52.9849
54.5857
6.69268
16.0086
19.5638
22.0774
24.1154
25.9786
27.9792
30.5046
34.4309
41.6965
55.6995
82.6547
135.516
244.789
473.685
298.926
170.83
106.522
74.0183
59.6009
55.27
54.8661
52.4926
48.6458
44.3146
40.2985
37.1972
35.2769
34.464
34.4733
34.9618
35.6346
36.3006
36.8825
37.3496
37.6807
37.8933
38.0597
38.2246
38.3272
38.3649
38.4075
38.4553
38.5056
38.6142
38.8534
39.2623
39.8144
40.4488
41.1519
41.9493
42.846
43.8211
44.8552
45.9337
47.0469
48.1861
49.3387
50.5023
51.7234
7.42046
17.884
22.1623
25.3546
28.1612
30.9413
34.0348
37.8206
43.0619
51.7894
68.0955
99.7219
164.447
308.377
460.392
243.986
140.784
89.1219
64.7716
55.9502
55.0102
54.2082
51.0246
46.6338
41.9923
37.7848
34.5115
32.4203
31.472
31.4123
31.9018
32.6299
33.3782
34.0325
34.5449
34.9053
35.1451
35.3289
35.4962
35.63
35.7359
35.8504
35.9806
36.1335
36.348
36.6701
37.1196
37.6752
38.2997
38.981
39.7272
40.5369
41.3947
42.2832
43.1855
44.0845
44.9642
45.8191
46.6806
47.6197
7.82762
19.827
25.035
29.0801
32.8981
36.9168
41.512
47.0909
54.3674
65.3606
84.771
121.716
197.208
366.057
368.742
199.132
116.392
75.609
58.526
54.435
55.2003
53.1039
49.0949
44.2538
39.3824
35.0548
31.68
29.4651
28.3789
28.1973
28.6047
29.2974
30.0472
30.7192
31.2524
31.6383
31.9099
32.1216
32.3105
32.4825
32.6475
32.8263
33.0274
33.2605
33.5504
33.9228
34.385
34.9204
35.5057
36.1296
36.7912
37.4859
38.2016
38.9242
39.6384
40.3298
40.9916
41.6391
42.3231
43.0912
7.53964
21.6276
28.0225
33.2122
38.3455
43.9872
50.57
58.5429
68.7229
83.4028
107.849
152.498
242.662
440.12
294.387
163.913
96.8205
65.4687
54.7713
54.6487
54.7549
51.4557
46.7313
41.5384
36.5208
32.1446
28.7362
26.4522
25.2523
24.9327
25.2079
25.7965
26.4777
27.1118
27.6318
28.026
28.3219
28.5628
28.7824
28.9954
29.2138
29.4505
29.7127
30.0087
30.3523
30.7552
31.2175
31.7264
32.266
32.8265
33.4037
33.9925
34.585
35.172
35.7441
36.2961
36.8347
37.3881
38.0026
38.6827
6.67582
22.9414
30.9029
37.624
44.4139
52.1621
61.3276
72.3761
86.3795
106.61
139.715
198.479
310.014
459.968
246.246
135.45
80.9517
58.1705
52.9978
55.2107
53.6911
49.339
44.0175
38.5548
33.4621
29.1006
25.7175
23.416
22.1363
21.686
21.8085
22.2525
22.8169
23.3697
23.8447
24.2267
24.5348
24.8015
25.0545
25.3101
25.5793
25.8702
26.1878
26.5368
26.923
27.3497
27.8131
28.303
28.8083
29.3213
29.8377
30.3545
30.8682
31.3753
31.8739
32.3675
32.8711
33.4123
34.0181
34.6536
7.11763
23.6022
33.4352
42.0198
50.9262
61.3077
73.8354
88.904
107.562
134.906
181.433
265.358
432.962
408.043
203.644
110.655
68.1381
53.2554
52.8132
55.1197
52.0445
46.8219
41.0225
35.372
30.2681
25.9762
22.6676
20.3929
19.0685
18.5074
18.4791
18.7642
19.1883
19.6353
20.0446
20.3992
20.71
20.9991
21.2868
21.5865
21.906
22.25
22.6204
23.0182
23.4441
23.8961
24.3691
24.855
25.3461
25.837
26.3255
26.8109
27.2939
27.7757
28.2599
28.7548
29.2755
29.8405
30.4556
31.0606
10.6202
23.3028
35.3196
46.1141
57.6353
71.3576
88.2662
108.937
133.092
167.761
230.895
348.421
563.763
317.125
161.008
88.7387
58.1911
50.3152
53.7636
54.1252
49.8415
43.942
37.8038
32.0562
27.004
22.8297
19.636
17.425
16.0886
15.4429
15.281
15.4147
15.6982
16.0351
16.3734
16.6957
17.0058
17.3164
17.6399
17.9844
18.3539
18.7495
19.1704
19.6144
20.0791
20.5601
21.052
21.5485
22.0448
22.5375
23.0265
23.5135
24.0015
24.4946
24.9988
25.5224
26.0762
26.6679
27.2873
27.8622
14.3185
25.2981
37.1287
49.8905
64.343
82.2792
104.512
132.253
160.864
198.684
267.178
391.387
448.013
230.31
121.922
70.6694
50.9881
49.0213
54.1516
52.4658
47.1777
40.7698
34.4282
28.6745
23.7339
19.719
16.674
14.557
13.2387
12.5385
12.2707
12.2767
12.4384
12.6787
12.955
13.2501
13.5619
13.8947
14.2534
14.6405
15.0561
15.4983
15.9638
16.4489
16.949
17.4593
17.9748
18.4907
19.0041
19.5135
20.0201
20.5267
21.0374
21.5571
22.0914
22.6467
23.2281
23.8347
24.4475
24.9905
17.0898
32.1361
39.18
53.9237
70.9401
93.0212
112.414
134.964
163.553
206.842
277.227
385.855
290.533
162.158
91.1265
56.9716
46.2145
49.1488
53.3908
50.1382
44.0992
37.3758
30.9653
25.2934
20.5196
16.7009
13.8326
11.836
10.5647
9.84232
9.50371
9.41702
9.48844
9.65772
9.89021
10.1686
10.4859
10.8396
11.2286
11.6505
12.1024
12.5803
13.0797
13.5956
14.1232
14.6576
15.1945
15.7306
16.2639
16.7941
17.3229
17.8534
18.3895
18.9354
19.4953
20.0729
20.6692
21.2778
21.8753
22.3865
19.9461
38.1791
42.6121
58.5215
76.6942
94.3337
111.488
132.906
161.129
201.026
269.548
318.298
197.63
115.708
68.6127
47.2331
43.5072
50.3765
51.7578
47.271
40.7128
33.8421
27.4838
21.9728
17.4153
13.8251
11.1586
9.30718
8.11165
7.40178
7.03138
6.89181
6.90945
7.03684
7.24479
7.51559
7.83864
8.2069
8.61494
9.05775
9.5305
10.0282
10.5459
11.0785
11.6212
12.1698
12.7206
13.2708
13.8194
14.3664
14.9135
15.4631
16.0184
16.5826
17.1582
17.7467
18.3461
18.9475
19.5256
20.0066
19.932
40.6657
46.7373
59.8199
76.706
92.1393
109.144
131.284
158.268
190.057
247.902
219.716
138.306
83.6214
52.5477
40.7608
42.6181
50.6065
49.488
44.0057
37.1218
30.2518
24.0488
18.7662
14.4675
11.1349
8.69422
7.01375
5.92422
5.26255
4.899
4.74457
4.74098
4.85009
5.04622
5.31163
5.63393
6.00393
6.41463
6.86006
7.33479
7.83378
8.35227
8.88552
9.42921
9.97949
10.5333
11.0884
11.6437
12.1994
12.7566
13.317
13.8829
14.456
15.0376
15.6276
16.2222
16.8113
17.3685
17.8216
18.1164
43.7741
48.3547
58.6942
73.6307
89.2285
107.007
129.182
153.136
180.863
214.584
155.316
98.6425
61.0443
41.4147
36.9967
43.3637
49.5035
46.5999
40.4346
33.4197
26.6782
20.7154
15.7167
11.7135
8.66549
6.47891
4.99979
4.04484
3.46135
3.13782
2.99945
2.99761
3.10032
3.28587
3.53901
3.84736
4.20213
4.59647
5.02485
5.48235
5.96441
6.46675
6.98519
7.5159
8.05546
8.60108
9.15078
9.70343
10.2589
10.8176
11.3805
11.9487
12.5231
13.1035
13.6886
14.2736
14.8476
15.3833
15.8102
16.1615
43.979
49.9963
58.426
71.3582
87.0177
105.577
126.807
145.982
173.772
168.416
111.875
70.9465
45.0816
34.2161
35.5521
45.3094
47.5663
43.2767
36.6789
29.6909
23.1823
17.5282
12.8583
9.18154
6.45889
4.56139
3.29991
2.50008
2.02134
1.76364
1.6611
1.67177
1.76907
1.93602
2.16137
2.43724
2.75747
3.11676
3.50971
3.9325
4.38137
4.85263
5.34263
5.84803
6.36574
6.8931
7.42816
7.9696
8.51676
9.06953
9.62804
10.1923
10.7621
11.3364
11.9125
12.485
13.0416
13.5548
13.9559
14.6505
42.5137
50.8751
58.7869
70.36
86.0549
105.158
125.124
141.235
160.172
124.172
81.2271
50.9684
34.1554
30.2605
36.102
45.8897
45.0506
39.6618
32.8342
26.005
19.812
14.5201
10.2159
6.91729
4.55913
2.95978
1.93451
1.31396
0.963392
0.788274
0.728369
0.748562
0.830154
0.963664
1.14414
1.36845
1.63401
1.93816
2.27809
2.65089
3.05239
3.47966
3.92954
4.39901
4.88522
5.38562
5.89808
6.42103
6.9533
7.49405
8.04262
8.59811
9.15918
9.72366
10.2878
10.8447
11.3815
11.87
12.2444
15.4657
39.3904
50.2051
58.8092
70.0137
85.9802
105.561
124.061
138.479
135.372
91.8315
58.403
36.5725
27.3793
28.9518
38.2711
44.8194
41.9199
35.8445
28.9876
22.4219
16.6061
11.7171
7.82381
4.95926
2.97382
1.69114
0.927987
0.513349
0.309928
0.223611
0.200827
0.217588
0.266641
0.348195
0.464797
0.618908
0.81183
1.04363
1.31337
1.61919
1.95884
2.32958
2.72861
3.15242
3.59837
4.06389
4.54669
5.04469
5.55618
6.0797
6.61356
7.15597
7.70455
8.2558
8.80466
9.34301
9.85635
10.3165
10.6622
14.7008
37.622
48.4172
57.84
69.7394
86.3444
106.053
122.63
132.967
103.581
67.1253
41.1202
26.792
24.0126
29.7208
41.0266
42.8319
38.4275
31.9586
25.2167
18.9915
13.5961
9.14091
5.73478
3.31131
1.71622
0.777869
0.306131
0.112299
0.0472767
0.0284785
0.0252164
0.0298032
0.0426652
0.0680388
0.112574
0.183913
0.288782
0.431762
0.614963
0.838578
1.10144
1.40154
1.73638
2.1034
2.49951
2.92223
3.36809
3.83475
4.31962
4.82047
5.3347
5.85947
6.39116
6.92511
7.45477
7.97021
8.4555
8.88225
9.19544
11.6892
36.3034
47.3136
56.8947
69.5947
86.7735
105.99
121.043
116.52
77.2553
47.3564
28.3341
21.0433
23.2751
32.0909
41.3876
40.1342
34.7148
28.0883
21.5793
15.7511
10.8079
6.85133
3.95252
1.98418
0.80571
0.239941
0.0525209
0.0133611
0.00707795
0.00592733
0.00569697
0.00588319
0.00668789
0.00890059
0.0144924
0.0276503
0.0556188
0.107964
0.194079
0.320602
0.490768
0.704951
0.961876
1.2592
1.59401
1.96305
2.36296
2.79029
3.24153
3.71362
4.20215
4.70356
5.21281
5.72398
6.22891
6.71592
7.16704
7.55323
7.82681
8.70097
32.9693
45.0373
55.1021
68.6478
86.4507
104.765
116.318
88.5744
54.6861
31.5267
19.841
18.635
24.4601
35.6121
40.2917
36.9127
30.874
24.2931
18.1142
12.7275
8.263
4.87039
2.48601
0.994805
0.260328
0.0399
0.00864936
0.00584414
0.00540485
0.00519667
0.00504366
0.00492984
0.0048646
0.00488308
0.00509344
0.00583172
0.00811835
0.014744
0.0319292
0.070056
0.141334
0.255669
0.418319
0.63033
0.889872
1.19349
1.53685
1.91533
2.32419
2.75864
3.21369
3.68406
4.16342
4.6444
5.11742
5.56827
5.97695
6.31172
6.53003
6.07983
28.0139
40.7914
51.4592
65.8035
84.4729
101.64
99.3502
62.2567
35.5551
20.0517
15.4805
18.6779
27.0256
37.8807
38.0031
33.2575
26.9774
20.6181
14.8499
9.94145
6.0297
3.20506
1.35065
0.363064
0.0471454
0.00829224
0.00594824
0.00560736
0.00540355
0.0052254
0.00506913
0.00493663
0.00482821
0.00474525
0.00469241
0.00468325
0.00476283
0.00509031
0.0062234
0.0100194
0.0216888
0.0521218
0.116687
0.229169
0.396569
0.619072
0.892453
1.21064
1.56704
1.95501
2.3678
2.79838
3.23897
3.68044
4.11117
4.51539
4.86952
5.13562
5.26
6.47056
22.9665
35.4821
46.4955
61.2594
80.8133
94.1149
68.952
39.463
21.0597
13.5393
14.3709
20.3705
30.6418
37.5552
35.0291
29.4428
23.1423
17.1183
11.8147
7.41522
4.11847
1.87056
0.568633
0.0776646
0.00933657
0.00617061
0.00585324
0.00565587
0.00547125
0.00529825
0.0051408
0.00500213
0.00488376
0.0047865
0.0047101
0.00465432
0.00462163
0.00461988
0.00467406
0.00488103
0.005625
0.00841401
0.0184018
0.0484109
0.118229
0.244255
0.43136
0.675062
0.967054
1.2982
1.65939
2.04142
2.43436
2.82693
3.20525
3.55071
3.83505
4.00943
3.97803
8.94318
20.8651
31.5724
42.6217
57.2148
78.0259
73.1168
42.4279
22.2061
12.4836
11.2818
15.2928
23.2044
34.5155
35.5655
31.3917
25.5158
19.4328
13.8358
9.03547
5.22424
2.54414
0.889798
0.151154
0.0127056
0.00628022
0.00598563
0.00584345
0.00569356
0.0055361
0.00537754
0.00522656
0.00508828
0.00496556
0.00485975
0.00477124
0.00470065
0.00464877
0.00461605
0.00460478
0.00462148
0.00468674
0.00488766
0.00561395
0.00864592
0.0209283
0.0603817
0.151012
0.305094
0.519028
0.782138
1.08235
1.40753
1.74504
2.08081
2.39803
2.67446
2.87661
2.94511
2.75381
8.76355
21.3107
30.4658
42.8156
58.1428
74.5614
45.1627
23.2496
11.9717
9.16483
11.5671
17.4184
26.9863
34.51
32.5767
27.5468
21.6642
15.9238
10.8062
6.53824
3.38234
1.3306
0.289821
0.0229967
0.00624013
0.00584397
0.00580969
0.00575186
0.00566638
0.00555782
0.00543423
0.0053058
0.00517967
0.00506055
0.00495187
0.00485611
0.00477482
0.00470913
0.00466012
0.00462907
0.00461806
0.00463167
0.00467888
0.00478496
0.00507277
0.00616777
0.0112239
0.0323119
0.0944242
0.217445
0.400327
0.630138
0.891401
1.16808
1.44277
1.69515
1.89912
2.017
1.98591
1.68301
7.97742
20.9948
30.1606
45.2117
64.377
49.4638
24.2528
11.6434
7.727
8.90933
13.1502
20.4065
30.9302
32.6809
29.1424
23.7322
18.0016
12.6638
8.05554
4.40601
1.91264
0.512855
0.0500454
0.00647796
0.00545583
0.00548559
0.005526
0.00554219
0.00553094
0.00548989
0.00542315
0.00533808
0.0052423
0.00514252
0.00504439
0.00495175
0.00486721
0.00479311
0.00473151
0.00468464
0.00465535
0.00464646
0.00466156
0.00470928
0.00480587
0.00499655
0.00553013
0.00779405
0.0185752
0.0579639
0.150139
0.298467
0.488555
0.70096
0.914679
1.10599
1.24585
1.29505
1.19594
0.861753
7.5406
19.3546
30.1402
51.1954
50.3229
23.7022
10.8353
6.58747
7.02721
10.087
15.5415
24.2391
31.2955
29.9749
25.4833
19.98
14.5371
9.66398
5.60498
2.6561
0.850111
0.111073
0.00804762
0.00510822
0.00507092
0.00512259
0.00518049
0.00523567
0.00527877
0.00530126
0.00529993
0.00527585
0.00523224
0.00517379
0.00510557
0.00503205
0.00495747
0.00488593
0.00482068
0.00476464
0.00472071
0.00469232
0.00468483
0.00470416
0.00475615
0.00485505
0.00503052
0.00538065
0.00648212
0.0114973
0.0328186
0.0927692
0.200493
0.342587
0.49605
0.63476
0.729025
0.743212
0.634038
0.362906
8.50029
20.177
33.6986
42.9653
19.747
8.99686
5.46973
5.65598
7.9418
12.0521
18.6484
28.2584
29.8621
26.7006
21.6974
16.315
11.2799
6.93868
3.54725
1.32141
0.236109
0.0134748
0.00498741
0.00480925
0.00481041
0.00483166
0.00486885
0.00491865
0.0049738
0.00502666
0.00507068
0.00510083
0.00511415
0.00510972
0.00508901
0.00505464
0.00501014
0.00495922
0.00490514
0.00485166
0.00480307
0.00476393
0.00473879
0.00473253
0.00475303
0.00481032
0.0049142
0.00508755
0.00537792
0.00598147
0.00798856
0.0165076
0.0451474
0.105846
0.191213
0.27864
0.340482
0.348427
0.278728
0.131337
15.0315
34.9761
27.8571
13.1275
6.45794
4.41091
4.67543
6.43183
9.64996
14.6524
22.5821
28.6498
27.2482
23.0215
17.8708
12.7942
8.2749
4.54961
1.92163
0.455329
0.0307034
0.00507747
0.00465291
0.00464137
0.00463911
0.0046409
0.0046518
0.00467484
0.00470935
0.00475315
0.00480265
0.0048532
0.00490004
0.00493874
0.00496625
0.00498053
0.00498098
0.00496835
0.0049445
0.00491274
0.00487681
0.00484057
0.00480877
0.00478778
0.00478473
0.00480647
0.00486346
0.00496995
0.0051402
0.00540503
0.00582198
0.00663271
0.00889527
0.0162728
0.0345112
0.0625689
0.0872383
0.0905724
0.0630681
0.0218209
7.65368
12.133
6.50601
4.29343
3.71071
4.08366
5.40475
7.94196
11.997
17.908
26.2147
26.9349
23.8675
19.146
14.1221
9.50808
5.59916
2.63291
0.792772
0.080241
0.00587329
0.00450594
0.00447749
0.00448585
0.00449628
0.00450348
0.00450934
0.0045169
0.00452916
0.00454896
0.00457769
0.00461524
0.00465974
0.00470839
0.00475766
0.0048037
0.00484307
0.00487304
0.00489181
0.00489869
0.00489421
0.00488072
0.00486234
0.00484387
0.00483079
0.00483095
0.00485393
0.00490868
0.00500847
0.00516852
0.00540582
0.00574691
0.00622789
0.00694681
0.00810077
0.00992795
0.0118967
0.01219
0.0100043
0.00720522
0.00448997
0.00539647
0.00647057
0.00786767
0.00976435
0.0123997
0.0160875
0.0212189
0.0282955
0.0379777
0.0511432
0.0690263
0.0935983
0.128479
0.180947
0.265898
0.412193
0.671016
1.12667
1.9788
0.00443913
0.00522776
0.0061633
0.00739892
0.00911034
0.0115432
0.0150333
0.0200208
0.0270984
0.0370821
0.0510979
0.0707576
0.0986062
0.139236
0.201944
0.306694
0.495405
0.845352
1.46059
2.6593
0.00438876
0.00505761
0.00585219
0.00691776
0.00842129
0.0106022
0.0137992
0.0184744
0.0252768
0.0351365
0.0493848
0.0699622
0.0998955
0.14446
0.213983
0.330166
0.537049
0.907271
1.51884
2.25122
0.00434069
0.00489271
0.00555016
0.00644617
0.00773308
0.00963298
0.012468
0.0166906
0.0229572
0.0322403
0.0459768
0.0663
0.0965009
0.142065
0.21308
0.329412
0.528814
0.868369
1.38761
2.00284
0.00429637
0.00473872
0.00526825
0.00600343
0.00707818
0.00868953
0.0111275
0.0148068
0.0203414
0.0286615
0.0411755
0.0600105
0.0884295
0.131653
0.198608
0.305452
0.48061
0.764035
1.18136
1.70868
0.00425689
0.00459982
0.00501447
0.00560372
0.00648182
0.00781678
0.00985714
0.0129609
0.0176624
0.0247782
0.0355597
0.0519198
0.0767916
0.114737
0.173067
0.263872
0.406674
0.627711
0.947177
1.35549
0.00422291
0.00447865
0.00479357
0.00525542
0.00595977
0.00704543
0.00871658
0.0112666
0.0151322
0.0209782
0.0298175
0.0431977
0.0634868
0.0943059
0.141194
0.212629
0.321206
0.483246
0.712847
1.00873
0.00419474
0.00437642
0.00460732
0.00496154
0.00551857
0.00639077
0.00774003
0.00979654
0.0129008
0.0175622
0.0245397
0.0349685
0.0505584
0.0738766
0.108722
0.160592
0.237102
0.347709
0.501147
0.699717
0.0041725
0.00429316
0.00445474
0.00472023
0.00515682
0.00585428
0.0069371
0.00858051
0.0110412
0.0146947
0.0200816
0.027979
0.039512
0.0563031
0.0806439
0.115669
0.165464
0.234889
0.328576
0.448713
0.00415619
0.00422767
0.00433199
0.00452553
0.00486755
0.00542784
0.00629966
0.00761405
0.00956079
0.0124132
0.0165508
0.0224954
0.0309655
0.042924
0.0595935
0.0824437
0.113183
0.153714
0.205857
0.270605
0.00414611
0.00417723
0.00423135
0.00436569
0.00463392
0.00508627
0.00579002
0.00683876
0.00836533
0.0105564
0.0136611
0.0180192
0.0240952
0.0324772
0.0438
0.0586311
0.0775368
0.101381
0.131974
0.173534
0.0041489
0.00413842
0.00415355
0.00425015
0.00445806
0.00479216
0.00528046
0.00596927
0.00695511
0.00842625
0.0107196
0.0144179
0.0204807
0.0305644
0.04793
0.0778117
0.130828
0.215242
0.335162
0.50124
0.00797846
0.00460068
0.00592941
0.00967737
0.0175907
0.0308462
0.0498163
0.0740318
0.10289
0.136398
0.17627
0.224637
0.282046
0.352924
0.450684
0.585006
0.753607
0.947184
1.15981
1.46905
0.537598
0.279311
0.318891
0.340089
0.361151
0.387423
0.420423
0.461286
0.510871
0.570169
0.638965
0.712743
0.783065
0.893227
1.11664
1.39694
1.71303
2.01049
2.25678
2.82044
0.230509
0.326548
0.403789
0.485687
0.568733
0.64707
0.720881
0.794215
0.872304
0.958866
1.04893
1.11468
1.1433
1.26092
1.38558
1.51196
1.66921
1.82652
2.00137
2.32374
0.113274
0.144537
0.168177
0.219332
0.281403
0.34644
0.410774
0.473331
0.534763
0.595859
0.655695
0.713394
0.785444
0.900987
0.984644
1.02231
1.03488
1.0371
1.06508
1.16079
0.0618434
0.06943
0.0751151
0.101001
0.135393
0.173158
0.211918
0.250385
0.287902
0.32425
0.359805
0.397267
0.444873
0.505197
0.552228
0.56969
0.560393
0.535165
0.511049
0.500993
0.0322559
0.0263321
0.0269313
0.0399481
0.057655
0.0783034
0.100053
0.121929
0.143286
0.16383
0.183798
0.204316
0.227064
0.25059
0.266847
0.268801
0.255718
0.231854
0.203819
0.176428
0.0171031
0.00922305
0.00810087
0.0120242
0.0184233
0.0269682
0.0368799
0.0473755
0.057849
0.0678892
0.0772932
0.086033
0.0939226
0.099809
0.10135
0.0966951
0.0859921
0.0713055
0.055529
0.041003
0.0104248
0.0062141
0.00454638
0.00492946
0.00595588
0.0077265
0.010211
0.0132078
0.0164286
0.0195828
0.0224027
0.0246437
0.0260311
0.0261998
0.0248075
0.0218689
0.0179472
0.0139407
0.0106235
0.00831343
0.00806419
0.00615521
0.00425453
0.00408238
0.00411534
0.00428413
0.00456222
0.00493311
0.00536224
0.00579734
0.00617561
0.00643713
0.00653783
0.00646217
0.00623731
0.00593503
0.00564201
0.00541674
0.00527241
0.00519167
0.00940994
0.006148
0.00428252
0.00403419
0.0039782
0.0039833
0.00400991
0.00404906
0.00409778
0.00415331
0.00421291
0.00427497
0.0043397
0.00440827
0.00448082
0.00455502
0.00462635
0.00468966
0.00474117
0.00477883
0.0128619
0.00569579
0.00428415
0.00406828
0.00402151
0.00401507
0.00401899
0.00402799
0.00404196
0.00406188
0.00408902
0.0041247
0.00416979
0.00422381
0.00428426
0.00434676
0.00440622
0.00445825
0.00450018
0.00453101
0.00979774
0.00491065
0.00422382
0.00410687
0.00408302
0.00407858
0.00407922
0.00408244
0.00408812
0.00409675
0.00410895
0.00412531
0.0041462
0.00417141
0.00419988
0.00422971
0.00425854
0.0042842
0.00430519
0.00432096
1.1128
1.89267
2.40049
2.92611
3.43039
3.80112
4.01334
4.09353
4.06775
3.99402
3.92948
3.84376
3.75626
3.69321
3.69817
2.45881
5.87635
7.61029
8.80924
9.75322
10.1701
10.199
9.93747
9.47251
8.87983
8.21663
7.52924
6.84692
6.1773
5.49682
3.24588
3.63048
5.06827
6.82681
8.16974
8.49893
8.12826
7.47248
6.7258
5.98307
5.29215
4.67564
4.14309
3.70032
3.35841
2.85278
3.37645
3.56824
3.68425
3.68356
3.63336
3.57266
3.46194
3.30818
3.13392
2.95971
2.80248
2.67911
2.61073
2.62737
2.28709
2.84793