/*--------------------------------*- C++ -*----------------------------------*\
| =========                 |                                                 |
| \\      /  F ield         | OpenFOAM: The Open Source CFD Toolbox           |
|  \\    /   O peration     | Version:  v1912                                 |
|   \\  /    A nd           | Website:  www.openfoam.com                      |
|    \\/     M anipulation  |                                                 |
\*---------------------------------------------------------------------------*/
FoamFile
{
    version     2.0;
    format      ascii;
    class       volScalarField;
    location    "30";
    object      nut;
}
// * * * * * * * * * * * * * * * * * * * * * * * * * * * * * * * * * * * * * //

dimensions      [0 2 -1 0 0 0 0];


internalField   nonuniform List<scalar> 
20320
(
0.0347185
0.00759848
0.00766687
0.00773334
0.00779749
0.00785889
0.00791703
0.00797129
0.00802094
0.00806516
0.00810302
0.00813345
0.00815527
0.00816705
0.00816704
0.00815279
0.00811988
0.00805984
0.00803192
0.0088751
0.0352309
0.0352736
0.0354482
0.0356828
0.0359586
0.036245
0.0365048
0.0367146
0.0368684
0.0369772
0.0370575
0.0371216
0.0371738
0.0372031
0.0371805
0.0370516
0.0366953
0.0357734
0.0330308
0.0228711
0.0353542
0.0356343
0.0361357
0.0368818
0.0379716
0.0395068
0.0415737
0.0442216
0.0474279
0.051068
0.0549072
0.0586246
0.0618674
0.0643086
0.0656848
0.0658023
0.0644539
0.0609925
0.053097
0.0324062
0.035526
0.0361107
0.0369206
0.0379583
0.0393249
0.0411361
0.0435223
0.0466262
0.050587
0.0555006
0.0613456
0.0678938
0.074652
0.0808819
0.085716
0.088316
0.0878799
0.0830554
0.07049
0.040066
0.0357338
0.036705
0.0379024
0.0393013
0.0409957
0.043096
0.0457322
0.0490593
0.0532599
0.0585341
0.0650536
0.0728617
0.0817141
0.0909098
0.0992389
0.105131
0.106778
0.101648
0.0852774
0.0462629
0.0359677
0.0373977
0.0390506
0.040878
0.0429636
0.0454098
0.0483404
0.0519068
0.0562977
0.0617441
0.0685028
0.0768014
0.0866891
0.097757
0.108836
0.117884
0.122023
0.117247
0.097825
0.0512743
0.0362171
0.0381579
0.0403151
0.0426212
0.045149
0.0479912
0.0512633
0.0551096
0.0597163
0.0653214
0.072214
0.0807181
0.0910955
0.10326
0.116298
0.127996
0.134564
0.130479
0.108609
0.0553843
0.0364709
0.0389524
0.0416424
0.0444611
0.0474705
0.0507528
0.0544135
0.0585873
0.0634537
0.0692497
0.076275
0.0849014
0.0955266
0.108331
0.122718
0.136511
0.145233
0.141949
0.118077
0.058889
0.0367175
0.0397459
0.0429757
0.046323
0.049841
0.0536014
0.0576986
0.0622545
0.0674383
0.0734806
0.0806817
0.0894359
0.100225
0.113432
0.128761
0.144182
0.154736
0.152244
0.126668
0.0620284
0.0369455
0.0405027
0.0442566
0.0481298
0.0521698
0.0564395
0.0610214
0.0660222
0.071596
0.0779619
0.085413
0.0943518
0.105312
0.118824
0.134855
0.151565
0.163667
0.161911
0.13481
0.0649961
0.0371443
0.0411879
0.045428
0.0498048
0.0543653
0.0591671
0.0642814
0.0697973
0.0758496
0.0826398
0.0904465
0.0996691
0.110872
0.124693
0.141318
0.159108
0.172559
0.171482
0.142937
0.0679948
0.0373045
0.04177
0.0464371
0.0512754
0.0563388
0.0616842
0.0673749
0.0734817
0.0801162
0.0874563
0.0957586
0.105409
0.116985
0.131204
0.148433
0.167228
0.181939
0.181527
0.151538
0.0712527
0.037419
0.0422225
0.0472384
0.0524775
0.0580082
0.0638948
0.0701977
0.0769721
0.0843048
0.0923452
0.101321
0.111593
0.123739
0.138534
0.156496
0.17637
0.1924
0.192726
0.161229
0.0750308
0.0374832
0.0425258
0.0477972
0.0533586
0.0593023
0.065709
0.0726454
0.0801573
0.0883094
0.0972213
0.107086
0.118233
0.131226
0.146879
0.165847
0.187056
0.20467
0.205964
0.172866
0.0797226
0.0374952
0.0426683
0.0480907
0.0538814
0.0601644
0.0670474
0.0746157
0.0829175
0.0920039
0.10197
0.112974
0.125309
0.139518
0.156447
0.176879
0.199939
0.219722
0.222502
0.187725
0.085968
0.037456
0.0426473
0.0481107
0.0540266
0.0605568
0.0678465
0.076014
0.0851269
0.095239
0.106434
0.118848
0.132741
0.148637
0.167419
0.190024
0.215824
0.238892
0.244268
0.207948
0.0948973
0.0373694
0.0424687
0.0478634
0.0537943
0.0604644
0.0680643
0.0767599
0.086659
0.0978427
0.110408
0.124491
0.140342
0.158486
0.179874
0.205665
0.235627
0.263978
0.274286
0.23742
0.108908
0.0372417
0.042147
0.0473693
0.0532049
0.0598973
0.0676862
0.0767968
0.0873984
0.0996284
0.113633
0.129589
0.147776
0.168765
0.193644
0.223938
0.260121
0.297058
0.316955
0.283158
0.133855
0.0370812
0.0417042
0.0466619
0.0522977
0.0588916
0.0667304
0.0761037
0.0872582
0.100418
0.115819
0.133728
0.154518
0.178876
0.20813
0.244386
0.289363
0.339662
0.377438
0.356674
0.183065
0.0368976
0.0411678
0.0457847
0.0511286
0.0575081
0.0652501
0.0747044
0.0862011
0.100071
0.116679
0.136437
0.159876
0.187879
0.222122
0.265519
0.321649
0.390429
0.456719
0.466649
0.276674
0.0435665
0.0286928
0.0295286
0.027389
0.0250314
0.0291376
0.0357298
0.0602285
0.0677843
0.0566571
0.054004
0.0679331
0.0933177
0.111101
0.125591
0.138214
0.161882
0.187245
0.210156
0.229486
0.238944
0.231041
0.203261
0.182011
0.165289
0.151317
0.140069
0.131169
0.122993
0.115668
0.109794
0.104742
0.100561
0.0973112
0.094725
0.0926093
0.0895255
0.0863444
0.0845343
0.084113
0.0853002
0.0861842
0.0867011
0.0855154
0.0841178
0.0821118
0.0790804
0.0761216
0.0741724
0.07281
0.0716341
0.0710931
0.0712678
0.0720966
0.073876
0.0757528
0.0784321
0.0821564
0.0871819
0.0978113
0.0544201
0.505938
0.556566
0.512376
0.410841
0.344234
0.319565
0.244512
0.377641
0.474384
0.693198
0.438864
0.957473
1.42059
1.72762
1.97399
2.34237
2.77567
3.13335
3.55443
3.57658
3.11806
2.69958
2.37454
2.12668
1.9261
1.76253
1.62925
1.51451
1.41167
1.32568
1.25234
1.19481
1.15685
1.12416
1.08463
1.03405
0.986008
0.971899
0.984342
1.00575
1.00521
0.980347
0.941496
0.89153
0.834047
0.780958
0.755967
0.744769
0.737413
0.750091
0.759113
0.759493
0.755451
0.744858
0.715799
0.669314
0.614915
0.554462
0.498298
0.0612217
0.782846
0.998389
1.00147
0.905653
0.792784
0.698266
0.440237
0.430787
0.59729
1.04776
0.775745
1.22216
2.01595
2.52664
2.94538
3.47535
4.11676
4.52556
5.04752
5.07626
4.11093
3.70136
3.38417
3.12684
2.90598
2.71325
2.54775
2.40347
2.27357
2.15926
2.06142
1.98154
1.92127
1.86924
1.81278
1.74932
1.6938
1.67201
1.68531
1.70952
1.7179
1.69982
1.65871
1.60168
1.53715
1.4758
1.42953
1.39818
1.38007
1.37541
1.37116
1.36144
1.34599
1.31561
1.24796
1.12856
0.963299
0.812828
0.67894
0.0672204
0.942632
1.30756
1.39446
1.34893
1.24977
1.13837
0.910466
0.67713
0.95283
1.38311
1.19815
1.22871
2.18314
2.90086
3.40483
3.98109
4.68401
5.15547
5.62504
4.90163
4.19637
3.84302
3.62209
3.44921
3.29339
3.14767
3.01527
2.89576
2.78517
2.68376
2.59355
2.51722
2.45552
2.40143
2.34633
2.28952
2.2445
2.23012
2.24747
2.27664
2.2958
2.29198
2.26408
2.21823
2.16176
2.10322
2.05286
2.01679
1.99384
1.981
1.97098
1.95805
1.93968
1.90555
1.82414
1.66199
1.40413
1.10415
0.85381
0.0728668
1.06334
1.53536
1.70156
1.71211
1.64484
1.54274
1.40746
1.27627
1.44584
1.71999
1.62008
1.40126
2.12004
3.05065
3.60347
4.12072
4.68414
5.27742
5.28153
4.49455
3.93979
3.65008
3.51357
3.43508
3.36711
3.29717
3.22733
3.1587
3.08996
3.0224
2.9593
2.90443
2.85948
2.82103
2.78415
2.74925
2.72714
2.73173
2.7632
2.80469
2.83894
2.85311
2.84392
2.81638
2.77608
2.72987
2.68914
2.66019
2.64045
2.62608
2.61486
2.60168
2.58495
2.55419
2.47887
2.3162
2.03215
1.63022
1.18533
0.0783895
1.16784
1.72098
1.94885
2.00552
1.96828
1.87961
1.76747
1.69508
1.78957
1.96589
1.97318
1.79147
2.20815
3.04742
3.6062
4.07872
4.56761
5.34037
4.6885
4.00643
3.59538
3.38787
3.32302
3.32228
3.33223
3.33454
3.32774
3.31273
3.2906
3.26443
3.23852
3.21731
3.20341
3.19565
3.19117
3.19068
3.20123
3.2336
3.2852
3.34167
3.39007
3.41967
3.42732
3.41784
3.39548
3.36598
3.34133
3.3258
3.31387
3.30101
3.29027
3.27667
3.25949
3.23224
3.1675
3.03159
2.79316
2.43509
1.97447
0.0845589
1.27091
1.88841
2.16075
2.24931
2.23219
2.15143
2.03628
1.94871
1.98635
2.12998
2.23506
2.20161
2.44034
3.03021
3.51588
3.96731
4.52641
4.89133
4.16427
3.64073
3.32417
3.19724
3.20573
3.27188
3.33945
3.39018
3.42601
3.45114
3.46921
3.48429
3.50016
3.52015
3.54668
3.57876
3.61379
3.65179
3.69776
3.75814
3.82752
3.89336
3.9488
3.98608
4.00437
4.00839
4.00043
3.98549
3.97728
3.97493
3.97117
3.96271
3.95439
3.93969
3.91967
3.89252
3.83798
3.73337
3.56339
3.3185
3.01257
0.0909904
1.37644
2.05032
2.35468
2.46181
2.45318
2.37178
2.24595
2.13044
2.12025
2.24387
2.40382
2.49088
2.63787
3.04373
3.54505
3.97308
4.53346
4.26
3.7661
3.36717
3.15283
3.12805
3.22763
3.35843
3.4602
3.52937
3.58447
3.63433
3.68403
3.73725
3.79594
3.85877
3.92667
3.99709
4.06712
4.13553
4.20596
4.28642
4.36491
4.42958
4.48234
4.51924
4.54183
4.55427
4.55561
4.54847
4.54532
4.54998
4.55168
4.54811
4.54414
4.53321
4.51922
4.49851
4.45488
4.37833
4.2668
4.12135
3.95701
0.0975537
1.48416
2.21296
2.54116
2.65593
2.64522
2.55504
2.41533
2.27542
2.22675
2.32591
2.50717
2.66657
2.80233
3.19287
3.76224
4.28473
4.32081
3.81783
3.42111
3.15453
3.08116
3.19462
3.39769
3.57622
3.67965
3.7506
3.81304
3.87737
3.94925
4.03195
4.12645
4.22787
4.32847
4.42641
4.51876
4.6034
4.68083
4.75876
4.83273
4.88618
4.92741
4.95798
4.97811
4.99227
4.99789
4.99777
5.00759
5.0204
5.02788
5.03218
5.03823
5.0412
5.04192
5.03245
5.00257
4.95043
4.88096
4.80531
4.72849
0.103385
1.5963
2.37932
2.72546
2.83934
2.81794
2.71298
2.55843
2.40079
2.32395
2.39653
2.58392
2.79284
3.0279
3.48897
4.1177
4.71561
4.07104
3.53846
3.18937
3.04856
3.13914
3.40249
3.68109
3.85848
3.95483
4.02108
4.08315
4.15271
4.23564
4.33366
4.44405
4.55851
4.67325
4.78358
4.88414
4.97205
5.04817
5.12403
5.18794
5.2318
5.27259
5.30277
5.32181
5.33597
5.34559
5.3559
5.37906
5.40296
5.42032
5.43656
5.45568
5.47291
5.48596
5.48747
5.47203
5.44223
5.40603
5.37797
5.36255
0.110871
1.71739
2.55165
2.91029
3.01661
2.9781
2.85477
2.68729
2.52133
2.43013
2.48311
2.67358
2.93395
3.2735
3.84277
4.58162
4.51808
3.82964
3.32954
3.0637
3.07305
3.34011
3.72133
4.00679
4.15809
4.23338
4.28656
4.34351
4.41469
4.50351
4.60861
4.72395
4.84011
4.95501
5.06515
5.16415
5.24859
5.32109
5.3929
5.45156
5.49278
5.53228
5.56383
5.58476
5.60104
5.61634
5.63725
5.67027
5.70422
5.73291
5.7613
5.79199
5.82062
5.84371
5.85628
5.85609
5.84696
5.83766
5.84185
5.86147
0.119766
1.8443
2.7292
3.09621
3.19121
3.13217
2.98991
2.81405
2.65059
2.56142
2.60907
2.80856
3.1279
3.58743
4.2869
5.08519
4.27732
3.59695
3.16478
3.03237
3.22982
3.65921
4.07887
4.32552
4.43151
4.47355
4.50583
4.554
4.62487
4.71728
4.82595
4.94233
5.05718
5.16791
5.27215
5.36484
5.44334
5.51125
5.57682
5.63175
5.67316
5.71178
5.74476
5.76939
5.79033
5.81285
5.84324
5.88401
5.92641
5.96543
6.00414
6.0438
6.0809
6.11218
6.13464
6.14788
6.15583
6.16603
6.18772
6.21788
0.128974
1.97232
2.90844
3.28451
3.36804
3.2895
3.13119
2.95292
2.80129
2.72819
2.78635
3.00404
3.38733
3.98356
4.85672
4.97461
4.02236
3.38495
3.05926
3.1095
3.51058
4.04012
4.41575
4.59603
4.65276
4.65669
4.66254
4.69674
4.76324
4.85606
4.96586
5.08186
5.19477
5.3009
5.39822
5.48359
5.55589
5.61898
5.67867
5.73059
5.773
5.81221
5.84754
5.87735
5.90509
5.93599
5.97504
6.02256
6.07202
6.11945
6.16609
6.21224
6.25525
6.29254
6.32249
6.34563
6.36542
6.38748
6.41762
6.45437
0.138378
2.09652
3.08686
3.4769
3.55414
3.4633
3.29692
3.12221
2.98702
2.93565
3.01441
3.25604
3.70231
4.42904
5.51298
4.68686
3.77381
3.21117
3.03629
3.31014
3.88047
4.40902
4.69702
4.80581
4.8102
4.77505
4.75189
4.76729
4.82387
4.91223
5.01971
5.13369
5.2442
5.34629
5.43775
5.51697
5.58427
5.64355
5.69923
5.74964
5.79397
5.83576
5.87525
5.9118
5.94799
5.98805
6.03534
6.08913
6.14461
6.19861
6.25117
6.30193
6.349
6.39056
6.42591
6.45605
6.48391
6.51401
6.55164
6.5974
0.146502
2.20585
3.261
3.67585
3.75801
3.66819
3.50726
3.34382
3.22374
3.18883
3.28714
3.55436
4.03789
4.91561
5.66578
4.38055
3.54488
3.08839
3.11848
3.62835
4.28228
4.71924
4.91256
4.94915
4.90089
4.82682
4.77373
4.76681
4.80805
4.8863
4.987
5.09627
5.20322
5.30165
5.38885
5.46402
5.52851
5.58615
5.64063
5.69193
5.73996
5.78667
5.83253
5.87745
5.92327
5.97292
6.02831
6.08825
6.14921
6.2087
6.26609
6.32075
6.37134
6.41681
6.45715
6.49375
6.52943
6.56867
6.61744
6.6754
0.151348
2.29101
3.42454
3.8827
3.98706
3.91601
3.77743
3.63559
3.52875
3.49913
3.60358
3.88978
4.42292
5.3167
5.21275
4.0977
3.33818
3.03623
3.32432
4.02615
4.65045
4.95873
5.05611
5.02361
4.92504
4.81334
4.73031
4.6988
4.7202
4.78301
4.8722
4.97339
5.07499
5.16966
5.25401
5.32748
5.39188
5.4508
5.50746
5.56272
5.61688
5.67101
5.72542
5.78018
5.83644
5.89597
5.95957
6.02597
6.09262
6.15759
6.22002
6.27924
6.33441
6.38517
6.43215
6.47715
6.52324
6.57519
6.63864
6.70938
0.149711
2.32704
3.56342
4.09544
4.24515
4.21232
4.11391
4.00642
3.91532
3.88353
3.97938
4.26291
4.79415
5.74967
4.89787
3.82269
3.16709
3.08677
3.65259
4.44532
4.93798
5.12039
5.12692
5.03011
4.88481
4.73757
4.62524
4.56779
4.56605
4.60911
4.68262
4.77249
4.86677
4.95727
5.03992
5.11396
5.18112
5.24452
5.3069
5.36936
5.43229
5.49617
5.56101
5.62681
5.69416
5.76391
5.83622
5.90996
5.9833
6.0548
6.12366
6.1893
6.25136
6.31006
6.36659
6.42309
6.48283
6.55033
6.62949
6.71101
0.141396
2.25649
3.65324
4.30826
4.53081
4.55576
4.5139
4.4556
4.38945
4.35621
4.44225
4.71437
5.26669
5.88849
4.5295
3.55283
3.06775
3.27248
4.06414
4.80981
5.13821
5.20419
5.12809
4.97249
4.7842
4.60366
4.46289
4.37884
4.35184
4.3722
4.42705
4.50314
4.58853
4.67456
4.75654
4.83325
4.90589
4.97687
5.04821
5.12082
5.1949
5.27043
5.34718
5.42497
5.504
5.58457
5.66652
5.74894
5.83058
5.91041
5.98777
6.06231
6.13403
6.20362
6.27258
6.34324
6.41866
6.50249
6.59599
6.68523
0.145498
1.96017
3.66037
4.5101
4.83854
4.94104
4.9677
4.97415
4.95094
4.92463
5.01524
5.31428
5.85809
5.54106
4.18892
3.34601
3.09081
3.5973
4.48514
5.07486
5.25019
5.21437
5.065
4.85631
4.62851
4.41663
4.2482
4.13727
4.08392
4.0801
4.1148
4.17584
4.25166
4.33338
4.41583
4.49715
4.57772
4.65889
4.74181
4.82686
4.91385
5.00243
5.09213
5.18267
5.27403
5.36624
5.45903
5.55175
5.64355
5.7337
5.82175
5.90757
5.99142
6.07426
6.15769
6.24391
6.33548
6.43469
6.54002
6.63409
0.179229
1.40824
3.51922
4.68393
5.15958
5.35966
5.46296
5.54729
5.59015
5.5911
5.70846
6.07108
6.65675
5.20089
3.94437
3.25943
3.26878
4.00695
4.84457
5.22925
5.27829
5.1564
4.94387
4.68782
4.42363
4.18201
3.98645
3.84862
3.76873
3.74061
3.75514
3.80124
3.86786
3.94612
4.03043
4.11817
4.20861
4.30191
4.39815
4.49704
4.598
4.7004
4.80371
4.90761
5.012
5.11679
5.22172
5.3263
5.42996
5.53222
5.6328
5.73173
5.82947
5.92704
6.02595
6.12801
6.23504
6.34778
6.46217
6.55868
0.209891
1.23988
3.26904
4.81464
5.48432
5.80582
5.99751
6.14971
6.24332
6.29921
6.47737
6.94871
6.67506
4.92589
3.82454
3.31068
3.57795
4.39976
5.07782
5.28591
5.23139
5.03795
4.77153
4.47345
4.17564
3.90542
3.68309
3.51854
3.41261
3.36119
3.35679
3.38931
3.44813
3.52445
3.61224
3.70792
3.80955
3.91597
4.02627
4.13948
4.25472
4.37124
4.48852
4.60629
4.72437
4.84263
4.96082
5.07857
5.19546
5.31119
5.42562
5.53889
5.65154
5.76451
5.87903
5.99639
6.11748
6.24149
6.36227
6.45923
0.230847
1.57689
3.20188
4.92692
5.80862
6.26422
6.48796
6.64903
6.8123
7.00891
7.30665
7.67327
6.33471
4.79198
3.79341
3.46302
3.92674
4.69087
5.17941
5.25517
5.11948
4.86767
4.55534
4.21979
3.8906
3.59263
3.34374
3.15287
3.02207
2.9492
2.92806
2.94921
3.00233
3.07859
3.17134
3.27593
3.38914
3.50867
3.63274
3.75994
3.88921
4.01981
4.15125
4.28322
4.41554
4.54798
4.68029
4.81214
4.94323
5.07333
5.20242
5.33071
5.45868
5.58706
5.71669
5.8482
5.98151
6.1144
6.23917
6.33503
0.250158
1.9235
3.40308
5.11058
6.11529
6.59463
6.87482
7.14287
7.43933
7.69242
7.98539
7.73699
6.01491
4.6335
3.76786
3.6493
4.20445
4.87652
5.17749
5.15461
4.95436
4.6543
4.30241
3.93305
3.57424
3.24908
2.97384
2.7574
2.60347
2.51162
2.47644
2.48873
2.53835
2.61614
2.71466
2.82815
2.95231
3.08394
3.22076
3.3611
3.50386
3.6483
3.79389
3.94027
4.08715
4.23424
4.3812
4.52774
4.6736
4.81863
4.96283
5.10637
5.24959
5.39292
5.53671
5.68092
5.82451
5.96411
6.09093
6.18462
0.251459
2.38546
3.88107
5.33257
6.30114
6.82937
7.20138
7.5904
7.97528
8.18662
8.29799
7.26253
5.65091
4.39606
3.70614
3.80162
4.3635
4.93874
5.10155
5.00015
4.747
4.40599
4.01926
3.61891
3.23184
2.87995
2.57869
2.33795
2.16329
2.05541
2.00888
2.01448
2.06202
2.14185
2.24572
2.36692
2.5004
2.64247
2.7906
2.94306
3.09863
3.2565
3.41607
3.57681
3.73832
3.90018
4.06204
4.22358
4.38456
4.54482
4.70433
4.86312
5.0213
5.17892
5.33582
5.49128
5.64344
5.78799
5.91549
6.00646
0.241287
2.80831
4.3395
5.54698
6.41434
7.00129
7.45634
7.89235
8.23503
8.32888
8.12681
6.65691
5.16844
4.05269
3.60358
3.8775
4.44148
4.90828
4.96937
4.80474
4.5066
4.1296
3.7114
3.28222
2.86795
2.48977
2.16329
1.9005
1.70833
1.58748
1.53208
1.53248
1.57801
1.65865
1.76571
1.89232
2.03281
2.18334
2.3412
2.50454
2.67203
2.84267
3.01569
3.19041
3.3663
3.54285
3.71966
3.89637
4.07269
4.24841
4.42337
4.59739
4.77025
4.9416
5.11073
5.2763
5.4357
5.58394
5.71123
5.79927
0.22959
3.02093
4.66677
5.76976
6.53523
7.1244
7.60635
7.9977
8.1666
8.13704
7.43699
5.88479
4.53069
3.63057
3.48379
3.89298
4.50914
4.82322
4.79881
4.57863
4.24025
3.83056
3.38338
2.92706
2.48654
2.08326
1.7345
1.45344
1.24782
1.11753
1.05557
1.05145
1.09392
1.17272
1.27934
1.4071
1.55097
1.70709
1.87262
2.04512
2.22305
2.40522
2.59067
2.77857
2.96828
3.15922
3.35089
3.54288
3.7348
3.92628
4.11692
4.30628
4.49373
4.67846
4.85922
5.03405
5.19973
5.35071
5.4772
5.56232
0.219768
3.11981
4.87054
5.95034
6.64209
7.1846
7.6206
7.88717
7.86248
7.60923
6.4165
4.98422
3.80676
3.22469
3.38623
3.91033
4.52419
4.70254
4.5992
4.32833
3.95288
3.51284
3.03862
2.55677
2.09213
1.66769
1.30181
1.00955
0.798325
0.665659
0.60176
0.593965
0.630473
0.702051
0.801796
0.924401
1.06558
1.22177
1.38999
1.56784
1.75343
1.94479
2.14082
2.34052
2.54308
2.74785
2.9542
3.16155
3.36934
3.57692
3.78358
3.98848
4.19056
4.38847
4.58041
4.76382
4.9349
5.08778
5.21289
5.29505
0.227101
3.12665
4.9392
6.03278
6.67995
7.14837
7.48432
7.58666
7.38136
6.74454
5.34724
4.04211
3.12138
2.93645
3.34504
3.97807
4.48317
4.54833
4.3755
4.05795
3.64773
3.17925
2.67981
2.17479
1.69118
1.25207
0.879712
0.592113
0.395639
0.281477
0.230308
0.222899
0.247526
0.299512
0.377313
0.479639
0.604449
0.748958
0.910155
1.08519
1.27151
1.46699
1.66988
1.87888
2.09258
2.31013
2.53064
2.75326
2.97706
3.20101
3.42397
3.64455
3.86118
4.07196
4.27448
4.4656
4.64107
4.79474
4.91759
4.99638
0.223114
3.19526
4.95922
5.99965
6.60367
6.98478
7.19702
7.12035
6.72693
5.62419
4.28014
3.1526
2.59708
2.80716
3.37951
4.08936
4.40436
4.36759
4.13105
3.76984
3.32684
2.83171
2.30924
1.78679
1.29102
0.84973
0.493901
0.249234
0.116593
0.0624347
0.0459226
0.0444179
0.0515811
0.0689933
0.101514
0.154919
0.233775
0.339709
0.471421
0.625787
0.799197
0.988264
1.19011
1.40241
1.62333
1.85115
2.08453
2.32171
2.56127
2.80149
3.04061
3.27663
3.50734
3.73019
3.94221
4.13973
4.31799
4.47072
4.58952
4.66353
0.200412
3.16702
4.92477
5.87031
6.3966
6.67589
6.74823
6.50507
5.82573
4.49674
3.26376
2.41348
2.31406
2.81294
3.49
4.12962
4.28739
4.1612
3.86709
3.4652
2.99142
2.47185
1.93099
1.39817
0.902274
0.483666
0.194017
0.0591879
0.0257827
0.0279445
0.0338016
0.0343703
0.0316341
0.0280172
0.0269361
0.0326461
0.0505724
0.0883676
0.154049
0.252353
0.383097
0.542757
0.726608
0.930246
1.14986
1.38222
1.62441
1.87373
2.12748
2.3829
2.6374
2.88784
3.13141
3.36483
3.58453
3.78626
3.96485
4.11368
4.22471
4.28996
0.173986
2.88373
4.71133
5.6002
6.03131
6.19912
6.11852
5.72975
4.66029
3.38856
2.35898
1.92637
2.26515
2.91269
3.65978
4.10912
4.13469
3.92999
3.58395
3.14451
2.64222
2.10086
1.54956
1.01676
0.542878
0.197432
0.0453771
0.0241121
0.0394754
0.0448215
0.0449239
0.044263
0.0433756
0.0420603
0.039661
0.0352008
0.0292304
0.0264591
0.0334325
0.0578729
0.110417
0.200405
0.330894
0.498768
0.697983
0.921976
1.16464
1.42048
1.68453
1.95226
2.21947
2.48208
2.73619
2.9777
3.20232
3.40519
3.58032
3.72036
3.81633
3.86217
0.146358
2.38525
4.28864
5.16124
5.48061
5.52393
5.31026
4.69695
3.45643
2.35303
1.67444
1.75569
2.36666
3.07628
3.79828
4.02961
3.94441
3.67329
3.2814
2.80788
2.27986
1.72316
1.17022
0.655454
0.247208
0.0493029
0.0249197
0.0433534
0.046597
0.0461329
0.0454176
0.0447495
0.0441629
0.0436508
0.0431758
0.0426217
0.0416388
0.0393296
0.034366
0.0282417
0.0285316
0.0447569
0.0898147
0.178393
0.317666
0.503992
0.727597
0.977426
1.24362
1.51796
1.79362
2.06467
2.32577
2.57182
2.79755
2.99714
3.16363
3.28769
3.35632
3.35606
0.152338
1.96813
3.72376
4.56998
4.75065
4.64712
4.32198
3.39572
2.31114
1.51453
1.33742
1.84317
2.54186
3.28373
3.83001
3.90121
3.72287
3.39278
2.95988
2.45565
1.90528
1.34275
0.80225
0.339479
0.0702585
0.0232307
0.0437734
0.0474019
0.0469255
0.0462127
0.0455148
0.044868
0.0442923
0.0437984
0.043392
0.0430695
0.0428136
0.042577
0.0421915
0.0410941
0.037849
0.0315302
0.0285189
0.0418351
0.0889141
0.190491
0.354373
0.570455
0.821377
1.09129
1.3679
1.6418
1.90534
2.1517
2.37423
2.56572
2.71743
2.81684
2.84314
2.75665
0.180192
2.00233
3.27306
3.89122
3.90155
3.66461
3.14959
2.1761
1.3786
1.0357
1.36488
2.04636
2.75601
3.504
3.78088
3.72199
3.46896
3.08887
2.61981
2.08863
1.52373
0.966196
0.463411
0.116593
0.0217633
0.0410768
0.0473923
0.0472954
0.0467838
0.0462001
0.0455897
0.0449957
0.044445
0.0439543
0.043533
0.0431856
0.0429166
0.0427295
0.04262
0.0425688
0.0424823
0.0419587
0.0396295
0.0335917
0.0303447
0.0482295
0.112563
0.2464
0.446293
0.689611
0.953729
1.22185
1.48178
1.72375
1.93889
2.1179
2.24945
2.31702
2.29117
2.10797
0.179524
2.05498
2.87928
3.15254
3.03071
2.75653
1.96364
1.23106
0.827103
0.975799
1.59754
2.27823
2.99699
3.57023
3.66045
3.50015
3.185
2.76224
2.2618
1.70809
1.14038
0.606499
0.191719
0.0270698
0.033901
0.0458686
0.0465948
0.0465337
0.0463086
0.0459618
0.0455295
0.0450586
0.0445838
0.0441295
0.0437141
0.0433518
0.0430518
0.0428213
0.0426666
0.0425942
0.0426104
0.0427155
0.0428419
0.0425655
0.0401844
0.0337363
0.0347536
0.0697418
0.170092
0.344764
0.570154
0.817287
1.0646
1.29662
1.50069
1.66449
1.77348
1.80695
1.7291
1.46442
0.17242
1.84166
2.30888
2.36418
2.19387
1.73084
1.07097
0.673439
0.700496
1.21386
1.86528
2.51911
3.23234
3.52806
3.48421
3.24335
2.87467
2.41448
1.88727
1.321
0.765128
0.29268
0.0456496
0.0239471
0.0427295
0.0445891
0.0449851
0.0452216
0.0453295
0.045295
0.0451333
0.0448757
0.0445568
0.0442086
0.0438588
0.0435274
0.0432282
0.0429742
0.0427764
0.0426468
0.0425998
0.0426492
0.0428087
0.0430935
0.043419
0.0430905
0.0395146
0.0337044
0.0476848
0.11447
0.254744
0.450402
0.66818
0.881393
1.07043
1.2184
1.30724
1.31282
1.19671
0.889007
0.168799
1.4667
1.68809
1.66636
1.43301
0.885689
0.542103
0.521952
0.923102
1.52149
2.11723
2.77356
3.3126
3.41104
3.26005
2.9526
2.53864
2.04658
1.49815
0.934942
0.419305
0.0841803
0.0174559
0.0386859
0.0422327
0.0427097
0.0431028
0.0434893
0.0438271
0.0440736
0.04421
0.0442372
0.0441681
0.0440228
0.0438249
0.0435958
0.0433564
0.0431275
0.0429258
0.0427664
0.0426642
0.0426366
0.0427099
0.0429123
0.0432648
0.0437856
0.0442892
0.0434302
0.0381785
0.0381064
0.0731828
0.169803
0.321787
0.496176
0.661258
0.792256
0.866875
0.859926
0.737344
0.453733
0.180366
1.06888
1.16478
1.09056
0.665994
0.414996
0.408737
0.73378
1.2588
1.78791
2.36533
3.0178
3.28094
3.23042
2.99084
2.62757
2.17648
1.65939
1.10361
0.56524
0.151497
0.0178947
0.0335815
0.0405674
0.0409522
0.0411446
0.0414106
0.0417441
0.0421116
0.0424763
0.042806
0.0430748
0.0432664
0.0433743
0.0434036
0.0433655
0.0432764
0.0431541
0.0430149
0.0428775
0.0427636
0.0426961
0.0426975
0.0427922
0.0430179
0.0434204
0.0440306
0.0448553
0.045498
0.0439089
0.0388029
0.0471059
0.0945378
0.187301
0.301859
0.404678
0.466475
0.462132
0.369994
0.1858
0.241119
0.844621
0.684588
0.426166
0.298922
0.348164
0.63657
1.08034
1.5331
2.03112
2.62734
3.09621
3.15739
2.98917
2.67691
2.2683
1.78909
1.25732
0.716487
0.248814
0.028966
0.0258995
0.0391588
0.0399089
0.039983
0.0400582
0.0401819
0.0403695
0.0406179
0.0409172
0.0412505
0.0415952
0.0419282
0.0422274
0.0424769
0.0426657
0.04279
0.0428522
0.0428611
0.0428324
0.0427848
0.0427375
0.0427143
0.0427468
0.0428699
0.0431165
0.0435351
0.0441869
0.0451109
0.046304
0.0472793
0.0461972
0.0427334
0.0495211
0.0783443
0.120952
0.153988
0.153945
0.110698
0.0474315
0.173304
0.276002
0.221345
0.243166
0.366703
0.624945
0.973777
1.34784
1.77178
2.27826
2.85727
3.03956
2.95048
2.68916
2.31832
1.8755
1.37934
0.855662
0.366881
0.059743
0.0172083
0.0369353
0.0389014
0.0390535
0.0391498
0.039235
0.0393199
0.0394188
0.0395455
0.0397136
0.0399299
0.0401939
0.0404967
0.0408251
0.041162
0.0414887
0.0417881
0.0420466
0.0422549
0.042409
0.0425117
0.0425741
0.0426166
0.0426632
0.0427412
0.0428891
0.0431528
0.0435736
0.0442098
0.0451215
0.0463555
0.047924
0.0496021
0.0507191
0.0504105
0.0497813
0.0503273
0.0499641
0.0477645
0.0445913
0.0367008
0.0405684
0.0447881
0.0497645
0.0558269
0.0633306
0.0726725
0.0842576
0.0985269
0.115996
0.137263
0.163073
0.194563
0.2338
0.284555
0.352497
0.441704
0.541288
0.592776
0.43376
0.0364944
0.0399306
0.0437119
0.0482592
0.0539137
0.0610471
0.0700843
0.0814835
0.0957789
0.113632
0.135844
0.1634
0.197702
0.241138
0.298039
0.375382
0.47963
0.600864
0.67543
0.561568
0.0362852
0.0392658
0.0425786
0.0466479
0.0518179
0.0584643
0.0670183
0.0779586
0.0918728
0.109532
0.131914
0.160231
0.196109
0.242079
0.302474
0.384081
0.492824
0.618624
0.70809
0.624008
0.0360809
0.0386003
0.0414328
0.0449944
0.0496247
0.0556933
0.063619
0.073865
0.0870156
0.103878
0.125529
0.15334
0.189075
0.235227
0.295656
0.375942
0.480512
0.601357
0.698738
0.694821
0.0358887
0.0379591
0.0403194
0.0433662
0.0474268
0.0528577
0.0600535
0.0694358
0.0815302
0.0970873
0.117166
0.143166
0.176877
0.220641
0.27768
0.352197
0.447327
0.557888
0.659723
0.711153
0.0357143
0.0373637
0.0392777
0.0418247
0.0453132
0.0500808
0.0564929
0.0649188
0.0757937
0.0897344
0.107649
0.130804
0.160863
0.199935
0.250656
0.316115
0.398587
0.495566
0.594436
0.671702
0.0355618
0.0368306
0.0383383
0.0404194
0.0433595
0.0474724
0.0530919
0.0605393
0.0701589
0.0824037
0.0979397
0.117746
0.143181
0.176004
0.218338
0.272494
0.340258
0.420956
0.508768
0.591798
0.0354338
0.0363707
0.037521
0.0391837
0.0416208
0.0451181
0.0499754
0.056474
0.064892
0.0755449
0.0888489
0.10542
0.126173
0.152373
0.185591
0.22753
0.279623
0.342145
0.412956
0.486847
0.0353316
0.0359888
0.0368332
0.0381316
0.0401266
0.0430728
0.0472296
0.0528444
0.0601572
0.0694034
0.0808258
0.094732
0.111591
0.132107
0.157209
0.187952
0.22531
0.269809
0.321002
0.377048
0.0352559
0.0356837
0.036267
0.037256
0.0388818
0.0413588
0.0449012
0.0497229
0.0560381
0.0640534
0.07394
0.0858448
0.0999546
0.116542
0.13595
0.158533
0.184626
0.214491
0.248189
0.285374
0.0352084
0.035445
0.0357932
0.0365155
0.0378284
0.0398811
0.0428208
0.0467938
0.0519485
0.0584332
0.0663574
0.0758042
0.0868726
0.0996673
0.114204
0.130346
0.147924
0.166955
0.187488
0.208194
0.0349494
0.0351541
0.0349379
0.0345196
0.033704
0.0322372
0.0300517
0.0275084
0.0252565
0.0238915
0.0239092
0.0258272
0.0303203
0.0383855
0.0517566
0.0730373
0.105889
0.152186
0.210555
0.280444
0.004541
0.0118872
0.00687825
0.00713218
0.0109917
0.0185006
0.0298171
0.0446454
0.0625368
0.0833136
0.107466
0.135471
0.16725
0.204641
0.251369
0.308161
0.371305
0.436259
0.502425
0.582127
0.0936225
0.0708592
0.0933929
0.112179
0.131111
0.151538
0.173913
0.198638
0.225979
0.256098
0.288579
0.32196
0.355075
0.401129
0.471899
0.551271
0.629586
0.695835
0.753515
0.846649
0.0753895
0.121736
0.155451
0.187508
0.218842
0.249249
0.279408
0.31041
0.343131
0.377781
0.412874
0.444371
0.47418
0.524011
0.576585
0.629813
0.679502
0.717564
0.755666
0.806617
0.0532104
0.104172
0.13175
0.161448
0.193437
0.225892
0.25803
0.289703
0.321007
0.351915
0.382228
0.413054
0.449558
0.493458
0.530438
0.557306
0.573979
0.580731
0.585863
0.594221
0.0311759
0.0663401
0.0924938
0.120853
0.150713
0.180701
0.209956
0.238146
0.265161
0.291066
0.316343
0.34236
0.370634
0.399043
0.421114
0.432521
0.432392
0.422461
0.406729
0.386995
0.01666
0.0291017
0.0467256
0.06879
0.0930918
0.118594
0.143638
0.167523
0.18992
0.21079
0.230363
0.248995
0.266444
0.280897
0.289181
0.288555
0.278168
0.25926
0.234294
0.205103
0.00949041
0.0117899
0.022599
0.0313965
0.0430971
0.0579098
0.0741689
0.0905246
0.106088
0.120337
0.132972
0.143705
0.15192
0.156405
0.155579
0.148312
0.134708
0.116287
0.0954953
0.07483
0.00666592
0.00859693
0.0231376
0.0266492
0.0263291
0.0283522
0.0325811
0.038191
0.0443067
0.0501932
0.0552629
0.0590178
0.0609716
0.0606422
0.0577423
0.0525218
0.0459751
0.0396459
0.0350494
0.0330453
0.00588454
0.00842346
0.0254181
0.0333022
0.032662
0.0314674
0.0303739
0.0296221
0.0293367
0.029445
0.0297833
0.0301926
0.0305897
0.0310127
0.031628
0.0326473
0.0341415
0.0358923
0.0375105
0.0387235
0.00602643
0.0090154
0.0274213
0.0348578
0.0349026
0.0347462
0.0346245
0.03451
0.0344269
0.0344162
0.0345207
0.0347728
0.0351843
0.0357368
0.0363771
0.0370278
0.0376138
0.0380859
0.0384295
0.0386532
0.00762617
0.0112251
0.0314789
0.03523
0.0351218
0.0350746
0.0350793
0.0351078
0.0351599
0.0352425
0.035364
0.0355314
0.0357473
0.0360062
0.0362924
0.0365823
0.036851
0.0370793
0.0372567
0.037381
0.00927578
0.0199431
0.0349215
0.0352696
0.0351569
0.035131
0.0351315
0.0351447
0.0351694
0.0352077
0.0352624
0.0353362
0.0354304
0.0355436
0.0356702
0.0358014
0.0359263
0.0360355
0.0361228
0.0361861
0.0592293
0.0772346
0.086985
0.0960395
0.103986
0.109465
0.11248
0.113596
0.113234
0.1122
0.111288
0.110067
0.108806
0.107889
0.107962
0.259499
0.305899
0.472621
0.635599
0.733375
0.777195
0.794717
0.79465
0.782487
0.762085
0.736079
0.706793
0.675982
0.644727
0.613197
0.483641
0.317205
0.359306
0.469972
0.574927
0.631605
0.64928
0.646621
0.634246
0.618218
0.601958
0.587618
0.577232
0.573848
0.582854
0.589488
0.480517
0.413813
0.396671
0.403595
0.422439
0.44777
0.473441
0.497863
0.521243
0.544337
0.568762
0.597685
0.635999
0.689096
0.67146
0.60915
0.56537
0.543989
0.541973
0.552124
0.568547
0.589042
0.611005
0.632997
0.655842
0.682891
0.718762
0.766031
0.823203
0.701954
0.69393
0.681166
0.678585
0.687893
0.701401
0.713709
0.724323
0.733747
0.744461
0.760777
0.78613
0.819846
0.862087
0.925163
0.6578
0.700157
0.726143
0.747368
0.767329
0.780596
0.787052
0.789366
0.792165
0.800056
0.814046
0.834989