/*--------------------------------*- C++ -*----------------------------------*\
| =========                 |                                                 |
| \\      /  F ield         | OpenFOAM: The Open Source CFD Toolbox           |
|  \\    /   O peration     | Version:  v1912                                 |
|   \\  /    A nd           | Website:  www.openfoam.com                      |
|    \\/     M anipulation  |                                                 |
\*---------------------------------------------------------------------------*/
FoamFile
{
    version     2.0;
    format      ascii;
    class       volScalarField;
    location    "30";
    object      p;
}
// * * * * * * * * * * * * * * * * * * * * * * * * * * * * * * * * * * * * * //

dimensions      [1 -1 -2 0 0 0 0];


internalField   nonuniform List<scalar> 
20320
(
419557
429808
429836
429887
429959
430047
430149
430264
430388
430518
430652
430785
430916
431040
431155
431259
431348
431422
431477
431512
399633
409544
409579
409633
409706
409795
409898
410013
410138
410268
410402
410536
410666
410791
410905
411008
411095
411165
411216
411247
380309
389910
389945
390000
390073
390162
390265
390381
390505
390635
390768
390901
391031
391154
391267
391369
391455
391524
391574
391607
361584
370886
370921
370975
371048
371136
371239
371353
371476
371606
371738
371869
371997
372118
372229
372329
372414
372482
372534
372571
343447
352457
352491
352545
352616
352703
352804
352917
353038
353166
353296
353425
353551
353669
353778
353875
353958
354026
354079
354119
325884
334609
334642
334694
334763
334848
334947
335057
335176
335300
335428
335554
335677
335792
335898
335992
336072
336139
336192
336233
308882
317327
317359
317409
317475
317557
317652
317758
317873
317993
318116
318239
318357
318469
318570
318660
318737
318801
318853
318896
292428
300600
300630
300678
300741
300818
300908
301009
301118
301232
301348
301464
301577
301682
301778
301862
301934
301994
302044
302087
276512
284415
284443
284487
284545
284617
284700
284793
284894
284999
285106
285213
285316
285412
285499
285575
285639
285694
285741
285783
261120
268761
268786
268826
268878
268942
269017
269099
269189
269282
269376
269469
269558
269641
269714
269778
269831
269876
269918
269956
246243
253626
253648
253682
253727
253781
253844
253914
253988
254064
254141
254215
254284
254346
254400
254444
254480
254511
254543
254576
231872
239002
239019
239046
239082
239125
239173
239226
239281
239335
239388
239435
239476
239509
239533
239548
239557
239566
239582
239605
217994
224877
224889
224908
224933
224962
224993
225025
225055
225082
225102
225114
225116
225107
225087
225058
225026
224999
224990
224993
204601
211240
211246
211257
211269
211281
211292
211300
211300
211292
211272
211237
211186
211117
211034
210939
210841
210757
210704
210676
191683
198083
198084
198084
198082
198077
198065
198044
198010
197960
197890
197795
197674
197524
197349
197154
196954
196775
196645
196560
179230
185396
185391
185381
185364
185339
185303
185250
185178
185080
184950
184782
184571
184314
184009
183665
183303
182962
182695
182496
167231
173169
173157
173136
173105
173060
172997
172912
172798
172647
172450
172197
171878
171482
171003
170443
169823
169201
168671
168237
155676
161391
161372
161341
161295
161230
161142
161024
160867
160661
160393
160047
159603
159041
158338
157479
156465
155350
154287
153333
144552
150050
150026
149985
149925
149842
149729
149579
149382
149123
148784
148343
147769
147024
146059
144818
143242
141305
139122
136782
133848
139136
139106
139056
138984
138884
138749
138571
138337
138029
137627
137098
136401
135477
134244
132582
130313
127178
122820
116572
117038
119403
119168
118965
118329
117144
113429
109162
107740
108407
114095
115551
105414
102762
104715
107490
108007
105022
104381
104899
147337
253076
245002
199283
156073
119929
92318.5
71969.6
58033.8
48478.5
43131
39531.3
37201.7
34966
33319.6
32111.6
29586.9
30514.2
30413.7
29203.3
29326
30271.9
29702.7
29211.7
27805
26604.6
26479
26461.8
26322.5
26195.6
26289.6
27170.4
27733.1
27497.5
26676.2
24286.2
13652.9
5604.84
4202.41
-5967.5
111953
114392
114260
114145
113662
112398
110845
108156
107237
107206
107937
113927
103002
97599.8
97845.3
102341
105723
101704
100181
98600.4
100256
189840
206389
177762
142505
110623
84683.2
65313.5
52280
44399.5
39322.8
35667.8
33122.5
31290.1
30023
29474.4
28499.7
27975.7
26749.3
25892.8
25729.7
25338.8
26884
26004.3
25363.2
25335.6
25294.3
25051.5
24266
24572.6
24315.7
23463.2
23494.4
23019
21919.7
17790.9
9960.53
3690.99
-7757.7
-7960.78
106834
109291
109169
109084
108765
107870
106717
106737
107300
107267
106371
109152
99742.4
93509.1
93239.2
95094.8
103778
100712
100502
100921
104534
177749
177948
157286
127463
98820.8
75181.3
57542.4
45605
38353.8
33582.3
30465.3
28766.1
27368.8
26003.5
25068.1
24589.4
24655.8
24525.5
23780.8
22015.7
20980.5
21041.1
20617.7
20267.7
20179.6
19957.8
19699.8
19366.7
19311.1
18898.8
18283.9
18064.4
17580.8
16456.7
13400.8
7847.7
985.252
-8129.57
-7971.19
101737
104072
104078
104277
104110
103525
102749
102649
106115
106501
101414
99935.5
92191.7
88381.9
86930.7
89274.7
101391
100755
100403
100556
106670
158737
153173
136228
110537
84786.2
63508.6
47914
37469.1
31039.7
27037.5
24462.7
22922.6
21762.8
20671.2
19880.4
19491.6
19536.6
19214.9
18354.2
17095.5
16149.5
15766.4
15342.4
14998.6
14806.7
14569.2
14324.7
14087.1
13920.2
13454.7
12928.8
12640
12200.3
11483.4
9473.31
5393.93
-262.969
-6623.02
-8091.95
96962.5
99184.4
99250.6
99190.2
99005.6
98677.6
98173.5
97965
99069.1
98819.7
95377.5
90909.1
87686.7
87010.1
83540.1
81363.9
87166.2
99657.4
100187
100525
115594
131526
127188
112581
90249.4
67494.6
49088.3
36131.8
27812.6
22770.3
19756.6
17896.2
16756.7
15913.2
15120.3
14475.9
14085.3
13933.1
13633.7
12977.7
11942.4
11089.1
10539.2
10018.4
9645.02
9405.87
9083.16
8795.2
8632.28
8455.2
7896.41
7399.04
7116.7
6728.5
6885.59
6154.01
3429.04
-860.757
-5810.26
-9067.75
91821.9
94211.8
93995.4
93850.3
93695.1
93490.6
93208.4
93024.8
93263.3
92925.7
90343.1
85419.5
83190.5
83655.2
83000.8
83007.9
83076.5
98614.4
99386.9
99704.5
103066
105754
100538
86582.9
66479.6
46685.2
31711
22066.1
16557.7
13459.5
11754.9
10779.7
10210
9765.36
9305.27
8851.15
8478.24
8183.16
7844.29
7409.95
6541.52
5862.06
5312.74
4603.83
4194.48
4006.36
3514.25
3058.6
3038.25
3024.33
2192.4
1494.25
1373.39
532.698
1061.62
2747.62
2429.83
-1126.99
-5236.66
-9108.62
86524
88693.2
88601.3
88540.6
88296.5
88135.5
87995.9
87883.7
87889.1
87642.5
85914.4
83417.6
82808.7
82851.2
82952.2
82993.2
83114.4
94720.4
95338.6
89991.9
85471.9
82498.1
74266.2
59224.7
39706.7
21423.9
10243.8
4870.06
3305.37
2903.61
2893.17
3082.94
3258.23
3304.92
3266.93
3085.33
2781.6
2312.89
1884.73
1896.74
1301.35
966.609
770.534
314.958
184.396
261.667
35.9849
-90.8999
-94.8937
-97.4849
-100.131
-95.0095
-96.9449
-102.833
-115.737
-111.651
228.163
-506.467
-4474.67
-7238.84
81153
83439.8
83592.5
83186.9
82753.8
82606.4
82590.1
82583.1
82656.4
82489.8
81627.6
82251.3
82842.5
82834.5
82894.8
82996
80092.8
86769.5
80970.5
77180.9
69321
61236.1
49227.7
31295.1
9427.24
588.248
12.9735
-12.0301
-26.9274
-38.7501
-48.0757
-55.4335
-59.0087
-41.1809
-28.1047
-8.8778
-24.5768
-94.8005
-81.2976
-83.2587
-83.3549
-65.3675
-77.5573
-81.2883
-84.5648
-88.2045
-90.974
-87.6796
-94.1392
-98.2652
-101.663
-103.163
-105.806
-109.204
-117.78
-129.737
-147.779
-165.863
-2124.26
-5786.57
75912.3
78289.3
78019.3
77761.4
77665.5
77394.5
77135.8
77086.7
77201.3
77235.9
77085.1
78357.3
82706.5
82807.9
82846.1
82580.2
76326.7
82578.7
74359.6
64936.6
54071.2
41885.8
25808.5
4419.87
34.5373
7.91301
-6.33011
-22.1862
-34.9123
-44.9175
-52.8444
-60.3272
-64.6309
-65.651
-67.8179
-69.8281
-71.5664
-72.5762
-71.2576
-77.4027
-80.4076
-77.7169
-82.5686
-86.6112
-90.2177
-93.849
-96.3422
-96.0249
-99.8984
-103.702
-106.835
-109.112
-112.19
-116.737
-124.702
-135.496
-149.303
-164.269
-188.546
-1456.4
71140.6
72921.9
72258.7
72101.7
72306.1
72100.2
71925
71467.3
71595.3
71789.1
72099.4
72945.8
80362.7
82771.7
82763
70812.6
83230.7
78874.8
65621.6
53169.3
39694
24290.7
4834.12
41.931
-2.86004
-9.8791
-25.0468
-37.8957
-47.9793
-55.872
-62.135
-67.5808
-71.806
-73.7509
-75.3745
-77.1809
-79.1791
-80.4452
-80.1243
-83.2718
-85.4505
-85.2276
-88.1683
-91.85
-95.4027
-98.839
-101.351
-102.54
-105.542
-108.992
-112.163
-115.048
-118.601
-123.517
-130.918
-140.726
-152.656
-165.753
-177.205
-185.557
65590.9
67294.9
66489.1
66882.9
66680.7
66566.4
66288.9
66229.8
66289.9
66241.4
66604
67202.9
70175.1
79680.2
76600.6
65037.2
74220.1
68637.3
55916.3
41766.1
26207.6
7461.75
-5.79919
-17.8785
-22.0733
-32.8905
-43.8894
-53.3695
-60.9903
-66.9283
-71.604
-75.5743
-78.8257
-80.7298
-82.1523
-83.6583
-85.2971
-86.5295
-86.9709
-89.0005
-90.9089
-91.8016
-94.1372
-97.3608
-100.737
-104.028
-106.677
-108.613
-111.326
-114.505
-117.69
-120.906
-124.769
-129.797
-136.707
-145.524
-155.886
-166.903
-176.882
-181.673
59701.5
61250.9
61055.2
61229.4
60930.1
60907.6
60693
60683.6
60468.8
60415
60575.3
60868.5
61997.8
63680.2
56928.6
79751.4
70384.4
59439
46088
30763.5
13154.3
174.741
-28.3895
-35.1977
-43.9459
-52.5279
-60.836
-68.0071
-73.7292
-78.0774
-81.395
-84.1225
-86.404
-87.9613
-89.1431
-90.3673
-91.7147
-92.8988
-93.6975
-95.1816
-96.8268
-98.1339
-100.271
-103.117
-106.279
-109.429
-112.15
-114.463
-117.112
-120.143
-123.341
-126.754
-130.764
-135.762
-142.225
-150.133
-159.104
-168.324
-175.996
-178.703
53759.7
55036.5
55577.9
55066.3
54944.2
54939.3
54932.6
54643.8
54379.7
54380.7
54399.8
54477.2
54819.1
54389.7
60194.2
67995.9
64194.9
50623.1
36453.4
20160.4
2033.22
-40.575
-47.9818
-54.9848
-62.181
-69.2025
-75.7845
-81.3768
-85.7385
-88.9023
-91.1663
-92.9115
-94.3549
-95.4376
-96.3247
-97.2724
-98.3534
-99.4121
-100.327
-101.56
-102.999
-104.489
-106.503
-109.062
-112.014
-115.015
-117.754
-120.254
-122.911
-125.88
-129.092
-132.597
-136.631
-141.529
-147.574
-154.681
-162.471
-170.235
-176.479
-178.737
47701
48974.1
49310.7
48740.6
48757.8
48833.4
48910.8
48787.2
48775.5
48493.4
48276.6
48192.7
48067
47892.6
53541.3
62392.6
54898.7
41811.8
27157.3
9467.74
27.1055
-62.5411
-65.0772
-71.544
-77.6097
-83.4988
-88.8806
-93.3924
-96.8129
-99.1584
-100.672
-101.692
-102.471
-103.088
-103.655
-104.322
-105.154
-106.062
-106.962
-108.052
-109.376
-110.906
-112.798
-115.173
-117.928
-120.773
-123.485
-126.071
-128.763
-131.716
-134.926
-138.439
-142.44
-147.186
-152.813
-159.21
-166.021
-172.603
-177.801
-179.985
41294.9
43101.6
42383.5
42302.4
42301.7
42527.4
42759.2
43093
42971.6
42474.6
42101.1
41742.9
41005.2
43456
47081.8
52982.4
45291
33039.3
18193.5
1164.28
-73.5176
-73.1049
-79.8502
-85.5666
-90.8639
-95.8947
-100.408
-104.147
-106.924
-108.73
-109.751
-110.279
-110.581
-110.81
-111.074
-111.481
-112.086
-112.829
-113.651
-114.649
-115.89
-117.373
-119.191
-121.435
-124.001
-126.684
-129.34
-131.966
-134.695
-137.639
-140.831
-144.323
-148.253
-152.789
-157.99
-163.742
-169.716
-175.33
-179.696
-181.741
34095.3
35886.3
35777.9
35881.8
35590.5
36226.2
36264
36711.5
36816.1
36371.5
35936
35760.2
35847.8
36338
42405.7
42845.3
35906.1
24600.9
9312.88
6.16311
-79.6775
-86.1479
-92.6175
-97.7365
-102.444
-106.799
-110.644
-113.812
-116.144
-117.607
-118.333
-118.567
-118.564
-118.51
-118.528
-118.715
-119.117
-119.7
-120.43
-121.351
-122.518
-123.95
-125.708
-127.823
-130.21
-132.742
-135.331
-137.966
-140.714
-143.651
-146.819
-150.269
-154.09
-158.373
-163.141
-168.294
-173.532
-178.334
-182.002
-183.793
25871.3
28982.7
30361.7
29111.3
29888.1
29550.4
29868.5
31175.1
30993.5
30638.9
30306.3
29862.7
28330
31952.1
37042.6
34201
27398.1
16804.7
2028.05
-91.8385
-91.4681
-98.387
-103.985
-108.574
-112.766
-116.541
-119.85
-122.585
-124.603
-125.855
-126.429
-126.519
-126.354
-126.125
-125.968
-125.984
-126.22
-126.668
-127.31
-128.166
-129.27
-130.648
-132.33
-134.315
-136.547
-138.951
-141.469
-144.083
-146.825
-149.744
-152.876
-156.26
-159.944
-163.967
-168.325
-172.921
-177.49
-181.587
-184.647
-186.12
18437.3
22995.4
23859.1
23648.6
24880.1
24603.5
26759.7
25978.5
25202.2
24748.2
24313.3
24145.3
19848.6
27995.5
28124.2
26579.8
20003
9636.86
63.4781
-98.629
-103.898
-109.676
-114.362
-118.453
-122.122
-125.389
-128.266
-130.664
-132.455
-133.58
-134.094
-134.144
-133.923
-133.613
-133.356
-133.257
-133.374
-133.718
-134.283
-135.081
-136.129
-137.446
-139.043
-140.91
-143.014
-145.31
-147.752
-150.322
-153.033
-155.913
-158.989
-162.283
-165.816
-169.593
-173.582
-177.675
-181.642
-185.114
-187.63
-188.775
17424.4
16966
18157.1
19084.8
19636.7
21608.6
20715.4
19904.5
19552.8
19304.8
18321.1
16423.8
16502.6
18071.9
25114.2
20069
13737.3
3651.7
-69.5668
-111.454
-115.304
-120.004
-123.999
-127.568
-130.732
-133.567
-136.093
-138.224
-139.843
-140.894
-141.404
-141.479
-141.277
-140.96
-140.669
-140.513
-140.559
-140.832
-141.338
-142.085
-143.081
-144.335
-145.849
-147.616
-149.614
-151.812
-154.175
-156.684
-159.34
-162.161
-165.159
-168.342
-171.714
-175.259
-178.919
-182.574
-186.016
-188.941
-190.985
-191.82
15869.3
16037.8
15725.1
16328.7
15335.6
16154.9
14639.6
14101.2
13836.1
13628.3
13686.6
14190.8
14993.6
16331.4
17757.7
14516.2
8419.93
340.07
-128.416
-121.441
-125.827
-129.593
-133.006
-136.06
-138.783
-141.263
-143.499
-145.41
-146.896
-147.903
-148.437
-148.575
-148.438
-148.17
-147.903
-147.743
-147.763
-147.999
-148.467
-149.173
-150.12
-151.314
-152.754
-154.435
-156.34
-158.447
-160.727
-163.163
-165.747
-168.49
-171.391
-174.449
-177.653
-180.969
-184.327
-187.602
-190.6
-193.066
-194.713
-195.282
13024.6
13373.1
13510.7
14047.9
13526.3
13196.4
13095.2
13152.9
13239
13398.9
13572.1
13852.7
14697.9
12673.2
12819.9
9834.19
3952.74
-80.625
-125.299
-131.898
-135.402
-138.581
-141.478
-144.08
-146.442
-148.629
-150.621
-152.347
-153.725
-154.705
-155.278
-155.496
-155.453
-155.273
-155.072
-154.951
-154.985
-155.214
-155.663
-156.341
-157.248
-158.389
-159.763
-161.365
-163.185
-165.203
-167.398
-169.751
-172.252
-174.902
-177.693
-180.614
-183.642
-186.733
-189.809
-192.748
-195.371
-197.462
-198.788
-199.146
12892.7
13001.9
13063.7
13055.1
12984
13043.2
13065.7
13110.4
13184.6
13341.5
13469.7
13641.4
13367.6
10627.2
9183.39
6067.78
890.438
-116.313
-139.506
-141.577
-144.458
-147.097
-149.543
-151.773
-153.842
-155.783
-157.568
-159.139
-160.429
-161.389
-162.006
-162.31
-162.377
-162.305
-162.198
-162.148
-162.224
-162.473
-162.921
-163.583
-164.46
-165.556
-166.87
-168.4
-170.138
-172.071
-174.176
-176.44
-178.848
-181.394
-184.064
-186.839
-189.689
-192.561
-195.377
-198.016
-200.319
-202.103
-203.176
-203.373
12898
12920.7
12969.4
12978.5
12978.8
13014.6
13038.4
13067.2
13114
13233.7
13302.9
13469.8
11997.4
8354.31
6530.9
3102.45
-135.888
-157.393
-148.495
-150.882
-153.076
-155.264
-157.331
-159.263
-161.092
-162.826
-164.438
-165.878
-167.094
-168.038
-168.696
-169.086
-169.264
-169.31
-169.312
-169.351
-169.491
-169.777
-170.239
-170.895
-171.751
-172.809
-174.07
-175.534
-177.194
-179.041
-181.055
-183.224
-185.531
-187.964
-190.505
-193.131
-195.803
-198.467
-201.042
-203.416
-205.447
-206.979
-207.852
-207.932
12908.7
12893.7
12927.4
12958.6
12964.6
12986.1
13007.2
13031.5
13078.1
13164.4
13164.3
13102.1
9081.16
6870.25
4489.99
798.096
-154.851
-152.03
-157.988
-159.584
-161.379
-163.193
-164.955
-166.646
-168.276
-169.839
-171.306
-172.637
-173.787
-174.717
-175.411
-175.878
-176.163
-176.326
-176.441
-176.578
-176.792
-177.128
-177.616
-178.276
-179.117
-180.144
-181.358
-182.76
-184.345
-186.106
-188.028
-190.098
-192.298
-194.612
-197.019
-199.493
-201.992
-204.458
-206.814
-208.956
-210.758
-212.083
-212.8
-212.799
12911.3
12897.5
12907.3
12932.9
12947.2
12960.9
12976.7
12996.1
13038.4
13076.9
13088
12582.9
7505.56
5626.93
2792.13
-400.341
-153.468
-166.071
-166.714
-168.02
-169.46
-170.979
-172.5
-173.998
-175.465
-176.887
-178.234
-179.473
-180.567
-181.48
-182.2
-182.735
-183.115
-183.388
-183.613
-183.848
-184.141
-184.533
-185.053
-185.724
-186.557
-187.558
-188.73
-190.074
-191.586
-193.263
-195.093
-197.06
-199.148
-201.34
-203.611
-205.934
-208.264
-210.545
-212.703
-214.642
-216.25
-217.409
-218.008
-217.955
12910.8
12898.3
12902.6
12921.9
12926.1
12936.5
12948.7
12963
12997.1
13042
13097.4
10078.1
6604.63
4481.53
1268.92
-317.466
-182.154
-174.13
-175.208
-176.196
-177.402
-178.701
-180.036
-181.38
-182.715
-184.021
-185.27
-186.43
-187.472
-188.367
-189.104
-189.693
-190.155
-190.525
-190.851
-191.179
-191.549
-191.999
-192.557
-193.242
-194.071
-195.05
-196.183
-197.472
-198.915
-200.51
-202.247
-204.109
-206.083
-208.15
-210.287
-212.46
-214.628
-216.736
-218.714
-220.476
-221.921
-222.948
-223.462
-223.384
12908.4
12904.2
12898.7
12890.3
12902.8
12913.4
12923.9
12938
12965.2
13011.8
12778.6
7700.7
5868.59
3355.2
-52.3627
-186.502
-177.18
-182.659
-183.324
-184.235
-185.28
-186.42
-187.615
-188.838
-190.068
-191.28
-192.447
-193.539
-194.532
-195.405
-196.153
-196.783
-197.311
-197.765
-198.179
-198.589
-199.032
-199.537
-200.131
-200.833
-201.66
-202.62
-203.717
-204.955
-206.332
-207.846
-209.489
-211.248
-213.108
-215.05
-217.051
-219.079
-221.093
-223.039
-224.853
-226.459
-227.768
-228.693
-229.151
-229.071
12907.2
12899
12891.9
12877.6
12883.8
12892
12901.3
12916.1
12938.8
12991.2
11257.4
6942.79
5051.87
2151.25
-625.518
-189.8
-190.113
-190.771
-191.415
-192.216
-193.154
-194.184
-195.276
-196.406
-197.551
-198.686
-199.784
-200.817
-201.765
-202.617
-203.37
-204.03
-204.61
-205.13
-205.616
-206.097
-206.602
-207.157
-207.784
-208.503
-209.329
-210.271
-211.335
-212.524
-213.837
-215.273
-216.825
-218.481
-220.227
-222.045
-223.913
-225.801
-227.666
-229.459
-231.123
-232.591
-233.786
-234.634
-235.063
-235.004
12896.9
12878.6
12856.1
12860.6
12866.3
12872.5
12880
12889.8
12916.4
12779.9
8428.83
6449.38
4113.38
859.738
-241.049
-200.929
-198.304
-198.893
-199.442
-200.197
-201.07
-202.027
-203.045
-204.104
-205.18
-206.249
-207.286
-208.267
-209.178
-210.011
-210.766
-211.45
-212.07
-212.639
-213.179
-213.714
-214.269
-214.866
-215.522
-216.256
-217.08
-218.004
-219.037
-220.18
-221.432
-222.792
-224.255
-225.811
-227.445
-229.142
-230.881
-232.631
-234.354
-236.003
-237.529
-238.872
-239.969
-240.758
-241.182
-241.176
12861.9
12836.8
12828.5
12839.8
12848
12854.6
12861.9
12873.2
12912
11677.9
7615.07
5761.15
3004.97
-208.035
-187.752
-206.657
-206.726
-206.932
-207.496
-208.228
-209.064
-209.974
-210.94
-211.942
-212.959
-213.97
-214.95
-215.883
-216.76
-217.578
-218.337
-219.04
-219.691
-220.298
-220.88
-221.455
-222.046
-222.671
-223.349
-224.093
-224.915
-225.824
-226.826
-227.924
-229.119
-230.407
-231.784
-233.242
-234.767
-236.346
-237.958
-239.576
-241.162
-242.677
-244.073
-245.299
-246.307
-247.051
-247.491
-247.576
12839.7
12819
12817.9
12823.1
12830.4
12837.7
12845.2
12866.1
12766.6
9016.15
7129.39
4835.34
1702.43
-494.786
-227.277
-213.136
-214.628
-215.023
-215.621
-216.349
-217.165
-218.045
-218.971
-219.926
-220.891
-221.844
-222.771
-223.661
-224.512
-225.319
-226.078
-226.792
-227.464
-228.1
-228.714
-229.321
-229.94
-230.586
-231.276
-232.022
-232.837
-233.729
-234.704
-235.76
-236.9
-238.12
-239.414
-240.777
-242.198
-243.663
-245.153
-246.642
-248.099
-249.484
-250.756
-251.872
-252.794
-253.494
-253.959
-254.188
12824.6
12805.6
12804.4
12807.3
12813.5
12821.7
12830.2
12868.3
11606.3
8256.65
6395.27
3673.15
308.106
-195.148
-219.03
-222.634
-222.835
-223.257
-223.866
-224.592
-225.395
-226.254
-227.149
-228.063
-228.977
-229.876
-230.755
-231.612
-232.441
-233.234
-233.989
-234.707
-235.391
-236.047
-236.683
-237.314
-237.953
-238.614
-239.31
-240.055
-240.86
-241.732
-242.674
-243.69
-244.777
-245.932
-247.149
-248.423
-249.743
-251.099
-252.471
-253.838
-255.17
-256.43
-257.583
-258.592
-259.426
-260.068
-260.535
-260.951
12744.9
12792.5
12789.6
12791.5
12796.8
12806.9
12826.1
12650.3
9422.97
7690.52
5339.61
2292.31
-435.798
-227.051
-230.455
-230.877
-231.142
-231.626
-232.251
-232.976
-233.768
-234.608
-235.476
-236.35
-237.213
-238.066
-238.909
-239.738
-240.543
-241.32
-242.067
-242.784
-243.473
-244.14
-244.791
-245.437
-246.089
-246.759
-247.458
-248.199
-248.99
-249.839
-250.748
-251.721
-252.753
-253.844
-254.989
-256.18
-257.405
-258.658
-259.919
-261.169
-262.381
-263.523
-264.562
-265.465
-266.205
-266.764
-267.152
-267.419
12741.1
12749.8
12767.2
12774.9
12779.9
12794.2
12814
11083.7
8720.78
6739.11
4016.05
788.19
-230.379
-241.53
-238.825
-239.331
-239.642
-240.161
-240.797
-241.517
-242.297
-243.117
-243.955
-244.785
-245.606
-246.421
-247.234
-248.035
-248.817
-249.577
-250.312
-251.023
-251.712
-252.384
-253.043
-253.697
-254.356
-255.029
-255.727
-256.46
-257.236
-258.059
-258.935
-259.863
-260.842
-261.87
-262.942
-264.053
-265.191
-266.347
-267.504
-268.643
-269.742
-270.772
-271.702
-272.502
-273.145
-273.609
-273.88
-273.916
12733.4
12726.3
12744.2
12758.8
12763.8
12799.8
12263.2
9656.73
7880.69
5453.25
2509.14
-275.058
-228.23
-249.004
-248.052
-248.008
-248.354
-248.88
-249.515
-250.224
-250.987
-251.783
-252.584
-253.374
-254.159
-254.946
-255.73
-256.503
-257.263
-258.004
-258.725
-259.427
-260.112
-260.783
-261.443
-262.101
-262.761
-263.432
-264.125
-264.847
-265.605
-266.403
-267.245
-268.13
-269.055
-270.022
-271.025
-272.057
-273.11
-274.174
-275.232
-276.268
-277.26
-278.185
-279.014
-279.718
-280.271
-280.646
-280.817
-280.727
12719.4
12721.1
12728.8
12744.6
12758
12574.7
10460.3
8768.71
6617.8
3964.55
926.063
-262.131
-261.964
-257.292
-256.853
-256.869
-257.245
-257.782
-258.411
-259.103
-259.842
-260.606
-261.366
-262.123
-262.88
-263.639
-264.395
-265.142
-265.879
-266.601
-267.307
-267.997
-268.673
-269.339
-269.996
-270.651
-271.308
-271.976
-272.661
-273.37
-274.108
-274.88
-275.688
-276.53
-277.405
-278.312
-279.247
-280.205
-281.179
-282.153
-283.116
-284.054
-284.948
-285.776
-286.512
-287.131
-287.607
-287.916
-288.03
-287.915
12701
12709.3
12713.7
12724.3
12705
11077.1
9406.3
7490.46
5122.26
2364.25
-226.706
-234.401
-266.594
-266.024
-265.709
-265.892
-266.315
-266.866
-267.487
-268.159
-268.868
-269.589
-270.314
-271.041
-271.771
-272.501
-273.23
-273.952
-274.666
-275.368
-276.056
-276.732
-277.397
-278.054
-278.705
-279.354
-280.005
-280.665
-281.338
-282.033
-282.75
-283.495
-284.268
-285.068
-285.895
-286.745
-287.617
-288.506
-289.404
-290.298
-291.174
-292.018
-292.818
-293.556
-294.209
-294.755
-295.175
-295.447
-295.561
-295.52
12676.3
12693.8
12698.4
12682.1
11379.1
9844.6
8078.15
5983.02
3523.08
724.453
-236.768
-278.835
-274.98
-274.754
-274.782
-275.099
-275.573
-276.132
-276.742
-277.393
-278.066
-278.749
-279.438
-280.136
-280.837
-281.539
-282.241
-282.938
-283.628
-284.308
-284.978
-285.638
-286.289
-286.934
-287.575
-288.214
-288.857
-289.505
-290.165
-290.842
-291.538
-292.255
-292.993
-293.753
-294.533
-295.33
-296.143
-296.968
-297.795
-298.616
-299.416
-300.18
-300.894
-301.546
-302.122
-302.608
-302.987
-303.249
-303.398
-303.457
12640.5
12677.8
12666.6
11444.2
10084
8435.95
6587.13
4384.41
1844.37
-298.348
-268.365
-283.801
-283.964
-283.846
-284.091
-284.504
-285.016
-285.577
-286.174
-286.8
-287.437
-288.084
-288.742
-289.408
-290.079
-290.753
-291.427
-292.098
-292.764
-293.423
-294.073
-294.716
-295.352
-295.983
-296.61
-297.237
-297.866
-298.501
-299.145
-299.801
-300.474
-301.162
-301.866
-302.587
-303.323
-304.071
-304.829
-305.593
-306.356
-307.109
-307.839
-308.534
-309.181
-309.766
-310.277
-310.707
-311.051
-311.302
-311.461
-311.529
10705.6
12304.5
11472.9
10255.5
8725.05
7085.97
5147.52
2836.53
204.791
-147.856
-295.99
-293.549
-293.314
-293.352
-293.676
-294.135
-294.658
-295.207
-295.784
-296.378
-296.986
-297.603
-298.23
-298.864
-299.503
-300.148
-300.793
-301.438
-302.079
-302.715
-303.345
-303.969
-304.588
-305.203
-305.814
-306.425
-307.038
-307.656
-308.281
-308.916
-309.562
-310.221
-310.892
-311.575
-312.267
-312.97
-313.677
-314.385
-315.09
-315.78
-316.447
-317.08
-317.668
-318.199
-318.663
-319.054
-319.368
-319.6
-319.749
-319.816
123553
128635
128600
128543
128460
128345
128192
127990
127725
127378
126923
126323
125525
124455
122997
120967
118048
113629
106314
92667.6
113379
118447
118408
118345
118252
118126
117958
117737
117449
117072
116579
115930
115065
113901
112307
110068
106808
101793
93534.3
78808.9
103233
108285
108244
108175
108076
107940
107761
107526
107222
106826
106311
105635
104741
103546
101923
99677.5
96495.3
91852.6
84890.3
74136.5
93117.3
98153.1
98108.9
98036.5
97932.3
97790.5
97603.6
97360.6
97046.9
96642.5
96119.9
95441.4
94554
93383.5
91824.1
89723.8
86861.3
82911.6
77408.3
69783.4
83032.3
88051.7
88006
87931.2
87823.8
87678.3
87487.4
87240.9
86924.9
86521.1
86004.7
85342.1
84488.1
83381.3
81939.7
80052.8
77574.5
74313.6
70038
64568
72979.5
77982.5
77935.9
77860
77751.2
77604.5
77412.9
77167
76854.3
76458.5
75957.9
75324
74519.7
73496.7
72193.6
70533.7
68423.4
65754.2
62415.2
58339.6
62959.2
67945.8
67899.2
67823.4
67714.9
67569
67379.4
67137.5
66832.4
66449.6
65970.9
65372.7
64625.2
63691.4
62526.3
61077.1
59284.6
57086.8
54428.8
51284.1
52971.1
57942
57896.1
57821.4
57714.6
57571.2
57385.6
57150.3
56855.5
56489
56035.3
55475.3
54785.2
53936.6
52896.9
51629.6
50096.8
48262.4
46098.1
43593.6
43014.6
47970.5
47926.1
47853.7
47749.7
47610.2
47430.1
47202.9
46920.2
46571.4
46143.8
45621.4
44985.3
44213.4
43281.3
42163.7
40836.4
39278.5
37475.1
35421.6
33087.9
38030.5
37988.8
37919.8
37819.7
37684.8
37511.1
37292.9
37023
36692.4
36290.4
35803.9
35216.8
34511.3
33668
32668.9
31499.9
30151
28615.4
26888.5
23187.2
28120.5
28084.2
28019.9
27923.7
27793.7
27627
27418.2
27161.1
26848.7
26471.9
26019.6
25477.8
24829.9
24058.5
23150.3
22101.1
20912.8
19584.2
18110.3
13301.9
18239.1
18212.9
18153.9
18061.2
17937
17778.2
17579.3
17336.2
17042.9
16692.2
16274.8
15777.7
15181.7
14464.1
13614.2
12636.8
11553
10368.1
9055.32
3386.13
8387.82
8379.39
8323.26
8232.79
8112.9
7958.18
7762.56
7523.39
7236.34
6895.3
6493.6
6022.15
5460.02
4749.56
3917.08
3047.1
2232.89
1534.82
982.78
-430.788
291.18
290.936
263.18
220.88
167.162
104.881
34.3828
-43.0989
-126.282
-212.954
-299.707
-384.147
-428.539
-428.44
-428.822
-428.718
-427.558
-421.662
-421.237
-439.227
-433.617
-433.593
-433.615
-433.648
-433.674
-433.691
-433.702
-433.714
-433.743
-433.806
-433.929
-434.139
-434.656
-435.04
-435.132
-435.062
-434.81
-434.339
-434.195
-448.816
-443.747
-443.759
-443.778
-443.796
-443.812
-443.827
-443.845
-443.87
-443.899
-443.931
-443.954
-443.949
-443.979
-444.065
-444.132
-444.173
-444.18
-444.154
-444.158
-458.59
-453.631
-453.636
-453.647
-453.662
-453.676
-453.692
-453.71
-453.73
-453.75
-453.769
-453.785
-453.791
-453.796
-453.82
-453.856
-453.891
-453.917
-453.935
-453.955
-468.408
-463.477
-463.481
-463.489
-463.501
-463.515
-463.531
-463.548
-463.565
-463.581
-463.596
-463.608
-463.617
-463.626
-463.641
-463.662
-463.686
-463.712
-463.736
-463.763
-478.246
-473.319
-473.322
-473.328
-473.339
-473.353
-473.368
-473.384
-473.399
-473.413
-473.424
-473.434
-473.443
-473.452
-473.464
-473.481
-473.502
-473.527
-473.553
-473.582
-488.092
-483.164
-483.164
-483.169
-483.178
-483.19
-483.205
-483.219
-483.232
-483.244
-483.255
-483.263
-483.272
-483.281
-483.292
-483.308
-483.328
-483.352
-483.379
-483.409
-497.934
-493.006
-493.003
-493.007
-493.016
-493.027
-493.04
-493.052
-493.064
-493.075
-493.085
-493.094
-493.103
-493.112
-493.123
-493.138
-493.157
-493.181
-493.207
-493.236
-507.76
-502.84
-502.838
-502.844
-502.852
-502.862
-502.873
-502.883
-502.893
-502.904
-502.914
-502.924
-502.933
-502.942
-502.953
-502.967
-502.985
-503.007
-503.033
-503.06
-517.566
-512.665
-512.671
-512.679
-512.687
-512.695
-512.704
-512.712
-512.721
-512.729
-512.739
-512.749
-512.759
-512.769
-512.779
-512.793
-512.81
-512.831
-512.856
-512.883
-527.345
-522.487
-522.504
-522.514
-522.522
-522.528
-522.534
-522.54
-522.546
-522.553
-522.561
-522.57
-522.579
-522.59
-522.602
-522.616
-522.633
-522.654
-522.677
-522.703
41247
40980.1
39597.9
39331.7
42309.6
47821.3
54712.9
61702.6
67643.7
71687.7
73285
72126.9
67868.6
59624.8
44484.4
49840.2
34712.7
29709.4
29090.7
31621.4
36595.5
42988.4
49528.6
55090.6
58846.3
60270.5
59075.3
55018.8
47737.5
36988.8
58376.8
39674.8
28655.5
24442.5
25105.9
29037.5
34570.7
40275.4
45038.5
48125.4
49133.5
47901.9
44403.8
38736.1
31328.4
60200.7
48031.9
37740.8
31183.4
28648
29323.2
32017.2
35268.7
38020.7
39629.8
39759.1
38290.4
35253.9
30820.1
25367.9
57828.1
49834.7
42407.9
36641
33031.8
31462.2
31411
32049
32639.5
32679.9
31859.8
30032.4
27186.8
23441.7
19057.2
53439.5
47687.7
42098
37279.4
33582.4
31053.9
29479.4
28462.3
27571.5
26451.1
24853.6
22642.6
19788.8
16363.2
12525.3
47587.4
43237.1
38852
34783.7
31269.1
28400.8
26087.1
24142.9
22325.5
20409
18223.5
15662.5
12678.7
9297.68
5675.95
40693.2
37271.9
33727.4
30259.9
27032.4
24111.4
21476
19038.7
16670.9
14234.4
11608.9
8707.63
5532.97
2356.3
368.894
33065.8
30280.8
27338.6
24353.9
21417.7
18580.9
15847.7
13172.7
10472.5
7657.36
4752.85
1980.35
255.837
-406.642
-369.66
24918.6
22581.4
20079.4
17468.9
14788
12065.5
9310.91
6500.39
3709.88
1326.57
-58.8977
-398.75
-382.562
-386.327
-386.691
16422.9
14391
12179.4
9792.09
7265.48
4672.88
2267.81
707.389
-408.475
-395.271
-391.616
-396.209
-396.435
-396.122
-396.037
7523.69
5669.63
3724.86
1949.69
713.97
-331.203
-424.765
-398.642
-404.213
-406.384
-405.733
-405.632
-405.681
-405.733
-405.782
342.035
-269.186
-432.27
-415.52
-411.083
-413.701
-416.393
-415.506
-415.246
-415.299
-415.31
-415.362
-415.422
-415.485
-415.555
-422.38
-423.48
-425.769
-425.427
-425.057
-424.99
-424.969
-424.957
-424.978
-425.028
-425.077
-425.135
-425.2
-425.273
-425.353
-434.437
-434.482
-434.498
-434.582
-434.603
-434.652
-434.679
-434.712
-434.754
-434.807
-434.866
-434.932
-435.002
-435.075
-435.152
-444.211
-444.247
-444.278
-444.321
-444.361
-444.406
-444.451
-444.499
-444.552
-444.61
-444.67
-444.733
-444.8
-444.873
-444.95
-453.988
-454.027
-454.067
-454.111
-454.156
-454.203
-454.253
-454.305
-454.358
-454.414
-454.474
-454.536
-454.601
-454.67
-454.745
-463.795
-463.834
-463.876
-463.92
-463.966