/*--------------------------------*- C++ -*----------------------------------*\
| =========                 |                                                 |
| \\      /  F ield         | OpenFOAM: The Open Source CFD Toolbox           |
|  \\    /   O peration     | Version:  v1912                                 |
|   \\  /    A nd           | Website:  www.openfoam.com                      |
|    \\/     M anipulation  |                                                 |
\*---------------------------------------------------------------------------*/
FoamFile
{
    version     2.0;
    format      ascii;
    class       volScalarField;
    location    "30";
    object      p_rgh;
}
// * * * * * * * * * * * * * * * * * * * * * * * * * * * * * * * * * * * * * //

dimensions      [1 -1 -2 0 0 0 0];


internalField   nonuniform List<scalar> 
20320
(
434825
434898
434925
434977
435048
435136
435239
435353
435477
435607
435741
435874
436005
436129
436244
436348
436437
436511
436567
436602
434710
434808
434843
434897
434969
435059
435162
435277
435401
435532
435666
435799
435930
436054
436169
436271
436359
436429
436480
436511
434486
434625
434660
434715
434788
434877
434981
435096
435220
435350
435484
435617
435746
435869
435983
436084
436170
436239
436289
436322
434178
434356
434391
434446
434518
434606
434709
434823
434947
435076
435208
435339
435467
435588
435700
435799
435884
435952
436004
436041
433797
434010
434045
434098
434169
434256
434357
434470
434591
434719
434849
434979
435104
435223
435331
435428
435511
435579
435632
435672
433354
433597
433630
433682
433751
433836
433935
434045
434164
434288
434416
434542
434665
434781
434886
434980
435061
435127
435180
435221
432859
433126
433158
433208
433275
433356
433451
433558
433672
433793
433916
434038
434156
434268
434370
434459
434536
434600
434652
434695
432320
432607
432638
432685
432748
432825
432915
433016
433125
433239
433356
433472
433584
433689
433785
433869
433941
434001
434052
434095
431749
432050
432078
432122
432180
432252
432335
432428
432529
432634
432742
432848
432951
433047
433134
433210
433275
433329
433376
433418
431153
431464
431489
431529
431581
431645
431719
431802
431891
431984
432079
432172
432261
432344
432417
432480
432534
432579
432620
432659
430542
430858
430880
430913
430958
431013
431075
431145
431219
431296
431372
431446
431515
431578
431631
431675
431711
431742
431774
431807
429924
430241
430258
430285
430320
430363
430412
430465
430519
430574
430626
430674
430715
430748
430771
430787
430796
430805
430821
430843
429308
429621
429633
429652
429677
429706
429737
429769
429799
429826
429846
429858
429860
429851
429831
429802
429770
429743
429734
429737
428702
429006
429013
429023
429035
429048
429059
429066
429067
429059
429039
429004
428952
428884
428800
428705
428608
428524
428471
428442
428113
428405
428406
428406
428404
428399
428387
428366
428332
428282
428212
428117
427996
427847
427671
427476
427276
427097
426967
426882
427546
427824
427818
427808
427792
427767
427730
427678
427605
427507
427377
427210
426999
426741
426437
426093
425731
425389
425122
424924
427009
427269
427257
427236
427204
427159
427097
427012
426898
426747
426550
426297
425977
425581
425102
424542
423923
423300
422771
422337
426504
426744
426726
426695
426648
426584
426496
426377
426221
426015
425747
425400
424957
424395
423692
422832
421818
420704
419641
418687
426035
426254
426230
426189
426129
426046
425933
425783
425586
425327
424988
424547
423973
423228
422263
421022
419446
417509
415326
412986
425603
425802
425772
425722
425650
425549
425415
425237
425002
424695
424293
423764
423067
422143
420910
419248
416979
413843
409486
403238
120853
120677
120441
120238
119601
118418
113835
109621
108141
109416
115307
116744
106688
104029
105974
108756
109281
105636
105649
106133
148577
254329
246276
200363
157135
120990
93592.6
73243.8
59307.9
49751
44376.9
40712.8
38475.8
36240.1
34593.7
33206
29777.5
31260.8
31687
30476.6
30599.3
30358.7
29704.7
29217.1
27808.2
26605.8
26480.2
26463
26323.7
26196.8
26294.4
27210.8
27954.4
27733.6
27789.2
25560.3
14927
6877.76
5407.18
-4900.69
120938
120686
120553
120515
120053
118790
116643
108754
107243
107213
113718
119518
109109
103148
104237
108733
111935
104376
103657
100538
102573
196221
212781
184154
148897
117014
91074.8
71705.2
58622.4
48197.9
45390.7
42059.2
35324
32212.3
30941.1
30392.5
30995
34283
28267.4
26503.9
26342.3
31177.1
33275.6
32395.9
31603.5
30628.8
30490.3
30915.4
30209.2
30426.4
30580.5
29854.8
29886
29410.6
28311.3
24182.5
16352.1
10082.6
-5885.33
-7954.39
121075
120891
120727
120101
120043
119441
117925
117625
107311
107278
115686
120752
110856
101770
104589
106010
111564
100724
100513
100933
104546
189346
189548
168887
139064
110422
86782.3
69143.3
57205.9
49954.7
45183.2
42059.5
40367.1
38969.7
37604.4
36669.1
35765.7
32912.9
34632.6
35376.5
33616.6
32581.4
32642
32218.6
31868.7
31780.5
31558.7
31300.8
30967.6
30912
30499.8
29884.8
29665.3
29181.7
28057.6
25001.4
19448.5
12586.2
-4208.56
-7959.59
120884
120947
119761
119728
119735
119055
119173
119549
115019
109883
118317
116834
104209
90379.6
99905.8
89347.7
101592
100772
100420
100573
111187
175641
170076
153132
127440
101690
80412.2
64817.6
54372.7
47943.3
43941.1
41366.3
39826.2
38666.4
37574.7
36784
36395.2
36440.2
36118.5
35257.8
33999.1
33053.1
32670
32246
31902.2
31710.3
31472.8
31228.3
30990.7
30823.8
30358.3
29832.3
29543.6
29103.9
28387
26376.8
22297.4
16640.6
10280.6
-6837.82
120140
118194
118670
121274
121298
120979
120475
120266
121370
121121
117561
111020
94171.9
96544.4
83866.2
93618.9
104950
109349
100209
100547
135493
153827
149490
134883
112551
89795.9
71389.6
58433.2
50113.9
45071.6
42058
40197.5
39058
38214.5
37421.6
36777.2
36386.6
36234.4
35935
35278.9
34243.7
33390.4
32840.5
32319.8
31946.3
31707.2
31384.5
31096.5
30933.6
30756.5
30197.7
29700.4
29418
29029.8
29186.9
28455.3
25730.3
21440.6
16491
7683.8
122402
121965
121791
121646
121484
121259
121004
120819
121059
119932
118139
100696
101543
104225
83028.6
83035.7
86830.6
118650
99414.7
108278
130862
133550
128334
114379
94275.4
74481.1
59506.9
49861.9
44353.5
41255.4
39550.8
38575.6
38005.8
37561.2
37101.1
36647
36274.1
35979
35640.1
35205.8
34337.4
33657.9
33108.6
32399.7
31990.3
31802.2
31310.1
30854.5
30834.1
30820.2
29988.3
29290.1
26460.9
7625.62
11911.7
29298.1
30225.7
26668.9
22559.2
18687.2
122747
122082
116427
119142
121533
121507
121385
121273
120301
120068
119303
92167.7
82842.1
82917.1
82985.6
83026.6
83151.8
103476
95372
123381
118861
115887
107655
92613.7
73095.7
54812.9
43589.7
37141.4
34526.2
34457.4
35326
36265.5
36647.2
36693.9
36655.9
36474.3
36170.5
35701.8
35273.7
35285.7
34205.3
29616.2
22188.5
10438.9
7910.04
11927.2
6019.89
-57.511
-61.5047
-64.0959
-66.7165
-61.6205
-63.556
-69.4439
-82.3485
-78.2623
4997.89
32624
28914.3
26150.1
123118
115288
120490
122269
121836
121689
121672
121655
120885
121572
120710
99876.7
82881.5
82873.6
82933.8
83035.1
101292
88810.6
116065
116263
108403
100318
88309.9
70377.4
44411.7
7442.22
52.0558
27.0521
12.1549
0.332187
-8.99343
-4.20245
440.525
1325.74
1751.64
2838.62
3776.34
2213.83
-42.2154
-44.1764
-44.2727
-26.2851
-38.475
-42.206
-45.4825
-49.1222
-51.8917
-48.5973
-55.057
-59.1829
-62.5807
-64.0804
-66.7241
-70.1212
-78.6971
-90.6261
-108.69
112.14
32700.4
33295.7
116775
115422
122897
121188
115301
115031
114780
121964
122079
122114
119343
121508
82751.3
82852.8
82891
83079.4
92142.8
93529.9
119237
109814
98949.1
86763.6
70686.3
33916.8
79.4152
52.7908
38.5477
22.6916
9.96556
-0.0396973
-7.96654
-15.4495
-19.7531
-20.7731
-22.9401
-24.9503
-26.6886
-27.6984
-26.3798
-32.5249
-35.5298
-32.839
-37.6908
-41.7334
-45.3399
-48.9712
-51.4644
-51.1471
-55.0206
-58.8241
-61.9574
-64.234
-67.3121
-71.8594
-79.8246
-89.2144
-103.181
-119.391
-143.668
23575.3
116732
123692
123036
122837
120908
122593
122099
120943
119024
122399
119181
123708
106690
82822.5
82813.8
117973
83281.5
128715
116399
103946
90471.2
75067.9
41959.4
92.7081
47.9171
40.8981
25.7304
12.8815
2.79786
-5.09492
-11.3578
-16.8036
-21.0289
-22.9737
-24.5974
-26.4037
-28.402
-29.6681
-29.3471
-32.4946
-34.6734
-34.4504
-37.3911
-41.0727
-44.6255
-48.0619
-50.574
-51.7627
-54.7645
-58.2151
-61.3855
-64.2707
-67.8243
-72.7394
-80.1409
-89.9492
-101.879
-114.976
-126.428
-134.78
125406
124034
120834
106566
122489
118054
120036
113918
120587
121796
122864
123968
126958
104705
105589
81063.9
95443
125420
112699
98548.5
82990
64244.1
50.9831
38.9039
34.709
23.8918
12.8929
3.41287
-4.20793
-10.146
-14.8216
-18.7919
-22.0434
-23.9475
-25.37
-26.8759
-28.5148
-29.7472
-30.1886
-32.2182
-34.1265
-35.0193
-37.3549
-40.5784
-43.9546
-47.2452
-49.8947
-51.8305
-54.5436
-57.7222
-60.908
-64.1236
-67.9868
-73.0145
-79.9244
-88.7418
-99.1034
-110.121
-120.1
-124.891
125681
124146
102327
124125
123825
123803
120563
119128
123364
123310
123470
123321
124072
126575
119824
79814.3
130187
122334
108983
93658.7
76049.5
6134.74
34.5057
27.6975
18.9493
10.3673
2.05922
-5.1119
-10.8341
-15.1822
-18.4998
-21.2273
-23.5087
-25.066
-26.2479
-27.4721
-28.8195
-30.0036
-30.8023
-32.2864
-33.9315
-35.2387
-37.3757
-40.2214
-43.3835
-46.5341
-49.2549
-51.5675
-54.2167
-57.2476
-60.446
-63.8584
-67.8684
-72.8668
-79.3296
-87.2382
-96.2085
-105.429
-113.101
-115.807
126030
122933
101066
124184
124062
124043
123511
123741
123497
123498
122585
121772
123924
123507
70919.6
70804.7
133313
119741
105571
89278.1
45571.8
28.5427
21.1359
14.1329
6.93669
-0.0848189
-6.66676
-12.2591
-16.6208
-19.7846
-22.0486
-23.7938
-25.2372
-26.3199
-27.2069
-28.1547
-29.2357
-30.2944
-31.2088
-32.4422
-33.881
-35.3709
-37.3856
-39.9446
-42.8966
-45.897
-48.6361
-51.1364
-53.7935
-56.7622
-59.9742
-63.4793
-67.513
-72.4117
-78.456
-85.5635
-93.3536
-101.117
-107.361
-109.619
126362
98485.5
123772
124192
124178
124284
124363
113536
110629
123079
122362
123546
123519
105139
53616.8
119140
130350
117263
102609
84919.5
102.557
12.9106
10.3746
3.9078
-2.15796
-8.04712
-13.4289
-17.9407
-21.3611
-23.7065
-25.2203
-26.24
-27.0193
-27.6365
-28.2028
-28.8704
-29.7017
-30.6099
-31.5107
-32.6006
-33.9245
-35.4543
-37.3462
-39.7208
-42.4766
-45.3208
-48.0331
-50.6189
-53.3113
-56.2643
-59.4744
-62.987
-66.9883
-71.7347
-77.3617
-83.7578
-90.5688
-97.1513
-102.349
-104.533
124874
110471
124283
117175
124201
124427
124313
124826
124750
124373
123995
121121
122121
44491.4
47163.7
134540
127190
114939
100093
40406.2
8.3818
8.79453
2.04917
-3.66721
-8.96449
-13.9953
-18.5087
-22.2477
-25.0241
-26.8303
-27.8514
-28.3797
-28.6817
-28.9105
-29.1741
-29.582
-30.1863
-30.9299
-31.7516
-32.7491
-33.9911
-35.4736
-37.2919
-39.5356
-42.102
-44.7842
-47.4404
-50.0662
-52.7951
-55.7395
-58.9317
-62.4231
-66.354
-70.8898
-76.0902
-81.8428
-87.8165
-93.4301
-97.7969
-99.8417
125884
124349
93418.2
116101
122967
114243
124727
125174
125222
120811
113957
116194
122113
36426.4
47486.4
131308
124369
113064
97775.5
762.182
8.78516
2.31472
-4.1549
-9.27376
-13.9813
-18.3367
-22.1812
-25.3495
-27.6811
-29.1441
-29.8704
-30.1044
-30.1017
-30.0475
-30.065
-30.2521
-30.6541
-31.2375
-31.967
-32.8887
-34.0551
-35.4872
-37.2452
-39.3601
-41.7472
-44.2794
-46.8688
-49.5034
-52.2512
-55.1879
-58.3565
-61.8063
-65.6272
-69.9102
-74.6787
-79.8313
-85.0692
-89.8715
-93.5398
-95.3298
124400
113930
88928.4
124255
73128.2
124694
118941
94681.5
125001
125272
123973
125006
109941
32047.3
104803
129345
122542
111948
73453.2
3.30507
3.67555
-3.24335
-8.84147
-13.4308
-17.6219
-21.3976
-24.7067
-27.4415
-29.4593
-30.7113
-31.285
-31.3752
-31.21
-30.9812
-30.8247
-30.8401
-31.0768
-31.5247
-32.1664
-33.0226
-34.1269
-35.5046
-37.186
-39.1715
-41.4031
-43.8077
-46.3254
-48.9394
-51.6818
-54.6004
-57.7319
-61.1162
-64.8008
-68.8235
-73.1817
-77.7778
-82.3462
-86.4436
-89.5032
-90.9766
55284.1
109212
125803
98090.9
88666.1
66718.4
43057.5
127923
127138
126269
125830
126090
67008.3
28097.4
128630
128524
121947
111581
11860.8
3.31536
-1.95326
-7.73219
-12.4175
-16.5084
-20.1782
-23.4444
-26.3212
-28.72
-30.5103
-31.6357
-32.1496
-32.1999
-31.979
-31.6691
-31.4117
-31.3127
-31.4299
-31.7732
-32.3389
-33.1365
-34.1852
-35.5018
-37.0987
-38.966
-41.07
-43.3659
-45.8076
-48.3777
-51.0882
-53.969
-57.0448
-60.3384
-63.8714
-67.6488
-71.6378
-75.731
-79.6972
-83.1697
-85.6861
-86.8302
22529.8
22912.9
119456
40057.4
113346
48073.3
129583
128772
128420
128172
127188
77923.1
16611.5
18180.8
133981
128936
122605
112519
39.3004
-2.58708
-6.43708
-11.1365
-15.1313
-18.701
-21.8651
-24.6997
-27.2259
-29.3563
-30.9756
-32.0268
-32.5365
-32.6119
-32.4093
-32.0926
-31.8021
-31.6461
-31.6921
-31.9647
-32.471
-33.2182
-34.2136
-35.4673
-36.9814
-38.7486
-40.7469
-42.945
-45.3074
-47.8166
-50.4725
-53.2933
-56.2913
-59.4743
-62.8467
-66.3918
-70.0518
-73.7071
-77.1486
-80.0739
-82.1174
-82.9527
25713
22018.2
119946
41142.6
36150.6
130251
100976
60223.3
33433.9
17432.5
14614.5
14306.7
15109.5
89033.5
133672
130430
124334
54909.3
-12.5021
-5.52741
-9.91328
-13.6792
-17.092
-20.1457
-22.869
-25.3492
-27.5855
-29.4958
-30.9819
-31.9888
-32.5236
-32.6608
-32.5242
-32.2563
-31.9895
-31.8293
-31.8497
-32.0854
-32.5528
-33.2592
-34.2066
-35.4001
-36.8403
-38.521
-40.4263
-42.5327
-44.813
-47.249
-49.8335
-52.5757
-55.4775
-58.5351
-61.7388
-65.0551
-68.4132
-71.6883
-74.6863
-77.1526
-78.7988
-79.3683
28105.8
18847
21662.8
53318.3
19356.3
20213.6
13218.3
13275.9
13362.1
13522
13695.2
13975.8
14821
131881
135907
132922
127040
7820.46
-2.21173
-8.81028
-12.3142
-15.4939
-18.3904
-20.9926
-23.3547
-25.5412
-27.5333
-29.2593
-30.6377
-31.6171
-32.1909
-32.4083
-32.366
-32.1851
-31.9846
-31.8634
-31.8972
-32.1268
-32.5757
-33.2534
-34.1608
-35.302
-36.6757
-38.2779
-40.0972
-42.1161
-44.3105
-46.6637
-49.165
-51.8147
-54.6058
-57.5266
-60.5547
-63.6455
-66.722
-69.6603
-72.2835
-74.3745
-75.7007
-76.0582
13026.8
13141.4
20933.2
13416.2
14968.3
13173.6
13196.1
13240.8
13323.1
13548.5
13602.9
13771.8
13497.9
141016
139572
136457
131279
14.0763
-9.1171
-11.1878
-14.0689
-16.7082
-19.1542
-21.3843
-23.4534
-25.3943
-27.1794
-28.7503
-30.0403
-31
-31.617
-31.9215
-31.9876
-31.9161
-31.8093
-31.7585
-31.8354
-32.0839
-32.5324
-33.1939
-34.0709
-35.167
-36.4811
-38.011
-39.7492
-41.6818
-43.7872
-46.0507
-48.459
-51.005
-53.6745
-56.4505
-59.3004
-62.1724
-64.9878
-67.6265
-69.9298
-71.7135
-72.7869
-72.9839
13039.6
13068.2
21820.8
13116.3
13116.6
13152.4
13176.2
13205.1
13443.2
13668.9
13472
13607.7
105609
146176
144353
140925
61075.5
-19.5708
-10.6727
-13.0603
-15.2542
-17.4422
-19.5094
-21.4413
-23.2701
-25.0044
-26.6159
-28.0564
-29.2716
-30.2158
-30.8742
-31.2639
-31.4416
-31.4882
-31.4901
-31.5288
-31.6688
-31.9545
-32.4173
-33.0734
-33.929
-34.9872
-36.2483
-37.7119
-39.3721
-41.2186
-43.2331
-45.4017
-47.7091
-50.1421
-52.6825
-55.3085
-57.9813
-60.6446
-63.2198
-65.5938
-67.6252
-69.1564
-70.0298
-70.1099
13058
13140.6
13072.8
13104.9
13110.1
13131.5
13152.6
13176.9
13223.5
13623.5
13318.6
13247.5
153656
152258
149878
146186
8543.23
-6.64211
-12.6002
-14.1962
-15.9913
-17.8045
-19.5664
-21.258
-22.888
-24.4504
-25.9179
-27.2491
-28.3994
-29.3291
-30.0225
-30.4902
-30.7745
-30.9379
-31.0531
-31.1897
-31.4043
-31.7396
-32.2275
-32.8876
-33.729
-34.7561
-35.9703
-37.3718
-38.9568
-40.7181
-42.6403
-44.7097
-46.9098
-49.2239
-51.6309
-54.1048
-56.6036
-59.07
-61.4261
-63.5681
-65.3698
-66.695
-67.4121
-67.4105
13068.3
13051.6
13061.6
13088.7
13100.3
13114
13129.7
13149.2
13195.9
13560.2
13241.1
37041.9
160595
158717
155882
152690
-0.377757
-12.9813
-13.6244
-14.9296
-16.3698
-17.8895
-19.4102
-20.9079
-22.375
-23.7966
-25.1445
-26.3834
-27.4767
-28.3904
-29.1103
-29.6451
-30.0249
-30.2976
-30.5228
-30.7576
-31.051
-31.4427
-31.9635
-32.6342
-33.4671
-34.4685
-35.6404
-36.9836
-38.4959
-40.1735
-42.0032
-43.97
-46.058
-48.2496
-50.5215
-52.8437
-55.1737
-57.4551
-59.613
-61.5522
-63.1603
-64.3191
-64.918
-64.8648
13075.7
13059.2
13312.7
13502.9
13087
13097.5
13109.7
13124.1
13338.8
13209
13258.3
149115
167534
165411
162199
66752.3
-21.2247
-13.2004
-14.2786
-15.2664
-16.4727
-17.7716
-19.1062
-20.4501
-21.7854
-23.0916
-24.3403
-25.5008
-26.5424
-27.4369
-28.1747
-28.7635
-29.2251
-29.5955
-29.9215
-30.2491
-30.6197
-31.0697
-31.6271
-32.3126
-33.1413
-34.1207
-35.2537
-36.5421
-37.9854
-39.5803
-41.3169
-43.1798
-45.1537
-47.2208
-49.3569
-51.5302
-53.6984
-55.8067
-57.7846
-59.5463
-60.9918
-62.0188
-62.5328
-62.4541
13081.4
13075.1
13439.6
13119.4
13071.8
13082.4
13092.9
13107
13334.8
13180.8
12947.5
176610
174778
172265
168857
6838.7
-8.27008
-13.7496
-14.4145
-15.3252
-16.3702
-17.5101
-18.7051
-19.9285
-21.1582
-22.3699
-23.5369
-24.6297
-25.6224
-26.495
-27.243
-27.8731
-28.4018
-28.8552
-29.2691
-29.6797
-30.1224
-30.6278
-31.2216
-31.9239
-32.7508
-33.7105
-34.8078
-36.045
-37.4222
-38.9364
-40.5796
-42.3385
-44.198
-46.1402
-48.1414
-50.1696
-52.1832
-54.129
-55.943
-57.5489
-58.8586
-59.7834
-60.2418
-60.1613
13264.9
13076
13148.9
13071.1
13062.3
13069.1
13078.3
13093.1
13152.9
13168.2
132955
183976
182085
179185
176408
-12.7668
-13.08
-13.7375
-14.3812
-15.1824
-16.1209
-17.1507
-18.2427
-19.3731
-20.5179
-21.6525
-22.7504
-23.7838
-24.7318
-25.5835
-26.3363
-26.9968
-27.5771
-28.0966
-28.5826
-29.0636
-29.5688
-30.1236
-30.7511
-31.4701
-32.2959
-33.2374
-34.3015
-35.4905
-36.8037
-38.2394
-39.7912
-41.4477
-43.1934
-45.0116
-46.8801
-48.7674
-50.6323
-52.4257
-54.0897
-55.5574
-56.7529
-57.6003
-58.0293
-57.9712
13781.3
14572.7
13340.2
13057
13054.9
13057.8
13065.4
13159.8
13101.7
12965.2
193731
191752
189416
186162
56864.7
-15.6261
-13.0012
-13.5902
-14.139
-14.8942
-15.7673
-16.7242
-17.7427
-18.8011
-19.8769
-20.9466
-21.9836
-22.9647
-23.8755
-24.7085
-25.4639
-26.1477
-26.7673
-27.3364
-27.8763
-28.4113
-28.9664
-29.5629
-30.2197
-30.9529
-31.7771
-32.7018
-33.7342
-34.877
-36.1294
-37.4895
-38.9524
-40.5082
-42.1421
-43.8391
-45.578
-47.3283
-49.0508
-50.7007
-52.2264
-53.5692
-54.6658
-55.4553
-55.8794
-55.8731
13636.5
13514.3
13022.3
13033.5
13041.7
13048.3
13055.7
13100.7
13105.7
121533
201335
199481
196725
193512
482.65
-12.9365
-13.0057
-13.2117
-13.7762
-14.5079
-15.3442
-16.2538
-17.2196
-18.2214
-19.2387
-20.2494
-21.2299
-22.1629
-23.0398
-23.858
-24.6172
-25.3198
-25.9703
-26.5783
-27.1597
-27.7351
-28.3259
-28.9512
-29.6285
-30.3724
-31.1943
-32.1035
-33.106
-34.2039
-35.3986
-36.687
-38.0637
-39.5214
-41.0466
-42.6257
-44.2383
-45.8559
-47.4423
-48.9569
-50.3529
-51.5793
-52.5871
-53.3305
-53.7709
-53.8558
14314.1
13079.3
13020.1
13025.4
13032.6
13040.6
13066.8
13068.4
12968.9
211304
209418
207124
203991
159191
-24.9891
-10.8478
-12.3399
-12.735
-13.3333
-14.061
-14.8768
-15.7564
-16.6832
-17.6381
-18.6029
-19.5562
-20.4827
-21.3728
-22.2241
-23.0308
-23.7901
-24.5038
-25.1753
-25.8119
-26.4254
-27.0327
-27.6516
-28.298
-28.9876
-29.7337
-30.5483
-31.4409
-32.4154
-33.4719
-34.6118
-35.8315
-37.1259
-38.4889
-39.9095
-41.3744
-42.8643
-44.354
-45.8104
-47.1957
-48.4678
-49.5839
-50.5062
-51.2053
-51.6707
-51.8998
13590.8
13018.1
13015.4
13018.3
13024.5
13032.7
13051.6
13079.3
139708
219267
217406
214684
211319
25767.9
-8.01918
-11.6234
-11.8238
-12.2466
-12.8553
-13.5811
-14.3839
-15.2427
-16.1384
-17.0522
-17.9657
-18.865
-19.7442
-20.6015
-21.4302
-22.2231
-22.9784
-23.6965
-24.3802
-25.0361
-25.6723
-26.3031
-26.9422
-27.6029
-28.2997
-29.0445
-29.8496
-30.7212
-31.6632
-32.6788
-33.7666
-34.9212
-36.1384
-37.4119
-38.7321
-40.0877
-41.4603
-42.8272
-44.1587
-45.4194
-46.5724
-47.5814
-48.4156
-49.0574
-49.5238
-49.9404
15287.9
13012.3
13009.5
13011.4
13016.7
13029
13046
12870.1
229312
227579
225229
222181
219453
-7.1616
-10.5664
-10.9879
-11.2528
-11.7374
-12.3626
-13.0871
-13.8794
-14.7195
-15.5869
-16.4608
-17.3239
-18.1772
-19.0197
-19.8488
-20.6537
-21.431
-22.1779
-22.8946
-23.5842
-24.2514
-24.902
-25.5482
-26.2001
-26.8697
-27.5694
-28.3101
-29.1014
-29.9496
-30.8591
-31.8316
-32.8642
-33.955
-35.1003
-36.2905
-37.5165
-38.7687
-40.0305
-41.2804
-42.4921
-43.6339
-44.6726
-45.5756
-46.3156
-46.8754
-47.2632
-47.5296
12979.1
13454.5
12996.1
13003.8
13010.5
13023.2
13042.9
199986
237647
235666
232943
229715
65078.5
-12.6039
-9.89844
-10.4042
-10.7155
-11.2349
-11.8709
-12.5902
-13.3704
-14.1907
-15.0286
-15.8585
-16.6796
-17.4947
-18.308
-19.1085
-19.8908
-20.6503
-21.3851
-22.0965
-22.786
-23.4579
-24.1162
-24.771
-25.4295
-26.1024
-26.8006
-27.5339
-28.3093
-29.1327
-30.0087
-30.9366
-31.9152
-32.9434
-34.016
-35.1262
-36.2649
-37.4205
-38.5775
-39.7169
-40.8152
-41.8451
-42.7754
-43.5751
-44.2182
-44.6826
-44.9533
-44.9892
12976.9
13038.3
12982.3
13002.9
13002.4
13037.9
66602.4
247783
246007
243579
240635
237851
9.89638
-10.8779
-9.92522
-9.88129
-10.2277
-10.754
-11.3889
-12.0973
-12.8602
-13.6565
-14.4575
-15.2479
-16.0325
-16.8193
-17.6033
-18.377
-19.1366
-19.8773
-20.5984
-21.3008
-21.9855
-22.6565
-23.3167
-23.9742
-24.6342
-25.3059
-25.9988
-26.721
-27.4788
-28.277
-29.119
-30.0037
-30.929
-31.8957
-32.8987
-33.9307
-34.9839
-36.0474
-37.1057
-38.1414
-39.1341
-40.0592
-40.8881
-41.5916
-42.1442
-42.5197
-42.6909
-42.6009
12971.7
12968.6
12979.7
12992.4
13006
12822.2
257952
256260
254109
251456
248418
100839
-14.4729
-9.8009
-9.36162
-9.37801
-9.75356
-10.2906
-10.9194
-11.6118
-12.3509
-13.1143
-13.8748
-14.6312
-15.3886
-16.1471
-16.9032
-17.6508
-18.3876
-19.1095
-19.8153
-20.5057
-21.1819
-21.8474
-22.5047
-23.16
-23.8171
-24.4844
-25.1694
-25.8784
-26.6167
-27.3886
-28.1963
-29.0386
-29.9132
-30.8202
-31.7556
-32.7139
-33.6874
-34.6613
-35.6243
-36.5628
-37.457
-38.2844
-39.0207
-39.6393
-40.1159
-40.4241
-40.5382
-40.4233
12962.8
12966.4
12970.7
12982.3
12962.2
259439
266430
264514
262146
259388
256797
22.622
-9.57106
-9.00099
-8.68595
-8.86837
-9.29177
-9.84244
-10.4633
-11.1353
-11.845
-12.5658
-13.2907
-14.0176
-14.7473
-15.478
-16.2067
-16.929
-17.6426
-18.3444
-19.0329
-19.7089
-20.374
-21.0306
-21.6813
-22.3303
-22.9815
-23.6412
-24.3151
-25.0096
-25.7266
-26.4715
-27.2447
-28.0452
-28.8714
-29.7215
-30.5933
-31.4826
-32.3806
-33.2747
-34.1507
-34.9949
-35.7948
-36.5324
-37.1852
-37.7318
-38.1514
-38.424
-38.5376
-38.4971
12948
12960.8
12972.3
12949.3
247318
276572
274806
272710
270251
267452
99051.3
-12.1074
-8.25282
-8.0261
-8.05448
-8.37127
-8.84512
-9.40473
-10.0148
-10.6659
-11.3385
-12.0216
-12.7109
-13.4087
-14.1092
-14.8117
-15.5131
-16.2101
-16.9004
-17.5804
-18.2505
-18.9106
-19.5619
-20.2071
-20.8474
-21.4868
-22.1291
-22.7777
-23.4377
-24.1148
-24.8101
-25.5272
-26.2656
-27.0257
-27.8057
-28.6027
-29.4157
-30.2402
-31.0677
-31.8885
-32.6885
-33.4526
-34.1663
-34.8184
-35.3948
-35.8802
-36.2593
-36.5213
-36.6702
-36.7292
12922.2
12957.9
12943.2
257049
286689
285041
283192
280990
278449
276307
8.23991
-7.19592
-7.35892
-7.24069
-7.48577
-7.8988
-8.41124
-8.97229
-9.56915
-10.1947
-10.8316
-11.4785
-12.137
-12.8031
-13.4737
-14.1474
-14.8214
-15.493
-16.159
-16.8173
-17.468
-18.1107
-18.7469
-19.378
-20.0047
-20.6315
-21.2609
-21.8957
-22.5395
-23.1963
-23.8685
-24.5567
-25.2609
-25.9821
-26.7174
-27.4656
-28.2242
-28.9879
-29.7508
-30.5037
-31.2339
-31.9288
-32.5756
-33.1608
-33.6714
-34.1018
-34.4457
-34.6971
-34.8561
-34.9242
70039.1
45690.2
298132
296915
295385
293746
291807
289496
286864
47457.7
-9.33098
-6.88936
-6.65431
-6.69286
-7.01629
-7.47564
-7.99801
-8.54799
-9.12475
-9.71881
-10.3269
-10.9438
-11.5704
-12.2042
-12.844
-13.4882
-14.1337
-14.7785
-15.4195
-16.0556
-16.6858
-17.3097
-17.9289
-18.5437
-19.1547
-19.7657
-20.3789
-20.9968
-21.6212
-22.256
-22.9029
-23.5617
-24.2328
-24.9153
-25.6078
-26.31
-27.0176
-27.7257
-28.43
-29.1204
-29.7872
-30.4207
-31.0086
-31.5395
-32.0037
-32.3948
-32.7082
-32.9402
-33.0897
-33.156
425211
425388
425353
425296
425212
425098
424945
424743
424478
424131
423676
423075
422278
421208
419749
417719
414800
410382
403067
389420
424847
425009
424971
424907
424815
424689
424521
424300
424011
423635
423142
422492
421628
420464
418869
416631
413371
408356
400097
385371
424511
424658
424616
424547
424448
424313
424133
423899
423594
423199
422683
422007
421114
419918
418295
416050
412868
408225
401263
390509
424205
424336
424291
424219
424115
423973
423786
423543
423229
422825
422302
421624
420737
419566
418007
415906
413044
409094
403591
395966
423930
424044
423998
423924
423816
423671
423480
423233
422917
422514
421997
421335
420481
419374
417932
416045
413567
410306
406030
400561
423687
423785
423738
423663
423554
423407
423215
422969
422657
422261
421760
421126
420322
419299
417996
416336
414226
411557
408218
404142
423477
423558
423512
423436
423327
423182
422992
422750
422445
422062
421583
420985
420238
419304
418139
416690
414897
412699
410041
406897
423299
423364
423319
423244
423137
422994
422808
422573
422278
421912
421458
420898
420208
419359
418319
417052
415519
413685
411521
409016
423152
423203
423159
423086
422982
422843
422663
422435
422153
421804
421376
420854
420218
419446
418514
417396
416069
414511
412708
410654
423035
423073
423031
422962
422862
422727
422554
422335
422065
421735
421333
420846
420259
419554
418710
417711
416542
415193
413658
411931
422945
422973
422937
422872
422776
422646
422480
422271
422014
421701
421324
420872
420330
419682
418911
418003
416954
415765
414437
412963
422869
422902
422875
422816
422724
422599
422441
422242
421999
421705
421355
420937
420440
419844
419127
418277
417299
416216
415031
413718
422764
422860
422852
422796
422705
422585
422431
422235
421996
421709
421368
420966
420495
419933
419222
415507
402561
376256
334059
262463
-1.60065
127483
127696
122434
114546
104737
93632.7
81264.1
67775.9
53292.9
38127.4
22786.2
7791.45
-4.25608
-4.15771
-4.53925
-4.43532
-3.27513
2.62093
3.04513
-0.229685
0.475825
0.499582
0.477491
0.444188
0.418192
0.401205
0.390802
0.378159
0.34995
0.286167
0.163714
-0.0468845
-0.563339
-0.947719
-1.03928
-0.969557
-0.717512
-0.246068
-0.102338
-0.00867767
0.155497
0.143393
0.12485
0.10622
0.0908987
0.075924
0.0572863
0.0329331
0.00352193
-0.0280725
-0.0516726
-0.0469717
-0.0761589
-0.162894
-0.229935
-0.270073
-0.277235
-0.251208
-0.255646
0.0278732
0.081576
0.0766629
0.0650036
0.0508807
0.0360658
0.0201394
0.00226491
-0.0173741
-0.0376029
-0.0568157
-0.072151
-0.0788274
-0.083639
-0.107971
-0.143157
-0.178189
-0.204857
-0.222156
-0.24233
0.0196923
0.0454904
0.0417673
0.0335777
0.0219954
0.00765859
-0.00853056
-0.0256347
-0.0427024
-0.058952
-0.0736338
-0.0858095
-0.0948168
-0.103567
-0.118051
-0.139043
-0.163799
-0.189106
-0.213831
-0.240479
-0.00893577
0.0136675
0.0106863
0.00408409
-0.00635867
-0.0200735
-0.0356369
-0.0514756
-0.0664945
-0.0801423
-0.0919834
-0.101802
-0.110253
-0.119367
-0.131775
-0.14874
-0.169968
-0.194333
-0.220907
-0.249816
-0.044459
-0.0216609
-0.021059
-0.0260801
-0.0354695
-0.0479648
-0.0620251
-0.0761739
-0.0894523
-0.101475
-0.112005
-0.120984
-0.129171
-0.138202
-0.149916
-0.165627
-0.18576
-0.209848
-0.236925
-0.26619
-0.076516
-0.0533237
-0.0504188
-0.0548902
-0.0636131
-0.0748068
-0.0870637
-0.0993954
-0.111238
-0.122363
-0.132631
-0.141891
-0.150455
-0.159536
-0.170846
-0.18577
-0.204975
-0.22831
-0.254844
-0.283359
-0.0927855
-0.0772271
-0.0759559
-0.0813038
-0.0897182
-0.0997409
-0.110193
-0.120559
-0.130849
-0.14112
-0.151292
-0.161086
-0.170355
-0.179741
-0.190637
-0.204569
-0.222559
-0.244718
-0.270268
-0.297919
-0.0883099
-0.0927315
-0.0985534
-0.10609
-0.114322
-0.122993
-0.131501
-0.139704
-0.148023
-0.156912
-0.166425
-0.17626
-0.186103
-0.196054
-0.206963
-0.220391
-0.237671
-0.258968
-0.283477
-0.310113
-0.0573808
-0.104965
-0.121821
-0.131765
-0.139113
-0.14551
-0.151423
-0.157158
-0.163256
-0.170192
-0.17815
-0.187095
-0.196875
-0.207471
-0.219338
-0.233473
-0.250842
-0.271546
-0.294951
-0.320473
338000
337733
336350
336084
339062
344574
351465
358455
364396
368440
370038
368879
364621
356377
341237
356403
341275
336272
335653
338184
343158
349551
356091
361653
365409
366833
365638
361581
354300
343551
374749
356047
345028
340815
341478
345410
350943
356648
361411
364498
365506
364274
360776
355109
347701
386383
374214
363923
357366
354830
355506
358200
361451
364203
365812
365942
364473
361436
357003
351550
393821
385827
378400
372634
369024
367455
367403
368041
368632
368672
367852
366025
363179
359434
355050
399242
393490
387900
383082
379385
376856
375282
374265
373374
372254
370656
368445
365591
362166
358328
403200
398850
394465
390396
386882
384013
381700
379755
377938
376021
373836
371275
368291
364910
361288
406116
402694
399150
395682
392455
389534
386898
384461
382093
379657
377031
374130
370955
364010
186758
408298
405513
402571
399586
396650
393813
391080
388405
385705
382890
379985
365906
163811
-31.4095
5.57254
409961
407624
405122
402511
399830
397108
394353
391543
388752
341727
89230
-13.708
2.4804
-1.28441
-1.64881
411275
409244
407032
404645
402118
399525
387920
249742
532.674
-0.418884
3.23666
-1.35671
-1.58252
-1.26981
-1.18422
412186
410332
407951
373253
238257
19275.6
-20.1029
6.02044
0.449958
-1.72114
-1.07088
-0.969903
-1.0181
-1.0702
-1.11997
153163
33403.8
-17.7971
-1.0473
3.38948
0.771974
-1.9203
-1.03306
-0.773653
-0.826139
-0.837408
-0.889892
-0.949598
-1.01285
-1.08239
1.90255
0.802397
-1.48683
-1.14483
-0.774177
-0.707968
-0.686721
-0.674478
-0.69586
-0.745616
-0.794181
-0.85238
-0.917961
-0.990658
-1.0703
-0.344053
-0.389927
-0.405024
-0.489164
-0.51078
-0.559595
-0.586737
-0.619562
-0.661088
-0.714107
-0.773875
-0.839208
-0.909223
-0.982435
-1.05969
-0.308962
-0.344309
-0.37521
-0.418975
-0.458579
-0.503523
-0.548377
-0.596715
-0.649556
-0.70734
-0.767881
-0.830727
-0.897903
-0.970429
-1.04768
-0.275373
-0.314605
-0.354694
-0.398428
-0.443291
-0.490824
-0.540555
-0.592279
-0.645718
-0.701907
-0.761372
-0.823417
-0.888369
-0.957861
-1.03289
-0.272734
-0.311926
-0.353742
-0.397762
-0.44328
-0.490317
-0.539363
-0.590774
-0.643842
-0.698592
-0.755816
-0.815844
-0.878984
-0.946017
-1.01816
-0.282554
-0.32092
-0.36133
-0.403615
-0.447793
-0.493613
-0.540999
-0.590191
-0.641475
-0.695065
-0.751258
-0.809881
-0.871027
-0.935565
-1.00437
-0.298134
-0.334412
-0.372145
-0.411746
-0.453654
-0.497708
-0.543522
-0.591122
-0.641017
-0.693483
-0.748763