/*--------------------------------*- C++ -*----------------------------------*\
| =========                 |                                                 |
| \\      /  F ield         | OpenFOAM: The Open Source CFD Toolbox           |
|  \\    /   O peration     | Version:  v1912                                 |
|   \\  /    A nd           | Website:  www.openfoam.com                      |
|    \\/     M anipulation  |                                                 |
\*---------------------------------------------------------------------------*/
FoamFile
{
    version     2.0;
    format      ascii;
    class       surfaceScalarField;
    location    "30";
    object      phi;
}
// * * * * * * * * * * * * * * * * * * * * * * * * * * * * * * * * * * * * * //

dimensions      [0 3 -1 0 0 0 0];
oriented        oriented;


internalField   nonuniform List<scalar> 
40282
(
0.00280171
0.00266456
1.91882
-1.92551
1.91998
0.00552929
-1.91098
1.89879
0.0121903
-1.8836
1.86546
0.0181401
-1.84445
1.82056
0.0238894
-1.79396
1.7646
0.0293609
-1.73262
1.69799
0.0346328
-1.66087
1.62122
0.0396539
-1.5792
1.53475
0.0444506
-1.48807
1.43912
0.0489542
-1.38807
1.33487
0.0532028
-1.27971
1.22259
0.0571282
-1.16361
1.10294
0.0606625
-1.0405
0.976659
0.0638422
-0.911044
0.844364
0.0666799
-0.775892
0.706626
0.0692657
-0.635512
0.563569
0.0719423
-0.489512
0.414061
0.0754507
-0.3364
0.255355
0.0810444
-0.17353
0.0793804
0.0941492
-0.00420419
0.00559888
1.85395
-1.84961
1.8427
-0.0141161
0.0210227
-1.83303
1.82058
-0.0256011
0.0380552
-1.80534
1.78735
-0.0368912
0.054877
-1.76665
1.74328
-0.0479566
0.0713312
-1.71726
1.68865
-0.0587442
0.0873605
-1.65746
1.62376
-0.0691923
0.102897
-1.58757
1.54895
-0.0792382
0.117851
-1.50796
1.46466
-0.0888551
0.132157
-1.41909
1.37131
-0.0979977
0.145769
-1.32139
1.26937
-0.106632
0.158646
-1.21532
1.15929
-0.1147
0.170731
-1.10133
1.0415
-0.122134
0.181962
-0.979882
0.916504
-0.128885
0.192263
-0.851484
0.784842
-0.1349
0.201541
-0.716738
0.647171
-0.140166
0.209733
-0.576359
0.504303
-0.144853
0.216909
-0.431326
0.357446
-0.149428
0.223309
-0.28321
0.20905
-0.155099
0.229259
-0.134894
0.0635932
-0.166917
0.238218
-0.00701294
0.00835077
1.78754
-1.78334
1.77652
-0.0281659
0.034979
-1.76707
1.75498
-0.0506774
0.0627646
-1.74027
1.72294
-0.0729197
0.0902473
-1.70301
1.68049
-0.0947278
0.117247
-1.65541
1.6278
-0.115987
0.143592
-1.59771
1.56517
-0.136601
0.169141
-1.53023
1.49292
-0.156457
0.193759
-1.45332
1.41146
-0.175451
0.217306
-1.36742
1.32126
-0.193514
0.239676
-1.27304
1.22285
-0.210599
0.26079
-1.17075
1.11682
-0.22665
0.280587
-1.06111
1.0037
-0.241617
0.299033
-0.94463
0.883961
-0.255438
0.316107
-0.821738
0.757999
-0.267965
0.331704
-0.692787
0.626131
-0.278924
0.34558
-0.558066
0.488635
-0.287971
0.357402
-0.417943
0.346172
-0.294943
0.366714
-0.27367
0.200746
-0.299836
0.372759
-0.127925
0.0574541
-0.308131
0.378602
-0.00963284
0.0109096
1.72352
-1.71966
1.71324
-0.0416841
0.0481077
-1.70426
1.69273
-0.0748085
0.0863346
-1.67867
1.66209
-0.107543
0.124121
-1.64302
1.62146
-0.139714
0.161273
-1.59744
1.57099
-0.171137
0.197588
-1.54213
1.5109
-0.201643
0.232874
-1.47733
1.44146
-0.231061
0.266935
-1.40332
1.36298
-0.259212
0.299557
-1.32047
1.27587
-0.285944
0.33055
-1.22923
1.18062
-0.311131
0.359734
-1.13014
1.07786
-0.33467
0.386946
-1.02389
0.968308
-0.356522
0.412102
-0.911216
0.852697
-0.376703
0.435222
-0.792826
0.731666
-0.395171
0.456332
-0.669262
0.605642
-0.411664
0.475284
-0.540813
0.474761
-0.425535
0.491587
-0.407467
0.338957
-0.435761
0.504271
-0.269326
0.198727
-0.44135
0.511949
-0.127608
0.0578187
-0.44728
0.517069
-0.0121285
0.0133334
1.6618
-1.65815
1.65206
-0.054478
0.0605636
-1.64355
1.63262
-0.0977779
0.108712
-1.61927
1.60353
-0.14059
0.156333
-1.5854
1.5649
-0.182701
0.203199
-1.54205
1.51687
-0.223893
0.249077
-1.48937
1.45959
-0.263954
0.293735
-1.42755
1.39328
-0.302663
0.336931
-1.35682
1.31821
-0.339777
0.378392
-1.27748
1.23469
-0.37507
0.417862
-1.18988
1.14312
-0.408314
0.455073
-1.09448
1.04403
-0.439281
0.489735
-0.991849
0.938043
-0.467819
0.521625
-0.88271
0.825957
-0.493912
0.550665
-0.76789
0.708608
-0.517617
0.576898
-0.648199
0.586729
-0.538872
0.600342
-0.524247
0.460775
-0.557159
0.620631
-0.396305
0.330793
-0.571069
0.636582
-0.264151
0.196323
-0.578809
0.646637
-0.1274
0.0590872
-0.58416
0.652472
-0.0144786
0.0156043
1.6024
-1.5988
1.59308
-0.066579
0.0722962
-1.58508
1.5748
-0.119523
0.129803
-1.56225
1.54742
-0.171909
0.186731
-1.53034
1.511
-0.223497
0.242832
-1.48943
1.46562
-0.274039
0.297845
-1.4396
1.41138
-0.323287
0.351508
-1.38098
1.34842
-0.370976
0.403535
-1.31373
1.27693
-0.416805
0.453599
-1.23807
1.19718
-0.460487
0.501381
-1.15429
1.10947
-0.501714
0.546536
-1.06277
1.01424
-0.540144
0.588673
-0.963956
0.912005
-0.575483
0.627435
-0.858474
0.803464
-0.607577
0.662587
-0.747087
0.689458
-0.636421
0.694051
-0.63069
0.570888
-0.662068
0.721871
-0.510141
0.448521
-0.68423
0.74585
-0.386072
0.32279
-0.701566
0.764848
-0.258564
0.193207
-0.71201
0.777367
-0.126394
0.0602295
-0.718075
0.78424
-0.0166673
0.0177042
1.54481
-1.54178
1.53647
-0.0779166
0.0832246
-1.52904
1.51948
-0.139915
0.149472
-1.5078
1.494
-0.201324
0.21513
-1.47807
1.46001
-0.26189
0.279945
-1.43983
1.41754
-0.321343
0.34364
-1.39312
1.36659
-0.379408
0.405935
-1.33796
1.30724
-0.43578
0.466504
-1.27444
1.23957
-0.490107
0.52497
-1.20267
1.16376
-0.542036
0.58095
-1.12286
1.08002
-0.591185
0.634024
-1.03528
0.988697
-0.637115
0.683702
-0.940319
0.890217
-0.679403
0.729505
-0.83847
0.785166
-0.71774
0.771043
-0.730408
0.67431
-0.75196
0.808058
-0.616995
0.55859
-0.78207
0.840476
-0.499215
0.438978
-0.807921
0.868158
-0.377964
0.31621
-0.828395
0.890149
-0.253654
0.190105
-0.8416
0.905149
-0.124703
0.0611989
-0.849126
0.91263
-0.018675
0.0196124
1.48964
-1.48688
1.48203
-0.0884034
0.0932539
-1.47523
1.46648
-0.158804
0.167554
-1.45578
1.4431
-0.228628
0.241302
-1.42845
1.41182
-0.297625
0.314258
-1.39319
1.37256
-0.36552
0.386151
-1.34992
1.32525
-0.432023
0.456689
-1.29856
1.26983
-0.496796
0.525523
-1.23907
1.20628
-0.559436
0.592224
-1.17147
1.13465
-0.619528
0.656347
-1.09584
1.05506
-0.676611
0.717391
-1.01234
0.967726
-0.730145
0.774764
-0.921252
0.872979
-0.77959
0.827863
-0.82297
0.771304
-0.824479
0.876146
-0.71807
0.663377
-0.864457
0.91915
-0.607349
0.550123
-0.899362
0.956588
-0.491844
0.432654
-0.929041
0.988231
-0.372677
0.311994
-0.952585
1.01327
-0.250586
0.188333
-0.968421
1.03067
-0.123594
0.062558
-0.977979
1.03902
-0.0204797
0.0213056
1.43634
-1.4337
1.42936
-0.0979395
0.102277
-1.42327
1.41543
-0.176016
0.183861
-1.40581
1.39441
-0.253581
0.264987
-1.38119
1.36615
-0.33041
0.345453
-1.34925
1.33048
-0.406241
0.425012
-1.30981
1.28721
-0.480785
0.503384
-1.26266
1.23614
-0.553683
0.580202
-1.20763
1.17712
-0.624485
0.655
-1.14459
1.11004
-0.692714
0.727267
-1.07346
1.03487
-0.757826
0.796419
-0.994272
0.951693
-0.819176
0.861755
-0.907163
0.860722
-0.876093
0.922535
-0.812421
0.762323
-0.927955
0.978053
-0.710509
0.657076
-0.974198
1.02763
-0.602145
0.545859
-1.01442
1.0707
-0.48838
0.429882
-1.04832
1.10682
-0.370538
0.310493
-1.07516
1.13521
-0.249803
0.188513
-1.09379
1.15508
-0.123821
0.0649461
-1.10525
1.16412
-0.0220572
0.0227591
1.38509
-1.38278
1.37902
-0.106411
0.110177
-1.37373
1.36689
-0.19135
0.198187
-1.35849
1.34849
-0.275903
0.285896
-1.33688
1.32361
-0.359896
0.373167
-1.30864
1.29194
-0.443104
0.459803
-1.27347
1.25317
-0.52526
0.545555
-1.23101
1.20695
-0.605997
0.630063
-1.18093
1.15293
-0.684831
0.71283
-1.12292
1.09085
-0.761224
0.793291
-1.05671
1.02048
-0.834548
0.870777
-0.982154
0.941729
-0.904042
0.944468
-0.899215
0.854635
-0.968893
1.01347
-0.808022
0.759424
-1.02831
1.0769
-0.708906
0.656555
-1.08149
1.13384
-0.602483
0.546833
-1.12773
1.18338
-0.489782
0.431532
-1.1665
1.22475
-0.372302
0.312309
-1.19708
1.25707
-0.251694
0.190778
-1.21876
1.27968
-0.125033
0.0680759
-1.23222
1.28918
-0.0233828
0.0239486
1.33552
-1.33359
1.33046
-0.113698
0.116832
-1.32604
1.32032
-0.204596
0.210317
-1.31326
1.30484
-0.295295
0.30372
-1.295
1.2837
-0.385704
0.397002
-1.27089
1.25651
-0.475662
0.490044
-1.2405
1.22278
-0.564948
0.582659
-1.20331
1.182
-0.653211
0.674517
-1.1588
1.13364
-0.739949
0.765113
-1.10645
1.07718
-0.824572
0.853842
-1.04577
1.01219
-0.906372
0.939958
-0.97638
0.938324
-0.984469
1.02252
-0.898001
0.855406
-1.05789
1.10049
-0.810547
0.763451
-1.12564
1.17274
-0.714162
0.66275
-1.18667
1.23809
-0.609314
0.553994
-1.23993
1.29524
-0.496976
0.438489
-1.28447
1.34296
-0.378803
0.31822
-1.31952
1.3801
-0.256987
0.195803
-1.34472
1.4059
-0.127792
0.0727048
-1.36059
1.41568
-0.0244331
0.0248523
1.28782
-1.28611
1.28366
-0.119682
0.122129
-1.2802
1.2757
-0.215536
0.22004
-1.27011
1.26341
-0.311445
0.318151
-1.25552
1.2464
-0.407426
0.416547
-1.23598
1.22417
-0.503414
0.515221
-1.2109
1.19608
-0.599266
0.614085
-1.17962
1.16143
-0.694679
0.712868
-1.14142
1.11948
-0.789156
0.811096
-1.09552
1.06945
-0.882083
0.90815
-1.04118
1.01063
-0.972681
1.00323
-0.97772
0.942377
-1.05996
1.0953
-0.904546
0.864184
-1.14278
1.18314
-0.821263
0.775774
-1.21991
1.2654
-0.72773
0.677171
-1.29002
1.34058
-0.624177
0.568876
-1.35162
1.40692
-0.511454
0.452171
-1.40327
1.46255
-0.391357
0.32943
-1.4439
1.50582
-0.266797
0.204688
-1.47346
1.53557
-0.133325
0.0801244
-1.4923
1.5455
-0.0251886
0.0254535
1.24197
-1.2407
1.23899
-0.124254
0.125969
-1.23655
1.23334
-0.223974
0.227175
-1.22934
1.22449
-0.324054
0.32891
-1.21872
1.21196
-0.424656
0.431414
-1.20413
1.19515
-0.525842
0.534826
-1.18491
1.1733
-0.627583
0.639189
-1.16022
1.14553
-0.729663
0.744346
-1.12913
1.11087
-0.831632
0.849891
-1.09063
1.06827
-0.932886
0.955244
-1.04366
1.01668
-1.03262
1.0596
-0.987181
0.955058
-1.12974
1.16187
-0.920196
0.882495
-1.22297
1.26067
-0.841872
0.798263
-1.31083
1.35444
-0.751628
0.70196
-1.39165
1.44132
-0.649296
0.593731
-1.46343
1.519
-0.535439
0.474699
-1.52406
1.5848
-0.411905
0.347618
-1.57195
1.63624
-0.282485
0.218396
-1.60724
1.67133
-0.142294
0.0907612
-1.62999
1.68152
-0.025636
0.0257428
1.19744
-1.1968
1.19585
-0.127331
0.128285
-1.19447
1.19263
-0.229747
0.231585
-1.19029
1.18739
-0.332871
0.335774
-1.18386
1.17962
-0.437031
0.441269
-1.17459
1.16865
-0.542449
0.54838
-1.16171
1.15364
-0.649252
0.657329
-1.14429
1.13353
-0.757357
0.768116
-1.12121
1.10715
-0.866417
0.88047
-1.0912
1.07318
-0.975896
0.993916
-1.05291
1.0302
-1.08502
1.10773
-1.00487
0.976717
-1.19268
1.22083
-0.945572
0.911255
-1.29746
1.33178
-0.873601
0.832462
-1.39771
1.43885
-0.787713
0.739262
-1.49137
1.53982
-0.687065
0.631147
-1.57585
1.63177
-0.571632
0.508784
-1.64814
1.71099
-0.44304
0.37512
-1.70577
1.77369
-0.305994
0.238265
-1.74868
1.81641
-0.15552
0.104659
-1.77664
1.8275
-0.0257702
0.0257204
1.15475
-1.15458
1.1544
-0.128863
0.129047
-1.1541
1.15364
-0.232752
0.233204
-1.153
1.1521
-0.337714
0.338612
-1.15088
1.14926
-0.444259
0.445877
-1.14715
1.14445
-0.552797
0.555504
-1.14102
1.13674
-0.663651
0.667927
-1.13147
1.12503
-0.776921
0.783358
-1.11726
1.10796
-0.892431
0.901729
-1.09693
1.08397
-1.00979
1.02276
-1.06883
1.05127
-1.12836
1.14591
-1.03105
1.0079
-1.2471
1.27025
-0.981541
0.951702
-1.36462
1.39446
-0.918105
0.880479
-1.47913
1.51676
-0.838565
0.792129
-1.58829
1.63472
-0.740983
0.68501
-1.68888
1.74485
-0.624209
0.558764
-1.77675
1.8422
-0.48911
0.416136
-1.84802
1.92099
-0.341265
0.268014
-1.90194
1.97519
-0.176895
0.12629
-1.9376
1.9882
-0.0255967
0.0253971
1.11354
-1.11364
1.11421
-0.128846
0.128276
-1.11496
1.11588
-0.232963
0.23205
-1.11691
1.118
-0.338507
0.337411
-1.1191
1.12013
-0.446176
0.44515
-1.121
1.1216
-0.55658
0.555975
-1.12183
1.12154
-0.670269
0.670557
-1.12059
1.1188
-0.78758
0.789364
-1.116
1.11198
-0.908575
0.912598
-1.10651
1.09935
-1.03311
1.04027
-1.09023
1.07886
-1.16078
1.17215
-1.06491
1.04806
-1.29081
1.30766
-1.02793
1.00413
-1.42201
1.44581
-0.97625
0.943844
-1.55269
1.5851
-0.906467
0.863666
-1.68045
1.72325
-0.815006
0.760103
-1.80159
1.85649
-0.698688
0.630698
-1.91067
1.97866
-0.556415
0.476808
-2.00173
2.08134
-0.393764
0.312265
-2.07235
2.15385
-0.209177
0.160674
-2.12109
2.16959
-0.0251315
0.0247939
1.0738
-1.07452
1.0758
-0.127328
0.126047
-1.07755
1.07976
-0.230448
0.228237
-1.0824
1.08541
-0.335305
0.332294
-1.08875
1.09235
-0.442778
0.439175
-1.09614
1.10003
-0.553674
0.549782
-1.10392
1.10768
-0.668787
0.665025
-1.11118
1.11425
-0.788724
0.785652
-1.11672
1.11838
-0.913843
0.912184
-1.119
1.11834
-1.04433
1.045
-1.1161
1.11196
-1.18018
1.18432
-1.10557
1.09652
-1.32105
1.3301
-1.08437
1.06862
-1.46624
1.48199
-1.04871
1.02402
-1.61456
1.63924
-0.993878
0.957528
-1.76403
1.80037
-0.914172
0.862983
-1.91103
1.96222
-0.803171
0.734107
-2.04918
2.11825
-0.655521
0.568038
-2.16986
2.25735
-0.4737
0.379118
-2.2673
2.36188
-0.256945
0.210783
-2.34106
2.38722
-0.0244006
0.0239416
1.03535
-1.03645
1.03837
-0.124406
0.122483
-1.04104
1.04443
-0.225366
0.221972
-1.04853
1.05331
-0.328304
0.323527
-1.05873
1.06474
-0.434252
0.428241
-1.07129
1.07831
-0.544195
0.537171
-1.08573
1.09344
-0.659159
0.651449
-1.10133
1.10927
-0.780033
0.772096
-1.1171
1.12464
-0.907506
0.899962
-1.13169
1.13802
-1.04216
1.03583
-1.14335
1.14737
-1.18447
1.18045
-1.14973
1.15001
-1.33475
1.33447
-1.14772
1.14232
-1.49307
1.49846
-1.13316
1.11948
-1.65924
1.67292
-1.1004
1.07488
-1.83255
1.85807
-1.0417
0.999446
-2.01069
2.05294
-0.946543
0.88133
-2.18783
2.25304
-0.802284
0.708696
-2.35347
2.44706
-0.601606
0.48784
-2.49606
2.60982
-0.340997
0.285929
-2.61283
2.6679
-0.0234382
0.0228774
0.998359
-0.999984
1.00246
-0.12023
0.11775
-1.00592
1.01035
-0.21797
0.213544
-1.01573
1.02206
-0.317841
0.311508
-1.02932
1.03749
-0.420985
0.412821
-1.04653
1.0564
-0.528523
0.518651
-1.06706
1.07844
-0.641682
0.630302
-1.09046
1.10304
-0.761606
0.749027
-1.11606
1.1294
-0.889299
0.875964
-1.14289
1.15636
-1.02574
1.01228
-1.16959
1.18232
-1.17196
1.15922
-1.19426
1.20504
-1.32896
1.31818
-1.21424
1.22135
-1.49784
1.49073
-1.22575
1.22668
-1.67986
1.67892
-1.22322
1.2142
-1.87644
1.88547
-1.19814
1.17319
-2.08844
2.11339
-1.137
1.08667
-2.31394
2.36427
-1.01874
0.929592
-2.5454
2.63455
-0.816439
0.682091
-2.7684
2.90275
-0.506918
0.428657
-2.97742
3.05568
-0.0222843
0.0216428
0.96283
-0.96455
0.967487
-0.114979
0.112042
-0.971593
0.976871
-0.20858
0.203302
-0.983324
0.990954
-0.304364
0.296734
-0.999761
1.00974
-0.403536
0.393554
-1.0209
1.03322
-0.507296
0.494978
-1.04668
1.06128
-0.617011
0.602416
-1.07697
1.09372
-0.734021
0.717274
-1.11146
1.13015
-0.859583
0.840898
-1.14969
1.16998
-0.995016
0.974726
-1.19089
1.21228
-1.1418
1.12041
-1.23395
1.25568
-1.30162
1.27989
-1.27719
1.29814
-1.47653
1.45558
-1.31811
1.33655
-1.66933
1.65088
-1.3528
1.36594
-1.884
1.87086
-1.37476
1.37759
-2.12599
2.12315
-1.37214
1.35514
-2.40132
2.41832
-1.3221
1.26683
-2.71502
2.77029
-1.1817
1.05489
-3.07164
3.19846
-0.880043
0.795355
-3.49049
3.57518
0.0170028
-0.0475191
0.0305163
-0.0453169
0.0528286
-0.00751177
-0.044729
0.0207576
0.0239714
0.021112
-0.0843735
0.0632615
0.164891
-0.221374
0.0564831
0.194912
-0.0645284
-0.130383
-0.24081
0.0486725
0.192137
0.451147
-0.629187
0.178039
0.730284
-0.742029
0.0117452
0.599516
-0.579954
-0.0195616
0.527665
-0.501221
-0.0264446
0.81075
-1.25451
0.443763
1.56453
-1.7351
0.170565
1.75555
-1.71895
-0.0365999
1.63146
-1.52237
-0.109083
1.51066
-1.59851
0.0878511
1.7022
-1.74342
0.0412188
1.75795
-1.73839
-0.0195633
1.63834
-1.57271
-0.0656234
1.61676
-1.68043
0.0636684
1.59299
-1.08357
-0.509412
-0.190974
1.53508
-1.34411
-2.5764
3.37174
-0.795348
-4.01232
4.5293
-0.516985
-4.94311
5.27298
-0.329867
-5.5256
5.70337
-0.177767
-5.83365
5.94418
-0.110533
-6.0456
6.13571
-0.0901046
-6.20291
6.23246
-0.0295455
-6.22632
6.2087
0.0176227
-6.20471
6.20713
-0.00242166
-6.20325
6.18939
0.0138655
-6.16418
6.13739
0.0267988
-6.1182
6.10206
0.0161426
-6.08518
6.08109
0.00408848
-6.10605
6.16247
-0.0564212
-6.22316
6.23589
-0.0127287
-6.17789
6.10798
0.0699027
-6.06121
6.02949
0.0317204
-6.0043
5.98837
0.0159306
-6.01585
6.12075
-0.1049
-6.24484
6.3615
-0.11666
-6.41915
6.52921
-0.110067
-6.6444
6.75546
-0.111059
-6.86746
6.97949
-0.11203
-7.07109
7.11606
-0.0449713
-7.0925
7.00712
0.0853799
-6.87378
6.77862
0.0951601
-6.75087
6.73308
0.017784
-6.67785
6.57959
0.0982627
-6.49663
6.49897
-0.00234889
-6.52797
6.54693
-0.0189575
-6.56663
6.58482
-0.0181894
-6.59212
6.60423
-0.0121136
-6.67519
6.74666
-0.0714693
-6.82613
6.8951
-0.0689726
-7.00809
7.2495
-0.241404
-7.36925
7.75551
-0.386264
-7.96137
7.54287
0.418499
-8.3093
8.78421
-0.474904
0.0739374
-0.0948151
0.0208777
-0.0290766
0.0293652
0.0101768
-0.0104655
-0.0278113
0.0238602
-0.034526
0.0384771
-0.0180998
0.0144617
-0.0828767
0.0865148
-0.01348
0.00756236
-0.0816525
0.0875701
0.00814386
-0.0304027
0.159354
-0.137096
0.0733748
0.0740979
0.278908
-0.426381
-0.545692
1.1787
-0.454276
-0.178729
-1.55145
0.867255
-0.826014
1.5102
-0.125339
-0.0374686
0.21281
-0.0500026
0.154559
-0.137016
0.0568745
-0.0744183
0.196122
-0.502033
-0.842421
1.14833
0.933942
-1.25932
-0.408641
0.73402
1.46602
-1.57059
0.00174904
0.102819
1.60163
-1.58807
0.159322
-0.172878
1.55306
-1.52038
-0.0827803
0.0500984
1.49155
-1.47015
-0.0514149
0.0300145
1.48438
-1.52053
0.0208041
0.0153415
1.51788
-1.44386
0.152264
-0.226291
1.28822
-1.00457
0.109848
-0.393498
0.49116
0.11759
0.932317
-1.54107
-0.942218
1.82574
2.43772
-3.32124
-2.64007
3.34263
1.55363
-2.25619
-3.93124
4.4258
1.02298
-1.51754
-4.84321
5.19287
0.671162
-1.02082
-5.48403
5.72639
0.40209
-0.644454
-5.92303
6.07725
0.251513
-0.405734
-6.19655
6.29001
0.182303
-0.27577
-6.36793
6.43704
0.0950003
-0.164108
-6.49141
6.52412
0.00889771
-0.0416129
-6.53414
6.53117
-0.00690433
0.00987613
-6.52488
6.51639
-0.0298024
0.0382855
-6.50765
6.49387
-0.0524295
0.0662006
-6.47903
6.46959
-0.0177353
0.0271759
-6.46687
6.46919
0.0201879
-0.0225054
-6.47719
6.48043
0.02839
-0.0316297
-6.47078
6.4533
0.00309113
0.0143859
-6.44303
6.42441
-0.0933235
0.111937
-6.39309
6.34585
-0.0804307
0.127675
-6.31375
6.31663
-0.0286253
0.0257454
-6.3708
6.42601
0.114257
-0.169468
-6.46256
6.49565
0.223636
-0.256729
-6.55044
6.59729
0.182601
-0.229446
-6.63682
6.66905
0.163685
-0.195915
-6.69153
6.7049
0.124197
-0.137573
-6.71475
6.72869
0.0281547
-0.0420986
-6.75062
6.7796
-0.0651732
0.0361921
-6.8094
6.82226
-0.0609101
0.0480465
-6.81822
6.80861
-0.0409124
0.0505261
-6.80943
6.81946
-0.0952401
0.0852149
-6.82743
6.81825
-0.0124074
0.0215862
-6.80622
6.79937
0.0202939
-0.0134425
-6.79555
6.79658
0.0225352
-0.0235609
-6.80391
6.81492
0.0484385
-0.0594557
-6.82831
6.86583
0.114527
-0.152044
-6.92438
7.00313
0.137292
-0.21604
-7.09079
7.16364
0.312037
-0.384887
-7.31838
7.35313
0.373407
-0.408161
-7.07932
7.49432
-0.230295
-0.184708
-7.10247
7.20656
0.158211
-0.262301
0.111097
-0.123922
0.0128254
-0.0176939
0.0156863
0.00973585
-0.00772826
-0.0141092
0.0140343
-0.0393207
0.0393955
-0.0151785
0.0212728
-0.0836292
0.0775349
-0.0312934
0.0383163
-0.0846534
0.0776305
-0.0293835
-0.00286891
0.10438
-0.0721275
0.0715268
-0.141996
0.406958
-0.336488
0.145321
-0.146658
0.378591
-0.377254
0.00426511
0.715219
-1.1861
0.466615
-0.693059
0.311096
-0.149521
0.531484
-0.345911
0.263664
0.0234955
0.0587517
-0.272132
0.201016
-1.34632
1.41743
0.15854
-0.589852
-1.12878
1.56009
0.993625
-1.28082
-0.289506
0.5767
1.42575
-1.49642
0.146922
-0.0762527
1.53468
-1.53696
-0.0219504
0.0242339
1.49098
-1.38387
0.025444
-0.132552
1.1779
-0.757663
-0.101511
-0.318726
1.18362
-2.23369
0.25384
0.796231
2.69438
-2.82455
0.623614
-0.493438
1.3291
1.29359
2.34597
-4.96866
-2.19695
2.67601
3.97545
-4.4545
-3.15799
3.65871
2.85721
-3.35792
-4.13401
4.56439
1.98128
-2.41166
-4.94472
5.2761
1.36242
-1.69381
-5.56103
5.80158
0.887776
-1.12833
-5.99921
6.15628
0.562957
-0.720022
-6.27657
6.3665
0.36761
-0.457537
-6.43336
6.48454
0.222363
-0.27354
-6.52514
6.55573
0.0758684
-0.10646
-6.57404
6.58161
-0.00559294
-0.0019744
-6.58247
6.57997
-0.0435078
0.0460097
-6.57747
6.57773
-0.0680979
0.0678373
-6.5769
6.57403
-0.0325171
0.0353884
-6.57004
6.56578
0.0209773
-0.0167129
-6.56118
6.55629
0.0292264
-0.024339
-6.55112
6.54396
-0.025641
0.0328008
-6.54051
6.54525
-0.12542
0.120677
-6.55221
6.5637
-0.120047
0.108556
-6.57816
6.59549
-0.00747473
-0.00985685
-6.60491
6.609
0.180985
-0.18507
-6.61447
6.62299
0.272348
-0.280869
-6.63987
6.66005
0.259803
-0.27998
-6.67995
6.69829
0.219238
-0.237578
-6.71545
6.73325
0.153817
-0.171621
-6.75402
6.77783
0.0638043
-0.087617
-6.8033
6.82608
-0.0106419
-0.0121439
-6.84453
6.85511
-0.0379009
0.0273188
-6.861
6.86618
-0.0510704
0.0458935
-6.87598
6.8873
-0.0739517
0.0626376
-6.89218
6.88646
-0.0285728
0.0343007
-6.87565
6.86339
0.00271064
0.0095461
-6.84959
6.83631
0.016814
-0.00353455
-6.82475
6.81431
0.0592345
-0.048794
-6.80494
6.80418
0.167141
-0.166377
-6.81491
6.83339
0.262444
-0.280928
-6.84727
6.83354
0.405448
-0.391712
-6.80891
6.75925
0.383864
-0.334204
-6.70393
6.67053
0.170968
-0.137571
-6.41123
6.19482
0.141983
0.0744316
0.134196
-0.136388
0.00219144
-0.00734271
0.00197341
0.00421858
0.00115072
0.00270383
-0.00451596
-0.0405067
0.0423189
0.00127445
0.00583518
-0.0704789
0.0633692
-0.014856
0.0217853
-0.0698519
0.0629227
-0.0180471
-0.00327937
0.0451898
-0.0238634
0.0485827
-0.110123
0.264583
-0.203042
0.164876
-0.216782
0.321763
-0.269857
0.213499
-0.0882643
-0.206838
0.0816034
-0.14978
0.318348
-0.376907
0.208339
-0.368385
0.391449
-0.0918083
0.0687448
-0.469348
0.601123
-1.37337
1.2416
-0.559332
0.274085
-1.9524
2.23765
0.198853
-0.731036
-0.973901
1.50608
1.03416
-1.14558
-0.0276221
0.139042
1.19435
-1.32195
-0.111873
0.239477
1.3368
-1.03354
0.386361
-0.689617
0.332062
0.619523
0.929596
-1.88118
-0.91738
-0.0973567
-1.98977
3.00451
0.28407
1.71134
2.04894
-4.04435
-2.68723
2.96805
5.82096
-6.10177
-3.23118
3.51609
4.82254
-5.10745
-3.82759
4.17017
3.76486
-4.10743
-4.52351
4.86961
2.79517
-3.14127
-5.19157
5.48154
2.00315
-2.29311
-5.73418
5.9486
1.35591
-1.57033
-6.12426
6.26325
0.868718
-1.00772
-6.36845
6.44494
0.541251
-0.617742
-6.4981
6.5347
0.316949
-0.353541
-6.56085
6.58036
0.131415
-0.150925
-6.59355
6.60064
0.0100141
-0.0171039
-6.60307
6.603
-0.0468422
0.046909
-6.60284
6.60376
-0.0669644
0.0660499
-6.60431
6.60319
-0.0372317
0.0383539
-6.6002
6.59597
0.0117826
-0.00754673
-6.59171
6.58887
0.0197676
-0.0169252
-6.58865
6.59257
-0.0340607
0.030139
-6.60322
6.61984
-0.108857
0.092232
-6.63873
6.65803
-0.0925714
0.073276
-6.67662
6.69266
0.0256144
-0.041659
-6.70206
6.70552
0.187899
-0.191356
-6.70693
6.70972
0.285322
-0.288106
-6.71636
6.72615
0.293487
-0.303276
-6.7374
6.74963
0.252234
-0.264471
-6.76353
6.78048
0.189178
-0.206127
-6.8011
6.82399
0.111057
-0.13394
-6.84666
6.86622
0.0328152
-0.0523833
-6.88206
6.89422
-0.0160613
0.00390656
-6.90519
6.91693
-0.0369852
0.0252416
-6.93076
6.94367
-0.050994
0.0380842
-6.95002
6.94734
-0.0385836
0.0412597
-6.93908
6.9279
-0.0217288
0.0329093
-6.91317
6.89383
-0.0137447
0.0330815
-6.8697
6.8423
0.0293285
-0.001934
-6.81486
6.79277
0.154229
-0.132143
-6.77816
6.76884
0.282997
-0.273668
-6.75855
6.73353
0.368949
-0.343921
-6.69382
6.65391
0.291249
-0.251332
-6.5993
6.54117
0.113851
-0.0557184
-6.49538
6.43911
-0.25343
0.309696
0.129898
-0.12299
-0.00690791
0.00843266
-0.0132177
-0.00678263
0.0115677
0.0170665
-0.0178745
-0.0434662
0.0442742
0.0148452
-0.010845
-0.0572322
0.0532321
0.0058129
-0.00178548
-0.0573385
0.0533111
0.00344485
-0.016183
0.00759993
0.00513824
0.0439703
-0.0853466
0.152618
-0.111242
0.129592
-0.167434
0.227367
-0.189525
0.169087
-0.105644
0.0119314
-0.0753749
-0.00233896
0.104312
-0.0791834
-0.0227894
-0.185231
0.259913
-0.00733219
-0.0673497
-0.374384
0.560015
-1.06372
0.878094
-0.687418
0.660193
-2.41028
2.4375
-0.55855
0.360324
-1.96843
2.16666
0.176572
-0.713945
-0.348118
0.885491
0.744004
-0.647853
-0.216693
0.120542
0.605051
-0.577812
0.756992
-0.784232
0.575648
-0.568207
2.31485
-2.32229
-0.576189
1.17044
-3.25826
2.66401
-3.00579
3.6825
5.41897
-6.09568
-3.79064
3.83343
6.26045
-6.30325
-3.96328
4.15639
5.32989
-5.523
-4.39069
4.65292
4.39857
-4.66079
-4.93387
5.21696
3.44809
-3.73117
-5.48675
5.73107
2.55711
-2.80142
-5.94218
6.11784
1.76433
-1.93999
-6.25794
6.36597
1.131
-1.23903
-6.4452
6.50085
0.683551
-0.739199
-6.53759
6.56102
0.38282
-0.406254
-6.57617
6.58668
0.16512
-0.175627
-6.59402
6.59869
0.0226581
-0.0273246
-6.60123
6.60257
-0.0464584
0.0451191
-6.60389
6.60575
-0.0649536
0.0630933
-6.60761
6.60869
-0.0385826
0.0375059
-6.60878
6.60842
0.00497583
-0.00462223
-6.60891
6.61187
0.0167444
-0.0197097
-6.61892
6.63135
-0.0217442
0.00931541
-6.64958
6.67201
-0.0725381
0.050111
-6.69593
6.71961
-0.0517437
0.0280674
-6.74199
6.76145
0.058905
-0.0783658
-6.77516
6.78239
0.196284
-0.203515
-6.78592
6.78906
0.29057
-0.293709
-6.79401
6.80094
0.310918
-0.317849
-6.80896
6.81785
0.274662
-0.283554
-6.82866
6.84305
0.221727
-0.236119
-6.86161
6.88296
0.155791
-0.177145
-6.90441
6.92328
0.0711314
-0.0899996
-6.93919
6.95323
0.00898873
-0.0230277
-6.96726
6.9827
-0.0115221
-0.00390961
-7.00015
7.01711
-0.0234634
0.0065024
-7.02804
7.02947
-0.0419981
0.0405652
-7.02462
7.01771
-0.0420433
0.0489566
-7.00812
6.99155
-0.0519353
0.0685057
-6.96389
6.92709
-0.0310998
0.0679018
-6.88506
6.84566
0.101442
-0.0620413
-6.81256
6.78632
0.255516
-0.22928
-6.76415
6.73992
0.319601
-0.295367
-6.71203
6.68461
0.21766
-0.190241
-6.65271
6.60678
-0.00877906
0.0547133
-6.53721
6.48759
-0.364155
0.413776
0.119403
-0.11252
-0.00688255
0.0104633
-0.0182563
-0.0169201
0.0247131
0.0257419
-0.0300039
-0.0464896
0.0507516
0.0313036
-0.0307257
-0.051332
0.0507542
0.0293894
-0.0285193
-0.0509646
0.0500945
0.0307864
-0.03955
-0.0153494
0.0241131
0.0575652
-0.0852045
0.0778348
-0.0501955
0.117887
-0.149215
0.1555
-0.124172
0.16507
-0.151158
0.109776
-0.123689
0.110741
-0.0630483
0.0962484
-0.143941
0.0166552
0.0364355
0.136345
-0.189436
-0.13131
0.323346
-0.696861
0.504825
-0.492458
0.636131
-2.35688
2.21321
-0.684364
0.678802
-2.21464
2.2202
-0.592781
0.140575
-1.51032
1.96252
0.494178
-0.571886
0.0990066
-0.0212988
0.120526
-0.0716203
0.785982
-0.834887
0.10589
-0.146845
2.27865
-2.2377
0.53844
1.97906
-1.44839
-1.06911
-4.13852
4.16249
6.50176
-6.52573
-4.20807
4.27345
6.3426
-6.40799
-4.3966
4.57064
5.70047
-5.87451
-4.77883
5.01101
4.90261
-5.13479
-5.25671
5.50202
3.99107
-4.23638
-5.73136
5.93372
3.02208
-3.22444
-6.10182
6.23413
2.09257
-2.22487
-6.33482
6.40945
1.32887
-1.4035
-6.46281
6.50022
0.784184
-0.821592
-6.52606
6.54385
0.425073
-0.442865
-6.55666
6.56675
0.184382
-0.194471
-6.57529
6.58273
0.0323909
-0.0398273
-6.5895
6.59562
-0.0419947
0.035871
-6.60162
6.60766
-0.0596253
0.053585
-6.6135
6.61885
-0.034569
0.0292192
-6.62376
6.6288
0.00688531
-0.0119228
-6.63522
6.64457
0.0259186
-0.0352681
-6.65826
6.67722
0.00647759
-0.0254348
-6.7011
6.72807
-0.0256118
-0.00135419
-6.75569
6.78282
-0.00288326
-0.024253
-6.80909
6.83364
0.100129
-0.124677
-6.85348
6.86574
0.213136
-0.225396
-6.87253
6.87777
0.297911
-0.303145
-6.88327
6.88986
0.324458
-0.331047
-6.89697
6.9039
0.291225
-0.298164
-6.91206
6.92331
0.248884
-0.260134
-6.93903
6.9585
0.197522
-0.216986
-6.97958
6.99978
0.109155
-0.129355
-7.01833
7.03601
0.0383524
-0.0560357
-7.05336
7.07089
0.0203896
-0.0379215
-7.08954
7.10909
0.0123487
-0.0319001
-7.12601
7.13404
-0.0364643
0.028431
-7.13227
7.12761
-0.0540472
0.0587052
-7.12228
7.11556
-0.0803541
0.087072
-7.09607
7.05939
-0.10615
0.14283
-7.00785
6.95144
0.0140227
0.0423822
-6.8976
6.85423
0.195448
-0.152076
-6.82168
6.79711
0.271172
-0.246598
-6.77667
6.76051
0.168958
-0.152798
-6.74531
6.73193
-0.0811278
0.0945053
-6.72071
6.72119
-0.447314
0.44683
0.102082
-0.0854342
-0.0166482
0.0226455
-0.0362071
-0.0338484
0.04741
0.047029
-0.0538161
-0.0565339
0.063321
0.0562652
-0.0563448
-0.0513505
0.0514301
0.0563138
-0.0574188
-0.0503488
0.0514537
0.0606079
-0.0678073
-0.0318365
0.039036
0.0808012
-0.100327
0.0274142
-0.00788842
0.124795
-0.151336
0.0956458
-0.0691046
0.174126
-0.186764
0.122031
-0.109394
0.187873
-0.18492
0.167382
-0.170335
0.183844
-0.178117
0.219335
-0.225061
0.142934
-0.0229012
-0.31778
0.197747
-0.31907
0.478764
-2.07642
1.91673
-0.641534
0.53404
-2.20738
2.31487
-0.304793
0.107342
-2.3107
2.50816
-0.126962
0.00323074
-0.196269
0.32
-0.172663
0.446827
1.08314
-1.35731
-0.409214
0.393195
2.28552
-2.2695
-1.89317
4.08609
4.35817
-6.55109
-4.16007
4.26912
6.60575
-6.71479
-4.37989
4.49942
6.50241
-6.62194
-4.64695
4.82373
6.0476
-6.22438
-5.02387
5.24079
5.35573
-5.57265
-5.46096
5.67347
4.46415
-4.67666
-5.86286
6.01808
3.4033
-3.55852
-6.13832
6.22515
2.33378
-2.42061
-6.29023
6.34548
1.4645
-1.51976
-6.39208
6.43337
0.856039
-0.897331
-6.46813
6.49809
0.463766
-0.493721
-6.52372
6.54627
0.209046
-0.231597
-6.56646
6.58469
0.0515369
-0.0697644
-6.60093
6.61622
-0.0257718
0.0104854
-6.63012
6.643
-0.0443264
0.0314425
-6.65475
6.66531
-0.0212578
0.010691
-6.67491
6.68433
0.0193952
-0.0288077
-6.69477
6.70792
0.0469633
-0.0601099
-6.72516
6.74746
0.0464875
-0.0687905
-6.77492
6.8059
0.0300522
-0.0610341
-6.83844
6.87067
0.0532116
-0.0854356
-6.90114
6.92967
0.151318
-0.179848
-6.95492
6.97271
0.240215
-0.258007
-6.98292
6.98855
0.309054
-0.314684
-6.99156
6.99504
0.336885
-0.340369
-7.00034
7.0056
0.304353
-0.309615
-7.01248
7.02138
0.269864
-0.278765
-7.03311
7.04785
0.234395
-0.249137
-7.06613
7.08729
0.150238
-0.171405
-7.11215
7.14007
0.0772944
-0.10521
-7.16383
7.18352
0.0562699
-0.0759619
-7.19898
7.2121
0.0492009
-0.0623184
-7.22555
7.22806
-0.0142521
0.0117454
-7.22504
7.21026
-0.0639861
0.0787735
-7.19025
7.14973
-0.0941104
0.13463
-7.10378
7.07752
-0.167617
0.193882
-7.06516
7.04379
-0.0991732
0.120541
-7.01405
6.96708
0.0894509
-0.0424801
-6.89406
6.8597
0.223066
-0.188712
-6.85178
6.85086
0.143042
-0.142121
-6.85232
6.85901
-0.0976173
0.0909265
-6.86993
6.89384
-0.430842
0.406931
0.0622796
-0.0317835
-0.0304962
0.0476006
-0.0670679
-0.0653504
0.0848177
0.0775896
-0.0832937
-0.0684863
0.0741904
0.0867173
-0.0883759
-0.0520714
0.05373
0.0891967
-0.0901337
-0.0528591
0.0537961