/*--------------------------------*- C++ -*----------------------------------*\
| =========                 |                                                 |
| \\      /  F ield         | OpenFOAM: The Open Source CFD Toolbox           |
|  \\    /   O peration     | Version:  v1912                                 |
|   \\  /    A nd           | Website:  www.openfoam.com                      |
|    \\/     M anipulation  |                                                 |
\*---------------------------------------------------------------------------*/
FoamFile
{
    version     2.0;
    format      ascii;
    class       volVectorField;
    location    "30";
    object      U;
}
// * * * * * * * * * * * * * * * * * * * * * * * * * * * * * * * * * * * * * //

dimensions      [0 1 -1 0 0 0 0];


internalField   nonuniform List<vector> 
20320
(
(1.85455 0.00630754 0)
(1.85342 -0.00526074 0)
(1.83768 0.00482012 0)
(1.80828 0.0126424 0)
(1.76739 0.019868 0)
(1.71609 0.0265049 0)
(1.65452 0.0329095 0)
(1.58299 0.0388554 0)
(1.50195 0.0445204 0)
(1.41196 0.0498879 0)
(1.31353 0.0549731 0)
(1.20718 0.0596032 0)
(1.09345 0.0636591 0)
(0.973069 0.0673415 0)
(0.84663 0.0707203 0)
(0.714749 0.0740412 0)
(0.577757 0.07805 0)
(0.434852 0.084078 0)
(0.284722 0.0962996 0)
(0.12648 0.129763 0)
(1.85465 0.0112443 0)
(1.84621 0.0357049 0)
(1.82687 0.0666659 0)
(1.79652 0.0977697 0)
(1.75526 0.128331 0)
(1.70328 0.158181 0)
(1.64094 0.187185 0)
(1.56863 0.215153 0)
(1.4867 0.241968 0)
(1.3956 0.26751 0)
(1.29579 0.291685 0)
(1.18771 0.314375 0)
(1.07183 0.335429 0)
(0.948588 0.354667 0)
(0.818532 0.371917 0)
(0.68228 0.387103 0)
(0.54059 0.400541 0)
(0.394531 0.413261 0)
(0.245692 0.42728 0)
(0.0962388 0.45552 0)
(1.85463 0.0170388 0)
(1.84612 0.0696979 0)
(1.82661 0.125147 0)
(1.79612 0.180218 0)
(1.75483 0.234433 0)
(1.70288 0.28737 0)
(1.6405 0.338724 0)
(1.56806 0.388227 0)
(1.48592 0.435603 0)
(1.39459 0.480649 0)
(1.29461 0.523227 0)
(1.18656 0.563211 0)
(1.07103 0.600505 0)
(0.948535 0.635007 0)
(0.819495 0.666411 0)
(0.684243 0.694102 0)
(0.543055 0.717232 0)
(0.39641 0.735017 0)
(0.245622 0.747039 0)
(0.0933746 0.773595 0)
(1.85464 0.0228153 0)
(1.84639 0.0997631 0)
(1.8272 0.179065 0)
(1.79701 0.257454 0)
(1.75602 0.334507 0)
(1.7044 0.409796 0)
(1.64236 0.482916 0)
(1.57018 0.553455 0)
(1.48816 0.620975 0)
(1.39674 0.685092 0)
(1.29642 0.745464 0)
(1.18782 0.801801 0)
(1.0717 0.853981 0)
(0.948895 0.902073 0)
(0.820117 0.946077 0)
(0.685887 0.985535 0)
(0.546409 1.01914 0)
(0.401634 1.04445 0)
(0.25155 1.05903 0)
(0.0973985 1.0889 0)
(1.85464 0.028276 0)
(1.84653 0.127783 0)
(1.82766 0.22941 0)
(1.79793 0.329913 0)
(1.75753 0.428799 0)
(1.70659 0.525565 0)
(1.64529 0.619718 0)
(1.57384 0.71074 0)
(1.49251 0.798057 0)
(1.40166 0.881131 0)
(1.30171 0.959407 0)
(1.19318 1.03231 0)
(1.07676 1.09941 0)
(0.953299 1.16063 0)
(0.823749 1.21609 0)
(0.688978 1.26576 0)
(0.549567 1.30867 0)
(0.40571 1.34184 0)
(0.256746 1.36182 0)
(0.101434 1.397 0)
(1.85464 0.0334058 0)
(1.84674 0.154254 0)
(1.82833 0.277002 0)
(1.79932 0.398496 0)
(1.75984 0.518187 0)
(1.70995 0.635504 0)
(1.64977 0.749879 0)
(1.57945 0.860697 0)
(1.49919 0.967259 0)
(1.40928 1.06889 0)
(1.31006 1.16486 0)
(1.20198 1.25436 0)
(1.08562 1.33665 0)
(0.961735 1.41132 0)
(0.831266 1.47827 0)
(0.695269 1.53764 0)
(0.554694 1.5889 0)
(0.410179 1.62927 0)
(0.261231 1.65519 0)
(0.104117 1.69526 0)
(1.85464 0.0381661 0)
(1.84703 0.178985 0)
(1.8293 0.321515 0)
(1.8013 0.462745 0)
(1.76311 0.602103 0)
(1.71472 0.738979 0)
(1.65616 0.872749 0)
(1.58749 1.00271 0)
(1.50878 1.12806 0)
(1.42024 1.24796 0)
(1.32211 1.36153 0)
(1.21475 1.46773 0)
(1.09865 1.56557 0)
(0.974447 1.65426 0)
(0.843017 1.73334 0)
(0.705453 1.80274 0)
(0.562953 1.86218 0)
(0.41654 1.90931 0)
(0.265955 1.94097 0)
(0.105598 1.98396 0)
(1.85464 0.0425122 0)
(1.84743 0.201773 0)
(1.83061 0.362597 0)
(1.80398 0.522178 0)
(1.76757 0.679963 0)
(1.72124 0.835337 0)
(1.66491 0.987651 0)
(1.59851 1.13614 0)
(1.52197 1.27987 0)
(1.43536 1.41789 0)
(1.33878 1.54913 0)
(1.23247 1.67233 0)
(1.1168 1.78621 0)
(0.99233 1.88966 0)
(0.859819 1.98178 0)
(0.720348 2.06207 0)
(0.575289 2.13012 0)
(0.426031 2.18398 0)
(0.272538 2.22097 0)
(0.10687 2.2647 0)
(1.85464 0.0463935 0)
(1.84796 0.222388 0)
(1.83233 0.399846 0)
(1.80753 0.576241 0)
(1.77345 0.751085 0)
(1.72986 0.923807 0)
(1.67652 1.09377 0)
(1.61317 1.26016 0)
(1.53959 1.42197 0)
(1.45563 1.57808 0)
(1.36122 1.72725 0)
(1.25643 1.86797 0)
(1.14147 1.99868 0)
(1.01677 2.1179 0)
(0.882978 2.22426 0)
(0.741133 2.3167 0)
(0.592727 2.39438 0)
(0.439535 2.45558 0)
(0.281861 2.4981 0)
(0.10867 2.54104 0)
(1.85464 0.0497565 0)
(1.84864 0.240573 0)
(1.83454 0.432811 0)
(1.81206 0.624299 0)
(1.781 0.814679 0)
(1.74096 1.00347 0)
(1.69152 1.19011 0)
(1.63221 1.37376 0)
(1.56258 1.55335 0)
(1.48223 1.72764 0)
(1.39084 1.89519 0)
(1.28824 2.05424 0)
(1.17442 2.20289 0)
(1.04962 2.33928 0)
(0.914343 2.4615 0)
(0.769536 2.5678 0)
(0.616773 2.65668 0)
(0.458203 2.72634 0)
(0.29443 2.77492 0)
(0.110063 2.81536 0)
(1.85464 0.0525466 0)
(1.84948 0.256063 0)
(1.83727 0.461017 0)
(1.81769 0.665678 0)
(1.79041 0.869882 0)
(1.75486 1.07331 0)
(1.71041 1.2755 0)
(1.65635 1.4757 0)
(1.59193 1.67277 0)
(1.51644 1.8654 0)
(1.42924 2.05196 0)
(1.32982 2.23042 0)
(1.21785 2.39854 0)
(1.09328 2.55397 0)
(0.956378 2.69424 0)
(0.807951 2.81674 0)
(0.649595 2.91906 0)
(0.483859 2.99896 0)
(0.31166 3.05455 0)
(0.111645 3.09146 0)
(1.85465 0.0547139 0)
(1.85048 0.268595 0)
(1.84056 0.483989 0)
(1.8245 0.699683 0)
(1.80182 0.915778 0)
(1.7718 1.13218 0)
(1.7336 1.34863 0)
(1.68621 1.56448 0)
(1.62856 1.77864 0)
(1.55956 1.98975 0)
(1.47814 2.19605 0)
(1.38333 2.39528 0)
(1.27436 2.58479 0)
(1.15072 2.76176 0)
(1.0123 2.92301 0)
(0.859606 3.06494 0)
(0.694182 3.18389 0)
(0.519021 3.27673 0)
(0.335638 3.3411 0)
(0.115455 3.3737 0)
(1.85465 0.0562186 0)
(1.85165 0.277943 0)
(1.84441 0.501304 0)
(1.83246 0.725675 0)
(1.81525 0.951485 0)
(1.79189 1.17894 0)
(1.76132 1.40807 0)
(1.72224 1.63842 0)
(1.67324 1.86906 0)
(1.61277 2.09866 0)
(1.53926 2.32542 0)
(1.45115 2.54691 0)
(1.34699 2.76018 0)
(1.22562 2.96184 0)
(1.08628 3.14795 0)
(0.928909 3.31374 0)
(0.754758 3.45391 0)
(0.567208 3.56383 0)
(0.36874 3.64019 0)
(0.122315 3.66848 0)
(1.85465 0.0570355 0)
(1.85297 0.283936 0)
(1.84875 0.512631 0)
(1.8415 0.743123 0)
(1.83059 0.976223 0)
(1.81502 1.21251 0)
(1.79352 1.45238 0)
(1.76458 1.6957 0)
(1.72639 1.94181 0)
(1.67697 2.18956 0)
(1.61415 2.43728 0)
(1.53562 2.68253 0)
(1.4391 2.92215 0)
(1.32239 3.15232 0)
(1.18369 3.36832 0)
(1.02189 3.56402 0)
(0.837457 3.73196 0)
(0.633829 3.86508 0)
(0.414749 3.95789 0)
(0.133542 3.98203 0)
(1.85466 0.0571595 0)
(1.8544 0.286487 0)
(1.85349 0.517776 0)
(1.85142 0.751673 0)
(1.84754 0.989403 0)
(1.84079 1.23197 0)
(1.8298 1.48022 0)
(1.81286 1.73448 0)
(1.78788 1.99447 0)
(1.75244 2.25944 0)
(1.70378 2.52806 0)
(1.63876 2.79815 0)
(1.55401 3.06666 0)
(1.44597 3.32961 0)
(1.31119 3.58169 0)
(1.14671 3.81542 0)
(0.951245 4.0207 0)
(0.727506 4.18673 0)
(0.48086 4.30398 0)
(0.154983 4.32442 0)
(1.85466 0.0566087 0)
(1.85591 0.285615 0)
(1.85849 0.516732 0)
(1.86195 0.751227 0)
(1.86565 0.99074 0)
(1.86856 1.23673 0)
(1.86933 1.49055 0)
(1.86618 1.75308 0)
(1.85685 2.02461 0)
(1.83861 2.30497 0)
(1.80819 2.59347 0)
(1.76168 2.88857 0)
(1.69451 3.18781 0)
(1.60144 3.48764 0)
(1.47668 3.78282 0)
(1.31425 4.06498 0)
(1.1093 4.32127 0)
(0.861658 4.53566 0)
(0.576973 4.69141 0)
(0.18638 4.71347 0)
(1.85467 0.0554242 0)
(1.85744 0.281454 0)
(1.86357 0.5097 0)
(1.8727 0.741982 0)
(1.88429 0.980328 0)
(1.89743 1.22663 0)
(1.9109 1.48279 0)
(1.92301 1.75029 0)
(1.93155 2.03011 0)
(1.93372 2.32288 0)
(1.92597 2.6288 0)
(1.90385 2.94744 0)
(1.86179 3.27759 0)
(1.79283 3.61706 0)
(1.6884 3.96194 0)
(1.53814 4.30461 0)
(1.33089 4.63064 0)
(1.05881 4.91812 0)
(0.722239 5.13908 0)
(0.229959 5.19189 0)
(1.85467 0.0536688 0)
(1.85893 0.274251 0)
(1.86856 0.497089 0)
(1.8833 0.724452 0)
(1.90277 0.95869 0)
(1.92631 1.20207 0)
(1.95294 1.457 0)
(1.98126 1.7256 0)
(2.00937 2.00956 0)
(2.03469 2.31042 0)
(2.05383 2.62951 0)
(2.06229 2.96789 0)
(2.05408 3.32623 0)
(2.02116 3.70485 0)
(1.95254 4.1031 0)
(1.83307 4.51718 0)
(1.64251 4.93535 0)
(1.35775 5.33321 0)
(0.961957 5.66837 0)
(0.334454 5.79874 0)
(1.85467 0.0514217 0)
(1.86033 0.264354 0)
(1.87325 0.479499 0)
(1.89333 0.699452 0)
(1.92038 0.926786 0)
(1.95404 1.16405 0)
(1.99372 1.41406 0)
(2.03848 1.67947 0)
(2.08696 1.96269 0)
(2.13719 2.26608 0)
(2.18644 2.59219 0)
(2.23089 2.94367 0)
(2.26517 3.32348 0)
(2.28159 3.73528 0)
(2.26872 4.1836 0)
(2.20879 4.67256 0)
(2.0734 5.2013 0)
(1.81847 5.75649 0)
(1.38478 6.29746 0)
(0.58535 6.62777 0)
(1.85467 0.0487732 0)
(1.8616 0.252182 0)
(1.87751 0.457678 0)
(1.90245 0.668039 0)
(1.93648 0.885951 0)
(1.97956 1.11411 0)
(2.03156 1.3556 0)
(2.09214 1.61348 0)
(2.16066 1.89066 0)
(2.2361 2.1902 0)
(2.31686 2.51562 0)
(2.40058 2.87094 0)
(2.48373 3.26117 0)
(2.56098 3.6932 0)
(2.62397 4.17718 0)
(2.65842 4.72763 0)
(2.63781 5.36271 0)
(2.51093 6.10213 0)
(2.17002 6.96659 0)
(1.31381 7.80536 0)
(0.137199 -0.0691798 0)
(0.202458 -0.012533 0)
(0.123075 0.0381195 0)
(-0.229694 0.111778 9.19849e-22)
(-0.850362 0.0850242 0)
(-0.403747 -0.206081 0)
(1.41915 0.953468 0)
(-2.00679 -0.955546 0)
(-3.00342 -0.646735 0)
(-2.21338 -0.424493 -3.98799e-21)
(-1.67557 -0.0341748 0)
(-4.44111 0.471626 0)
(-6.44257 0.145198 -1.37493e-20)
(-6.59574 -0.102527 -1.81976e-22)
(-5.9351 -0.205956 0)
(-5.96966 0.196236 -6.67461e-21)
(-6.76343 0.103459 -4.51801e-21)
(-6.7953 -0.078403 8.53833e-21)
(-6.08865 -0.109369 0)
(-6.62983 0.153383 -1.96919e-20)
(-5.21405 -1.09614 1.82101e-19)
(4.04218 -2.12972 1.39826e-19)
(11.8386 -1.20244 1.0736e-19)
(16.7936 -0.784642 -1.4038e-19)
(19.8745 -0.480706 0)
(21.7635 -0.213761 -9.19169e-20)
(22.7361 -0.148735 0)
(23.5243 -0.145777 4.05195e-20)
(24.0024 -0.0307623 5.50621e-20)
(23.9372 0.0174196 0)
(23.9032 -0.0515551 1.15752e-20)
(23.8662 0.0142184 -6.13927e-21)
(23.6398 0.0178276 2.87724e-21)
(23.4685 0.046738 -2.12305e-21)
(23.3244 -0.0132623 0)
(23.6086 -0.596348 0)
(24.1232 -0.0887755 -6.92896e-21)
(23.4415 0.276432 0)
(22.986 0.0752413 5.3643e-22)
(22.5986 0.0345421 0)
(22.1307 -0.583681 0)
(22.5102 -0.771191 2.81457e-21)
(25.0534 -0.276384 0)
(25.8308 -0.262103 0)
(26.5896 -0.233546 -2.50791e-19)
(27.3966 -0.0808321 -3.19993e-19)
(27.2118 0.328137 0)
(26.162 0.205753 1.92851e-20)
(25.9551 0.052512 -1.34375e-20)
(25.5471 0.198284 -8.25987e-21)
(25.0909 0.0128615 0)
(25.1763 0.0189621 1.61133e-20)
(25.2834 -0.0152579 0)
(25.3655 0.116731 1.86942e-22)
(25.706 0.0583135 0)
(26.3108 -0.107032 0)
(27.8142 -0.354135 1.42233e-24)
(28.8219 -0.498525 -1.55942e-24)
(29.3945 -0.583348 0)
(31.4013 -4.60031 0)
(0.153447 -0.169925 0)
(0.120682 -0.0207272 0)
(0.064634 0.0741968 -1.23797e-22)
(-0.0220047 0.17166 0)
(-0.0305187 0.173446 0)
(0.0853044 -0.300961 6.41337e-21)
(0.00373144 -0.816789 6.42447e-22)
(2.52084 0.0662296 0)
(6.17061 3.40629 -2.78876e-23)
(0.280085 -0.47752 7.06773e-20)
(-0.405483 -0.151154 9.57556e-24)
(-1.86462 2.0416 1.96763e-20)
(-4.69465 1.10122 -1.83336e-20)
(-5.86106 0.0703365 0)
(-5.93215 -0.343487 0)
(-5.85505 0.130332 9.05434e-21)
(-5.60757 0.0911572 0)
(-5.67515 -0.041364 0)
(-5.55472 -0.345929 -5.07768e-23)
(-4.38664 -0.336458 0)
(-0.250231 -2.04106 0)
(7.10399 -5.79613 0)
(12.5968 -3.82753 5.77964e-20)
(16.6574 -2.54289 -8.50221e-20)
(19.5443 -1.68994 7.90803e-20)
(21.5513 -1.04165 6.48524e-20)
(22.9201 -0.651109 0)
(23.7653 -0.455044 0)
(24.2983 -0.259829 2.27252e-20)
(24.6662 -0.0543289 -1.26199e-23)
(24.7163 0.0136873 0)
(24.6502 0.0660886 -5.73897e-24)
(24.572 0.124303 -9.82196e-21)
(24.4754 0.0515973 0)
(24.4845 -0.0654125 0)
(24.5452 -0.139727 4.0602e-22)
(24.4396 0.00559151 0)
(24.2988 0.214187 0)
(24.075 0.218357 0)
(23.8062 0.0750882 -4.87889e-21)
(24.3133 -0.328236 7.14367e-21)
(24.5696 -0.493249 -2.3281e-21)
(24.9388 -0.426616 -1.23451e-21)
(25.2279 -0.361587 0)
(25.3825 -0.257361 6.12198e-22)
(25.4305 -0.0662277 0)
(25.5774 0.0845585 -5.30052e-22)
(25.7926 0.102025 5.57402e-22)
(25.7677 0.0965079 1.58554e-22)
(25.7594 0.173822 1.77767e-22)
(25.8176 0.0326011 7.03749e-22)
(25.7314 -0.0333565 6.39861e-23)
(25.6935 -0.0484226 -2.97188e-22)
(25.7723 -0.0952001 0)
(25.8523 -0.260568 0)
(26.2167 -0.347862 0)
(26.6687 -0.681146 0)
(27.1933 -0.738838 1.07507e-21)
(27.5178 -0.410614 -5.9936e-21)
(28.6254 -1.97406 0)
(0.15821 -0.23341 0)
(0.0702412 -0.0179639 -2.38166e-22)
(0.0135834 0.0779494 0)
(-0.0124581 0.160273 -5.105e-22)
(0.0625021 0.161691 -2.47788e-21)
(0.157388 -0.170978 -3.47866e-21)
(-0.110291 -0.740981 0)
(-0.224493 -0.777954 5.56176e-21)
(-0.0609884 1.59392 0)
(0.72284 1.45278 0)
(1.04096 0.0475632 0)
(0.0835549 2.78932 0)
(-2.47291 2.67759 0)
(-4.72617 0.799224 0)
(-5.3591 -0.231002 0)
(-5.79234 0.0176896 0)
(-5.28122 -0.11429 0)
(-4.35227 0.064271 -7.1586e-19)
(-6.53564 -0.221072 0)
(-11.2292 -1.55529 0)
(9.68996 -8.38981 0)
(11.5869 -8.38584 0)
(14.6252 -6.19859 0)
(17.5399 -4.36977 0)
(19.9385 -3.0341 0)
(21.7329 -2.0004 0)
(22.9832 -1.27306 0)
(23.7443 -0.819411 0)
(24.1493 -0.494916 2.02737e-20)
(24.3666 -0.181925 0)
(24.455 0.00435398 -8.5938e-21)
(24.4406 0.0891988 0)
(24.4154 0.13416 0)
(24.4249 0.0673236 0)
(24.4185 -0.0365522 0)
(24.3879 -0.0516121 0)
(24.3234 0.0587043 -2.94354e-22)
(24.2644 0.25247 0)
(24.3294 0.229026 0)
(24.4823 -0.0103027 0)
(24.6194 -0.359609 1.72524e-21)
(24.6789 -0.54872 -3.15432e-22)
(24.7937 -0.53739 2.22168e-22)
(24.926 -0.454383 0)
(25.0325 -0.322427 2.02486e-22)
(25.1617 -0.149247 0)
(25.3308 -0.00160392 0)
(25.4578 0.0648157 0)
(25.4978 0.0980281 0)
(25.5667 0.136067 -5.03489e-23)
(25.6069 0.0629476 0)
(25.5326 0.00654835 -3.29291e-22)
(25.4315 -0.0226369 0)
(25.355 -0.112032 0)
(25.2951 -0.334594 -4.92419e-22)
(25.3737 -0.548187 1.07001e-21)
(25.4637 -0.80389 -3.2503e-21)
(25.3206 -0.714646 1.17067e-21)
(25.0511 -0.30565 0)
(22.7199 -0.264828 1.89892e-21)
(0.141858 -0.269725 0)
(0.0179989 -0.00353638 0)
(-0.0557673 0.0814898 0)
(-0.056716 0.131437 0)
(0.0117754 0.129986 1.04167e-21)
(0.0766752 -0.0655226 0)
(-0.0846818 -0.454184 0)
(-0.466242 -0.579182 2.38412e-23)
(-0.744978 0.219855 0)
(0.765895 0.427095 3.07818e-22)
(1.30935 0.175015 -2.56272e-20)
(0.976059 2.59257 0)
(-0.113571 4.11232 0)
(-2.87111 2.34365 -1.66119e-22)
(-4.17333 0.15003 2.50723e-23)
(-4.74003 0.418473 -1.70667e-21)
(-4.08679 -1.20367 1.15553e-19)
(1.65001 -3.25328 0)
(-0.289957 5.08193 1.61523e-19)
(0.621369 -6.00345 0)
(15.0606 -11.7173 3.62432e-22)
(15.3595 -9.8414 2.3241e-22)
(17.0333 -7.79084 -2.38084e-22)
(18.956 -5.87317 5.62834e-20)
(20.7784 -4.24814 -6.0227e-20)
(22.199 -2.89408 0)
(23.1682 -1.85689 0)
(23.729 -1.14754 -6.96302e-23)
(23.9807 -0.664706 4.66773e-23)
(24.0684 -0.281233 0)
(24.099 -0.0276555 7.41338e-21)
(24.0876 0.0925818 0)
(24.0789 0.13124 0)
(24.096 0.0749561 0)
(24.0949 -0.0184057 -3.81109e-21)
(24.0673 -0.0351612 0)
(24.0451 0.0656451 0)
(24.0978 0.20003 -8.09304e-23)
(24.2441 0.165148 1.31768e-21)
(24.4217 -0.0651564 -1.01597e-21)
(24.5419 -0.373428 -2.12832e-21)
(24.5785 -0.565859 0)
(24.625 -0.589669 -6.21854e-22)
(24.6914 -0.510455 0)
(24.773 -0.390263 -2.24371e-22)
(24.9017 -0.242063 1.75758e-22)
(25.0466 -0.0845702 0)
(25.1495 0.0200884 1.20356e-22)
(25.2252 0.0624094 0)
(25.324 0.0884804 -1.20928e-22)
(25.3706 0.0796106 -3.0696e-22)
(25.3136 0.0546668 1.75363e-22)
(25.2066 0.0461365 -1.75359e-22)
(25.0367 -0.0340521 -2.40846e-22)
(24.8491 -0.287612 0)
(24.7484 -0.554258 7.01052e-22)
(24.6717 -0.702821 1.22418e-21)
(24.4123 -0.532305 -8.01939e-22)
(24.2245 -0.166744 0)
(24.1458 0.422902 0)
(0.0995446 -0.246534 -2.24688e-23)
(-0.0469007 0.0181305 -5.9869e-22)
(-0.107098 0.0858924 0)
(-0.0982776 0.107547 -4.56486e-22)
(-0.0609933 0.107892 4.46214e-22)
(-0.0227021 -0.000881653 0)
(-0.109917 -0.254898 0)
(-0.37046 -0.407475 1.65282e-23)
(-0.505181 -0.0959695 2.20759e-23)
(0.189498 0.0541661 1.32486e-20)
(0.810226 -0.0574049 2.01443e-20)
(0.849302 1.91105 6.53637e-23)
(0.669566 4.86997 -8.95423e-21)
(0.151618 4.14936 0)
(-2.35631 0.777364 4.55857e-22)
(-2.65589 0.387037 -2.03769e-20)
(-1.52209 -1.54908 0)
(-0.285229 -4.59287 2.82511e-20)
(2.11125 6.79773 -4.78134e-19)
(17.9438 -11.448 0)
(17.8157 -12.3617 -5.11005e-20)
(17.9407 -10.6673 -2.26116e-22)
(19.0008 -8.90547 0)
(20.367 -7.06066 0)
(21.7097 -5.27104 5.73289e-20)
(22.7143 -3.64698 1.66314e-22)
(23.3236 -2.33531 0)
(23.62 -1.40224 0)
(23.7072 -0.777508 6.30123e-23)
(23.6961 -0.336038 0)
(23.6747 -0.0493858 -1.22129e-20)
(23.6588 0.0904104 -1.81312e-23)
(23.6609 0.12622 2.41084e-21)
(23.6863 0.0754453 -3.8543e-21)
(23.7054 -0.00819139 3.10564e-21)
(23.7143 -0.0341425 2.08237e-21)
(23.7515 0.0322494 0)
(23.8655 0.121499 -1.33253e-24)
(24.0459 0.0791545 0)
(24.2441 -0.133688 8.06362e-22)
(24.3835 -0.391195 9.07702e-22)
(24.4341 -0.572983 5.34163e-22)
(24.4709 -0.617241 4.13963e-22)
(24.5137 -0.54837 -3.98966e-22)
(24.5742 -0.450097 2.33663e-22)
(24.6882 -0.327193 2.23862e-22)
(24.8193 -0.158021 -6.52855e-22)
(24.9189 -0.030735 1.54581e-24)
(25.0153 0.00826153 7.0298e-23)
(25.1385 0.0303719 -1.44483e-22)
(25.2116 0.0826466 3.35101e-22)
(25.1783 0.0911177 0)
(25.1071 0.121196 1.94727e-22)
(24.9137 0.10241 -6.63653e-23)
(24.6291 -0.154986 0)
(24.4012 -0.477898 3.57364e-22)
(24.2405 -0.604571 8.12657e-22)
(24.0378 -0.397465 -4.75823e-24)
(23.8632 0.064734 0)
(23.7168 0.724667 -1.25651e-22)
(0.100481 -0.228087 -4.43082e-22)
(-0.0706129 0.0398313 0)
(-0.146376 0.0943996 7.52949e-25)
(-0.157503 0.0991878 0)
(-0.146209 0.0981163 0)
(-0.13459 0.0391644 -2.55345e-22)
(-0.189565 -0.122437 0)
(-0.35716 -0.271911 -1.17272e-21)
(-0.482291 -0.236407 1.03621e-21)
(-0.199724 -0.246653 1.20181e-20)
(0.155969 -0.328427 -1.38683e-20)
(0.178103 1.16004 -3.42188e-20)
(0.417257 4.5029 -6.81224e-21)
(0.712816 4.36504 3.4308e-21)
(0.716872 3.56001 0)
(-2.77592 -0.509721 -6.84576e-19)
(0.390449 -1.43097 0)
(1.12758 -4.38125 0)
(-2.20631 2.3511 -1.93801e-18)
(18.8924 -12.6797 0)
(19.0281 -12.4561 0)
(19.4144 -11.3085 -1.95381e-20)
(20.3182 -9.81238 -7.45306e-20)
(21.4216 -8.04777 0)
(22.3986 -6.1146 -5.56542e-20)
(22.9868 -4.22702 0)
(23.2257 -2.67369 3.39669e-20)
(23.28 -1.56849 0)
(23.2575 -0.845592 2.6162e-20)
(23.218 -0.367554 0)
(23.2007 -0.0682212 -4.56977e-21)
(23.2122 0.0780436 2.79755e-21)
(23.2473 0.112192 0)
(23.3001 0.0636472 -1.36611e-21)
(23.3524 -0.0171193 1.16059e-21)
(23.4061 -0.0585639 -9.1625e-22)
(23.4965 -0.0300604 -2.23774e-24)
(23.6539 0.0253161 4.00104e-22)
(23.8576 -0.0201162 -4.5695e-22)
(24.0772 -0.218942 8.19699e-25)
(24.248 -0.42803 0)
(24.3188 -0.587431 -3.82742e-22)
(24.3603 -0.641214 -4.73659e-22)
(24.3954 -0.576959 0)
(24.4383 -0.499304 9.82048e-25)
(24.5332 -0.408004 -1.96293e-22)
(24.6575 -0.235966 4.66888e-22)
(24.7728 -0.0954747 1.21483e-22)
(24.8907 -0.0601764 8.64618e-23)
(25.0207 -0.046409 -7.89284e-23)
(25.1267 0.0628539 6.07976e-22)
(25.1187 0.10415 1.18567e-22)
(25.0759 0.156584 -3.88748e-22)
(24.9432 0.210076 0)
(24.5991 -0.00609644 -1.16428e-21)
(24.2352 -0.335317 0)
(24.0024 -0.496542 4.99058e-22)
(23.8535 -0.312061 0)
(23.734 0.176747 0)
(23.6739 0.862995 0)
(0.0576058 -0.184825 1.00727e-21)
(-0.142425 0.07748 0)
(-0.233522 0.116459 0)
(-0.243201 0.0995523 1.95438e-22)
(-0.241555 0.0987635 0)
(-0.249442 0.0692385 0)
(-0.293359 -0.0328546 0)
(-0.408086 -0.159157 0)
(-0.536028 -0.229001 0)
(-0.501819 -0.337283 0)
(-0.455167 -0.443486 0)
(-0.601611 0.473716 -1.3999e-20)
(-0.0660587 4.01488 0)
(0.732438 4.39364 0)
(-1.40831 4.71223 -2.25788e-19)
(0.211779 0.681 0)
(2.94383 -2.50161 -1.43948e-22)
(2.87359 -4.46305 0)
(18.5598 -13.2122 -3.06064e-21)
(18.9898 -12.9318 0)
(19.5772 -12.7507 0)
(20.2218 -11.9326 -2.51717e-20)
(21.0987 -10.6337 -4.07406e-20)
(22.007 -8.89853 5.319e-20)
(22.6107 -6.77849 -5.69053e-20)
(22.7632 -4.65136 0)
(22.7065 -2.95241 1.77163e-22)
(22.6853 -1.75751 1.17549e-22)
(22.7021 -0.966028 0)
(22.7386 -0.448369 -4.15473e-21)
(22.7949 -0.127907 0)
(22.8695 0.0312152 -1.30751e-21)
(22.9572 0.0709576 1.2622e-23)
(23.0483 0.0295721 -7.10906e-22)
(23.1318 -0.0482295 0)
(23.2156 -0.10559 6.14899e-22)
(23.3361 -0.114723 -6.20295e-22)
(23.5198 -0.0928344 -8.20612e-22)
(23.7542 -0.140169 -2.05936e-23)
(23.997 -0.325277 7.8649e-23)
(24.1897 -0.480532 0)
(24.2791 -0.601277 1.70464e-22)
(24.3026 -0.654824 4.66692e-22)
(24.3224 -0.592777 3.64341e-24)
(24.3571 -0.525726 0)
(24.424 -0.457551 -4.62514e-22)
(24.5232 -0.290623 1.37693e-22)
(24.685 -0.128035 -6.50941e-21)
(24.8444 -0.0889907 0)
(24.9501 -0.0780079 -2.62011e-21)
(25.0351 0.037216 0)
(24.9648 0.137603 0)
(24.8446 0.214187 0)
(24.4905 0.477817 0)
(24.3745 0.414727 0)
(24.2351 -0.197389 0)
(23.7998 -0.432493 0)
(23.7108 -0.262568 -6.82597e-22)
(23.7151 0.185664 -3.3466e-22)
(23.7589 0.822037 8.63177e-23)
(-0.0143851 -0.0941174 0)
(-0.270294 0.145046 1.04887e-23)
(-0.34294 0.137 8.90622e-22)
(-0.347052 0.101631 1.63915e-21)
(-0.352507 0.103425 0)
(-0.36472 0.094891 0)
(-0.404783 0.0331974 0)
(-0.493733 -0.0630396 -9.48317e-22)
(-0.621758 -0.153155 0)
(-0.721363 -0.281664 0)
(-0.922602 -0.372799 0)
(-1.33027 0.256371 1.82167e-20)
(-1.80152 3.13436 0)
(-1.51779 4.94597 0)
(-2.2568 4.72758 2.63091e-19)
(2.86982 0.0212162 0)
(3.61508 -2.78241 0)
(8.4399 -6.71685 0)
(17.8769 -13.3727 -1.37914e-20)
(18.99 -13.4383 -2.01219e-20)
(19.8837 -13.2384 0)
(20.668 -12.5641 -3.19106e-20)
(21.4693 -11.377 -4.49464e-20)
(22.085 -9.59303 -5.93831e-20)
(22.1676 -7.34223 -5.63951e-20)
(21.9067 -4.9754 0)
(21.8199 -3.13646 0)
(22.0092 -1.86195 0)
(22.2205 -1.03727 0)
(22.391 -0.502588 0)
(22.5504 -0.170866 0)
(22.7068 -0.00676165 -2.65732e-20)
(22.8482 0.0390253 0)
(22.973 0.00015666 0)
(23.0702 -0.0680693 9.95789e-21)
(23.1501 -0.136817 7.26774e-21)
(23.2652 -0.171095 5.2412e-23)
(23.4423 -0.165683 0)
(23.7389 -0.188946 0)
(24.0239 -0.360868 0)
(24.1797 -0.512237 0)
(23.5042 -0.597411 0)
(23.2946 -0.655936 0)
(23.2014 -0.62697 0)
(23.2032 -0.592841 0)
(23.2123 -0.554287 0)
(23.1831 -0.350901 0)
(23.0106 -0.0580449 0)
(22.9811 -0.147803 0)
(22.9927 -0.138009 3.38339e-21)
(22.9971 0.0211792 0)
(23.0423 0.158725 0)
(23.0967 0.275097 0)
(23.2816 0.323919 0)
(23.5209 0.163415 4.27412e-21)
(23.6804 -0.045906 0)
(23.6824 -0.14049 0)
(23.5544 -0.300387 0)
(23.7017 0.146853 0)
(23.8914 0.690347 7.59792e-24)
(-0.140097 0.0614111 -1.00201e-21)
(-0.374346 0.212525 0)
(-0.456143 0.174034 2.16367e-21)
(-0.506677 0.116058 0)
(-0.520069 0.103028 0)
(-0.506887 0.105746 0)
(-0.522149 0.081349 3.92168e-22)
(-0.589242 0.0187849 0)
(-0.709353 -0.055839 -2.4892e-21)
(-0.870511 -0.149429 0)
(-1.20241 -0.170755 1.9177e-21)
(-1.80532 0.332838 -1.99123e-20)
(-2.22785 1.63555 0)
(-2.15297 5.12773 0)
(-1.48527 4.08906 -4.4195e-19)
(1.51722 -1.2974 -6.78891e-19)
(3.0965 -3.15149 -2.68507e-19)
(16.9406 -13.4399 -6.33574e-20)
(18.1656 -14.0218 -1.93033e-20)
(19.1469 -14.032 0)
(20.0674 -13.7971 3.01719e-20)
(20.8446 -13.1667 -3.78015e-20)
(21.4456 -11.9935 0)
(21.5582 -10.17 5.86523e-20)
(21.1509 -7.65456 0)
(21.195 -5.08777 -4.98289e-20)
(20.998 -3.39738 3.8016e-20)
(21.0065 -2.15298 0)
(21.0445 -1.26571 0)
(21.0986 -0.6807 0)
(21.1816 -0.336288 1.51656e-20)
(21.3233 -0.235129 1.23619e-20)
(21.5618 -0.216102 -1.71069e-21)
(21.7465 -0.145838 0)
(21.8539 -0.169466 2.37083e-21)
(21.9277 -0.246642 -2.72807e-21)
(22.0026 -0.338801 4.24708e-22)
(22.061 -0.275424 -1.29926e-20)
(21.909 -0.20644 -1.10058e-20)
(21.8372 -0.442151 -7.84972e-21)
(21.6952 -0.398533 -9.63616e-22)
(21.5552 -0.34657 -2.22777e-23)
(21.4023 -0.52578 -3.78023e-21)
(21.2728 -0.571308 -2.9108e-21)
(21.2177 -0.5534 -2.87964e-21)
(21.1747 -0.488892 2.61808e-21)
(21.111 -0.275036 0)
(21.1895 -0.0933017 1.86564e-21)
(21.2738 -0.152799 2.03931e-24)
(21.3246 -0.152857 0)
(21.3978 -0.0292204 0)
(21.5732 0.0763815 0)
(21.8049 0.14518 0)
(22.1511 0.148432 -5.07374e-21)
(22.5178 0.0188435 0)
(22.8274 -0.144702 0)
(23.0933 -0.296097 -5.9604e-21)
(23.3066 -0.368116 -2.47954e-21)
(23.5932 0.0103344 -1.25648e-21)
(23.9733 0.606081 -2.09336e-22)
(-0.155743 0.218573 0)
(-0.426417 0.290617 0)
(-0.587336 0.250317 0)
(-0.683825 0.159093 0)
(-0.700663 0.099062 0)
(-0.672213 0.0960481 0)
(-0.652261 0.0982386 0)
(-0.687649 0.0837771 0)
(-0.795244 0.0404897 0)
(-0.966772 -0.00179048 0)
(-1.32455 0.0751978 0)
(-1.92396 0.491751 0)
(-2.41522 1.79409 0)
(-3.38928 4.40733 0)
(2.54708 4.33019 0)
(0.972107 -0.803592 0)
(9.09096 -9.15693 0)
(17.0006 -14.3957 0)
(18.2083 -14.5703 0)
(19.2197 -14.6076 0)
(20.1058 -14.3528 0)
(20.7499 -13.6848 0)
(20.9767 -12.4866 0)
(20.9891 -10.4267 0)
(20.139 -7.5737 0)
(19.5535 -5.35981 0)
(19.3907 -3.60168 3.55027e-20)
(19.3685 -2.31436 0)
(19.4021 -1.39144 0)
(19.4623 -0.774234 0)
(19.5378 -0.414502 0)
(19.6185 -0.28975 0)
(19.6495 -0.238624 0)
(19.6994 -0.162184 0)
(19.7618 -0.163121 0)
(19.8084 -0.21763 0)
(19.8325 -0.271933 0)
(19.8081 -0.206822 0)
(19.8517 -0.177901 0)
(19.8141 -0.349488 0)
(19.6818 -0.346326 0)
(19.6645 -0.315355 0)
(19.6119 -0.444561 0)
(19.5269 -0.521053 0)
(19.4696 -0.528803 0)
(19.4292 -0.470556 0)
(19.4208 -0.309055 0)
(19.5591 -0.184239 0)
(19.7111 -0.207436 -2.60016e-21)
(19.8319 -0.208213 -2.63719e-21)
(19.9888 -0.133189 0)
(20.2389 -0.0700815 0)
(20.5526 -0.0464942 0)
(20.9394 -0.0791794 0)
(21.3423 -0.193286 -3.38259e-21)
(21.7158 -0.336681 2.10261e-21)
(22.0691 -0.472149 -2.46084e-21)
(22.4182 -0.534469 0)
(22.9048 -0.389738 -1.20859e-21)
(24.1314 0.0359521 0)
(-0.216048 0.319718 2.70709e-21)
(-0.514001 0.433052 0)
(-0.753544 0.372634 -1.04401e-21)
(-0.911131 0.233377 -8.40157e-22)
(-0.904262 0.0993181 0)
(-0.869517 0.0717126 0)
(-0.819414 0.0848067 0)
(-0.826964 0.122501 -8.76156e-22)
(-0.880227 0.115981 -9.42272e-23)
(-1.02757 0.129551 0)
(-1.34079 0.280566 1.8994e-21)
(-1.83728 0.676609 0)
(-2.35544 1.70013 0)
(-2.18595 2.87482 -9.52834e-21)
(-0.853695 2.21375 1.62312e-19)
(0.852256 -0.755716 2.17439e-19)
(15.8151 -14.4447 -1.3892e-23)
(17.0924 -14.9897 0)
(18.2037 -15.1724 -5.84505e-20)
(19.2126 -15.1862 6.6019e-20)
(19.9881 -14.8554 1.545e-22)
(20.3502 -14.1158 -7.775e-20)
(20.4309 -12.9154 2.32057e-19)
(19.0246 -10.043 1.37532e-20)
(18.0171 -7.64398 0)
(17.4925 -5.49788 1.50481e-22)
(17.3242 -3.80674 2.69542e-20)
(17.3338 -2.51238 0)
(17.4229 -1.55953 1.64306e-20)
(17.542 -0.904789 1.22956e-20)
(17.6621 -0.508196 -9.44725e-21)
(17.7557 -0.32926 7.61641e-21)
(17.7813 -0.255008 0)
(17.8021 -0.194725 0)
(17.8426 -0.188488 0)
(17.8757 -0.229565 0)
(17.8827 -0.269249 2.72422e-21)
(17.8642 -0.22798 -8.7698e-22)
(17.9226 -0.20148 9.11032e-24)
(17.9329 -0.299645 -3.71397e-21)
(17.8736 -0.319218 -1.97264e-21)
(17.8888 -0.317044 0)
(17.8972 -0.408217 2.36878e-21)
(17.8694 -0.486322 0)
(17.844 -0.50974 0)
(17.8376 -0.470318 0)
(17.884 -0.366807 0)
(18.0383 -0.290166 0)
(18.2201 -0.297361 0)
(18.3928 -0.30241 2.44802e-21)
(18.6008 -0.270075 0)
(18.8788 -0.246406 1.36381e-21)
(19.2094 -0.256284 1.69405e-21)
(19.584 -0.310505 -2.28498e-21)
(19.9676 -0.417223 -3.02818e-21)
(20.3313 -0.548207 0)
(20.6736 -0.676236 -2.04876e-21)
(21.0014 -0.758825 -2.02571e-21)
(21.37 -0.723107 0)
(21.7042 -0.49407 4.21902e-22)
(-0.360984 0.495044 -3.87248e-21)
(-0.695277 0.616763 0)
(-0.999253 0.556146 0)
(-1.10953 0.3133 -2.53558e-21)
(-1.11715 0.118607 0)
(-1.08291 0.0415173 -4.36442e-26)
(-1.0114 0.0498647 2.71594e-22)
(-0.96564 0.11083 0)
(-0.964086 0.151957 4.53524e-22)
(-1.07732 0.227058 7.35742e-22)
(-1.33989 0.433541 -1.53759e-21)
(-1.75891 0.82955 0)
(-2.18023 1.58355 0)
(-2.12194 2.50773 0)
(-1.41438 2.1429 2.15128e-21)
(4.53238 -5.89032 5.05368e-21)
(16.0456 -15.2866 0)
(17.1468 -15.574 0)
(18.2068 -15.7713 6.15254e-20)
(19.1322 -15.7269 0)
(19.6771 -15.2702 -8.12503e-20)
(19.8382 -14.4947 0)
(19.0103 -12.1879 5.33638e-20)
(17.2146 -9.77389 2.29506e-20)
(16.0992 -7.52344 2.65629e-20)
(15.479 -5.59853 2.39593e-20)
(15.237 -4.0032 0)
(15.2257 -2.73268 0)
(15.3368 -1.76532 -1.2831e-20)
(15.5005 -1.07583 0)
(15.6696 -0.633843 7.30578e-21)
(15.8073 -0.396859 5.8079e-21)
(15.8851 -0.283914 0)
(15.937 -0.222501 2.90125e-21)
(15.9893 -0.210974 2.45822e-21)
(16.0301 -0.23835 -7.02505e-24)
(16.047 -0.265371 2.34878e-21)
(16.054 -0.245804 1.52217e-21)
(16.1103 -0.232193 0)
(16.1512 -0.286818 2.78435e-21)
(16.1552 -0.316623 -2.3716e-21)
(16.1972 -0.336824 2.79253e-21)
(16.2437 -0.407268 -2.00497e-21)
(16.2661 -0.478143 2.28352e-21)
(16.2833 -0.511118 -2.358e-21)
(16.3187 -0.494992 -2.17038e-21)
(16.4046 -0.439787 0)
(16.5654 -0.400405 -1.78897e-21)
(16.7571 -0.407358 2.13541e-21)
(16.9548 -0.420462 2.3493e-21)
(17.1814 -0.419089 0)
(17.4549 -0.425652 0)
(17.7646 -0.457697 0)
(18.0967 -0.522696 0)
(18.4264 -0.622046 0)
(18.7314 -0.738572 -1.59755e-21)
(19 -0.84959 -1.7233e-21)
(19.2199 -0.919335 0)
(19.3799 -0.879508 -4.44007e-24)
(19.4157 -0.561748 1.37013e-22)
(-0.556091 0.759787 0)
(-0.923756 0.832263 0)
(-1.26672 0.739577 1.87465e-21)
(-1.30804 0.410471 0)
(-1.33393 0.162287 0)
(-1.30586 0.0215349 5.8691e-22)
(-1.22201 -0.0112802 1.14668e-22)
(-1.11801 0.0551741 0)
(-1.06949 0.149244 0)
(-1.1366 0.283021 -4.34395e-24)
(-1.35894 0.549774 0)
(-1.74189 0.965789 0)
(-2.1636 1.57427 -2.55141e-22)
(-2.3891 2.25688 -7.28754e-21)
(-2.28041 2.13307 2.68795e-19)
(14.7571 -15.477 -2.84937e-21)
(16.1246 -15.7678 -5.71777e-20)
(17.1758 -16.1409 -4.94346e-23)
(18.1764 -16.34 -6.40428e-20)
(18.9384 -16.185 0)
(19.2097 -15.6098 0)
(19.2965 -14.2517 -2.88979e-19)
(16.9113 -11.6843 -3.07579e-20)
(15.384 -9.35776 4.46976e-20)
(14.2992 -7.35406 2.03517e-20)
(13.627 -5.61989 0)
(13.302 -4.1486 -1.61654e-20)
(13.2283 -2.93889 1.31107e-20)
(13.3137 -1.98443 -1.00095e-20)
(13.483 -1.27556 0)
(13.6783 -0.793809 5.52897e-21)
(13.8559 -0.504512 -4.27825e-21)
(13.9888 -0.349158 0)
(14.0883 -0.270478 2.40526e-21)
(14.1714 -0.246635 -2.05063e-21)
(14.2359 -0.259174 -2.02455e-21)
(14.2787 -0.276608 4.03033e-21)
(14.3163 -0.27136 0)
(14.382 -0.269477 1.75841e-21)
(14.4479 -0.304165 0)
(14.499 -0.337658 -2.22172e-21)
(14.569 -0.371695 -1.4269e-24)
(14.6451 -0.432593 -1.75295e-21)
(14.7075 -0.496544 2.09035e-21)
(14.7649 -0.535948 0)
(14.8375 -0.541012 2.10275e-21)