/*--------------------------------*- C++ -*----------------------------------*\
| =========                 |                                                 |
| \\      /  F ield         | OpenFOAM: The Open Source CFD Toolbox           |
|  \\    /   O peration     | Version:  v1912                                 |
|   \\  /    A nd           | Website:  www.openfoam.com                      |
|    \\/     M anipulation  |                                                 |
\*---------------------------------------------------------------------------*/
FoamFile
{
    version     2.0;
    format      ascii;
    class       volScalarField;
    location    "10";
    object      alpha.water;
}
// * * * * * * * * * * * * * * * * * * * * * * * * * * * * * * * * * * * * * //

dimensions      [0 0 0 0 0 0 0];


internalField   nonuniform List<scalar> 
20320
(
1
1
1
1
1
1
1
1
1
1
1
0.999999
1
1
1
1
1
1
1
1
1
1
1
1
1
1
1
0.999999
0.999999
1
0.999999
0.999999
1
1
1
1
1
1
1
1
1
1
1
1
1
1
1
1
1
1
1
1
1
1
1
1
1
1
1
1
1
1
1
1
1
1
1
1
1
1
1
1
1
1
1
1
1
1
1
1
1
1
1
1
1
1
1
1
1
1
1
1
0.999999
1
1
1
1
1
1
1
1
1
1
1
1
1
1
1
1
1
1
1
1
1
1
1
1
1
1
1
1
1
1
1
1
1
1
1
1
1
1
1
1
1
1
1
1
1
1
1
1
1
1
1
1
1
1
1
1
1
1
0.999999
1
1
1
1
1
1
1
1
1
1
1
1
1
1
1
1
1
1
1
1
1
1
1
1
1
1
1
1
1
1
1
1
1
1
1
1
1
1
1
0.999999
1
0.999999
1
1
1
1
1
1
1
1
1
1
1
1
1
1
1
1
1
1
1
0.999999
1
1
1
1
1
1
1
1
1
1
1
1
1
1
1
1
1
1
1
0.999999
1
1
1
1
1
1
1
1
1
1
1
1
1
1
1
1
0.999999
1
1
1
1
1
1
1
1
1
1
1
1
1
1
1
1
1
1
1
0.999999
1
1
1
1
1
1
1
1
1
1
1
1
1
1
1
1
1
1
1
0.999999
0.999999
1
1
1
1
1
1
1
1
1
1
1
1
1
1
1
1
1
1
1
1
1
1
1
1
1
1
1
1
1
1
1
1
1
1
1
1
1
1
1
1
1
1
0.999999
1
1
1
1
1
1
1
1
1
1
1
1
1
1
1
1
1
1
1
1
1
1
1
1
1
1
1
1
1
1
1
1
1
1
1
1
1
1
1
1
1
1
1
1
1
1
1
1
1
1
1
1
1
1
1
1
1
1
1
1
1
1
1
1
1
0.963007
0.997429
0.997465
0.997494
0.99933
0.999976
1
1
0.999375
0.999435
0.999906
0.994122
1
1
1
1
1
1
1
1
1
1
1
1
1
0.999809
0.999616
0.999922
1
0.995682
0.988921
0.998884
0.999836
0.953251
0.953251
0.989853
1
0.999996
0.999961
0.5467
0.514128
0.716121
1
0.999986
0.999953
0.612617
0.693666
0.99657
0.996528
0.996566
0.996562
0.379393
0.0397908
0.546286
0.546124
0.320138
-1.39155e-21
-2.58002e-22
-6.07524e-25
-3.49567e-28
0.984759
0.825579
0.472343
0.450829
0.419173
0.490987
0.636628
0.651809
0.650901
0.729141
0.69666
0.999998
1
1
1
1
1
1
1
1
1
1
1
1
0.999998
1
1
0.999997
0.999999
1
1
0.999749
0.99981
1
1
1
1
1
1
1
1
1
1
0.997762
0.985044
0.995608
0.996571
0.996571
0.996571
0.543394
7.15927e-09
0.000793244
0.0005681
7.88211e-09
2.96584e-08
1.71458e-11
1.14723e-05
-9.45929e-25
-4.19619e-27
-3.16373e-30
0.984598
2.82117e-19
-1.17283e-21
1.51109e-21
-1.64043e-22
-1.92418e-31
1.76237e-32
3.21996e-30
2.33351e-30
-8.27833e-26
0.0758366
0.614492
1
1
1
1
1
1
1
1
1
1
1
1
1
1
1
1
0.98858
0.941522
0.864953
0.113629
0.108532
0.0599523
0.0103902
0.000251458
1.67028e-31
2.70518e-07
0.0122191
0.040554
0.0818842
0.379679
0.24288
0.538518
0.993753
0.996571
0.395091
0.013894
3.49996e-12
2.58126e-10
8.24747e-08
1.84113e-09
1.48625e-09
2.66195e-09
9.92023e-11
2.64663e-12
3.7523e-13
6.27607e-11
-1.16215e-29
-1.81106e-32
0.983824
-3.93903e-28
1.85875e-27
9.49012e-09
1.2715e-10
4.54983e-11
1.88233e-10
1.77166e-09
1.41456e-23
3.81201e-05
7.75086e-20
0.797986
1
1
1
1
0.860431
0.605436
0.26747
0.00220109
0.00759425
0.0117379
0.00682179
0.000914039
1.5646e-20
-6.85363e-22
3.27719e-21
-8.00783e-22
4.21092e-19
6.41846e-18
1.18674e-17
2.72519e-17
3.44428e-16
9.815e-15
3.33826e-13
4.8086e-13
2.17263e-14
3.07704e-09
3.89422e-11
3.48984e-07
1.14743e-07
3.00072e-22
-1.53198e-20
2.18448e-20
6.2669e-21
-6.62729e-21
5.05102e-05
0.000271201
4.36011e-08
1.16662e-08
1.07804e-09
1.89476e-09
1.84234e-10
1.33821e-12
1.19977e-12
4.90021e-13
3.75263e-13
1.52501e-13
1.92728e-19
9.49544e-31
0.983673
5.1956e-22
6.97182e-08
-3.85934e-29
1.85708e-09
1.91502e-08
5.91276e-08
2.01837e-10
8.69084e-06
3.9759e-05
6.73676e-20
0.124805
1
1
1
0.244774
6.89459e-35
7.04123e-18
7.36621e-18
3.99451e-18
1.60596e-18
2.38159e-18
7.07613e-18
1.60719e-17
3.29136e-17
7.04681e-17
1.50233e-16
3.11753e-16
6.79753e-16
1.39277e-15
2.09773e-15
2.5901e-15
5.53973e-15
4.77957e-14
1.01464e-13
9.18771e-15
6.46966e-08
3.52473e-07
8.19967e-08
6.90069e-09
8.66959e-11
1.12627e-10
1.02019e-10
7.95522e-12
7.92099e-29
0.000220757
0.000162137
4.47423e-08
8.67105e-11
1.36897e-10
2.46111e-10
7.92247e-12
1.01178e-12
5.39538e-13
2.00222e-13
8.99078e-14
4.67577e-15
5.37704e-19
3.64701e-25
1.50064e-36
0.983541
0.00404777
3.76053e-06
-5.44385e-29
1.71133e-10
8.67424e-07
4.8538e-08
1.5884e-07
1.82127e-05
6.60409e-06
1.65005e-05
0.294825
1
1
0.962778
-5.92689e-19
4.88241e-16
3.5067e-15
3.12821e-15
1.88217e-15
7.26743e-16
3.00028e-16
3.26744e-16
5.78868e-16
1.12816e-15
2.08593e-15
3.70758e-15
6.13977e-15
1.06426e-14
2.16697e-14
4.5367e-14
1.11863e-13
2.09269e-13
4.27532e-14
8.66236e-15
2.09805e-08
5.57653e-09
6.9091e-11
1.30044e-10
1.35162e-10
1.15005e-11
-4.11593e-29
3.84558e-31
3.3383e-05
2.59143e-05
3.49996e-12
3.49996e-12
4.1269e-12
1.19022e-11
2.60485e-11
7.05752e-13
2.91058e-13
8.09935e-14
1.73044e-14
2.84689e-15
5.41128e-17
3.81923e-21
1.59833e-26
6.16521e-34
1.13109e-44
0.983468
0.0114446
4.92077e-06
-1.60672e-28
4.20767e-07
7.18931e-07
2.34008e-06
7.36087e-07
5.76267e-09
1.77829e-05
9.76326e-07
0.264815
1
1
0.412885
7.03296e-16
2.6442e-14
3.95086e-14
2.97196e-14
1.49665e-14
5.79444e-15
3.8876e-15
4.18815e-15
6.24552e-15
9.62589e-15
1.37958e-14
2.28904e-14
5.56431e-14
1.75813e-13
5.29603e-13
1.34109e-12
2.6877e-12
7.0353e-12
1.40028e-10
8.01124e-10
7.28833e-11
4.56664e-11
1.21022e-10
6.56164e-11
4.34784e-28
6.82064e-06
5.83888e-06
1.39279e-06
3.49996e-12
3.49996e-12
4.25412e-12
5.01555e-12
4.80029e-12
2.50549e-12
6.01579e-14
3.25893e-14
3.13524e-15
1.07064e-16
6.20367e-18
5.60027e-20
1.80602e-23
3.39616e-29
2.96781e-34
2.59404e-42
-3.98297e-45
0.983408
0.0407425
1.92526e-07
4.77581e-09
1.88108e-07
8.14317e-10
3.86414e-06
5.76267e-09
3.03432e-06
0.000198921
1.11085e-06
0.334854
1
1
0.164899
1.9979e-14
1.57168e-13
1.26941e-13
5.95295e-14
1.93095e-14
1.05708e-14
1.06001e-14
1.23182e-14
1.57352e-14
2.25743e-14
4.53738e-14
1.12493e-13
2.64977e-13
5.64551e-13
1.34667e-12
4.04475e-12
1.17605e-11
3.73375e-11
1.36128e-10
1.28382e-10
7.13468e-11
1.74301e-11
5.31104e-29
2.96854e-07
1.71519e-06
1.3037e-07
5.67036e-12
6.21016e-12
6.4802e-12
6.01624e-12
5.32344e-12
3.86497e-12
1.06554e-12
5.42917e-15
3.77272e-16
2.29036e-17
7.95778e-20
1.11834e-21
8.61955e-24
7.37501e-27
4.00539e-31
3.21474e-37
2.95535e-42
-3.54927e-46
-6.59708e-47
0.983362
0.0119099
3.56106e-05
8.7506e-10
8.14317e-10
5.07021e-07
7.28106e-08
4.54673e-06
2.24581e-05
0.000209913
-2.02174e-23
0.362013
1
1
0.080947
1.27454e-13
3.8369e-13
1.90606e-13
4.05192e-14
1.2548e-14
1.16851e-14
1.19665e-14
1.33462e-14
1.8302e-14
2.64135e-14
4.97635e-14
2.97845e-13
2.29871e-12
1.1529e-11
2.60683e-11
3.13331e-11
6.80208e-11
3.58956e-10
4.67704e-10
3.30326e-10
1.59081e-11
2.67253e-07
6.74434e-07
1.9198e-10
2.45397e-11
5.85148e-11
5.78804e-11
1.66417e-11
7.14777e-12
4.79123e-12
2.00657e-12
2.2017e-13
2.00177e-15
2.43595e-19
2.69354e-20
3.06662e-23
9.40218e-26
6.19925e-28
1.07041e-30
3.47093e-34
6.81794e-39
4.44833e-45
-2.14507e-47
-2.02706e-47
-6.37272e-49
0.983259
0.110567
3.02202e-10
9.17582e-10
2.24708e-06
4.96907e-06
2.79325e-09
5.51507e-07
5.0768e-06
0.000209686
8.00655e-24
0.525259
1
1
0.0272837
4.03947e-13
6.74915e-13
1.546e-13
1.44925e-14
8.69798e-15
7.37062e-15
5.91622e-15
5.09232e-15
4.51032e-15
8.80011e-15
1.11991e-13
2.18731e-12
2.39425e-11
1.51299e-10
2.46331e-10
2.25453e-10
1.77373e-10
1.13232e-10
1.50836e-10
1.1019e-11
6.13861e-07
9.88181e-07
6.19992e-11
1.14966e-10
2.30043e-10
1.46785e-10
3.57391e-11
6.98721e-12
2.63258e-12
4.94613e-13
1.37967e-14
2.73916e-17
5.34868e-21
1.29917e-24
1.44273e-26
6.05518e-30
6.08055e-32
1.20793e-34
8.40898e-38
1.13081e-41
9.16422e-47
-1.8576e-48
-3.02994e-48
-3.85713e-49
-4.94928e-51
0.983235
0.122808
3.65302e-27
0.00069497
1.40452e-06
3.10672e-06
2.79325e-09
5.19992e-07
2.05062e-06
0.000208708
4.179e-24
0.679528
1
1
0.00304307
9.09299e-13
9.16012e-13
8.5649e-14
7.25866e-15
4.20185e-15
1.7653e-15
5.10012e-16
8.5283e-16
8.63798e-15
8.4404e-14
5.3629e-13
4.68292e-12
6.15265e-11
2.71967e-10
2.44028e-10
3.72342e-11
2.1734e-08
4.48848e-08
6.54461e-10
9.26549e-07
1.02834e-06
1.1737e-10
2.03034e-10
2.97744e-10
2.20506e-10
4.57288e-11
2.47415e-12
4.5883e-13
3.37539e-14
2.38836e-16
1.18067e-19
1.15158e-23
6.72075e-28
6.34309e-31
1.97384e-33
3.29923e-36
1.73899e-38
1.42086e-41
4.87621e-45
2.7787e-49
-9.51161e-50
-3.05752e-49
-9.87881e-50
-4.80009e-51
-3.37231e-53
0.595215
0.00294058
0.0386591
7.53308e-05
2.97023e-07
3.87201e-08
9.35481e-06
2.88053e-06
1.89736e-24
0.0001138
-1.14651e-24
0.822337
1
1
6.53479e-19
1.38023e-12
1.06026e-12
4.4215e-14
4.0596e-15
1.19263e-15
4.78518e-17
4.1175e-17
6.44455e-16
1.00765e-14
1.5778e-13
1.84106e-12
1.44057e-11
1.05863e-10
1.12561e-10
7.0678e-11
1.34583e-07
9.8515e-08
2.09746e-08
1.10263e-06
6.40431e-07
1.41231e-10
2.29627e-10
2.98666e-10
2.07694e-10
3.21859e-11
3.38357e-13
3.47517e-15
2.83566e-16
8.5187e-19
2.59446e-22
1.87937e-26
1.05348e-30
6.28671e-35
1.2702e-37
3.25672e-40
1.3798e-42
2.68042e-45
1.1796e-48
2.02276e-52
-1.07023e-51
-1.55207e-50
-1.35449e-50
-1.8468e-51
-4.62038e-53
-2.07858e-55
0.964008
0.963842
3.61418e-20
1.02081e-10
4.65568e-05
0.000430229
4.02509e-06
1.75258e-05
1.17138e-23
0.000141902
-1.12546e-20
0.917498
1
0.995542
-9.20804e-20
1.63665e-12
1.09894e-12
2.50094e-14
2.28138e-15
2.08294e-16
5.18938e-19
4.50016e-18
1.48968e-16
5.70516e-15
1.72231e-13
2.01459e-12
1.60037e-11
1.04731e-10
3.65546e-10
3.46287e-09
1.54502e-10
6.66326e-09
1.08448e-07
2.25634e-09
7.36985e-11
2.16906e-10
2.47249e-10
1.32391e-10
1.12797e-11
4.10496e-14
6.75581e-18
3.04912e-20
5.87086e-22
2.4917e-25
2.95838e-29
1.57161e-33
7.94637e-38
5.63001e-42
2.26098e-44
9.2315e-47
3.04453e-49
2.69049e-52
7.04618e-56
-2.58703e-55
-1.9427e-52
-8.0975e-52
-3.36296e-52
-2.44777e-53
-3.6931e-55
-1.17212e-57
0.791528
0.16699
0.0103613
0.147201
0.00112087
0.000278708
7.08171e-05
2.28744e-06
9.13684e-08
9.32748e-05
-1.16373e-20
0.975282
1
0.951354
-2.80998e-19
1.75859e-12
1.06738e-12
1.58504e-14
1.34094e-15
3.34302e-17
1.79163e-21
1.58157e-20
4.42906e-18
8.97919e-16
8.37218e-14
1.85001e-12
9.14354e-12
2.3705e-11
3.77381e-11
7.75213e-11
5.66494e-10
1.34078e-09
5.78291e-11
1.48721e-10
1.98864e-10
1.51126e-10
4.03644e-11
1.7611e-12
2.30689e-15
1.41426e-19
2.99018e-24
1.4488e-26
1.11047e-28
2.95889e-32
2.63518e-36
1.07812e-40
5.11876e-45
7.73664e-49
5.22543e-51
2.41623e-53
4.25406e-56
1.96996e-59
3.1399e-63
-6.95263e-56
-1.17741e-53
-2.4336e-53
-5.68169e-54
-2.51538e-55
-2.53604e-57
-6.05961e-60
0.966557
0.907196
0.961946
0.0331351
0.0100913
0.000152265
-4.59304e-24
3.83648e-05
0.000144086
3.73249e-05
-4.65033e-20
0.997635
1
0.869379
5.68005e-20
1.85271e-12
9.71059e-13
1.10737e-14
8.62124e-16
6.59364e-18
2.76095e-23
3.91803e-25
5.9163e-22
5.8751e-18
3.4046e-15
2.96982e-13
5.87302e-12
2.20825e-11
3.9004e-11
7.50738e-11
1.47068e-10
2.05876e-10
2.29626e-10
1.97087e-10
7.55737e-11
4.00514e-12
5.71469e-14
5.26978e-17
2.41543e-21
3.4082e-26
6.30329e-31
3.70587e-33
1.57695e-35
2.88958e-39
1.92793e-43
6.17235e-48
3.08629e-52
2.77519e-55
1.37045e-57
4.17833e-60
4.0734e-63
1.09459e-66
6.19344e-70
-5.53042e-57
-4.16232e-55
-4.93606e-55
-7.15138e-56
-2.10118e-57
-1.5215e-59
-2.86641e-62
0.966556
0.966567
0.279536
6.27603e-07
1.89036e-05
6.8102e-07
6.59741e-08
0.000163587
0.000295936
5.77775e-23
-1.53463e-20
1
1
0.725153
5.21102e-20
6.26284e-11
7.04576e-13
7.1687e-15
6.24342e-16
1.8106e-18
9.55727e-25
9.06632e-31
4.85337e-28
4.42003e-23
6.94354e-19
2.16343e-15
5.06616e-13
1.08828e-11
4.40026e-11
9.5625e-11
1.65607e-10
1.88548e-10
1.16094e-10
2.03909e-11
2.32611e-13
1.93594e-16
2.27948e-19
3.58809e-21
1.792e-23
1.92202e-31
1.19717e-36
7.26698e-40
1.8478e-42
2.29781e-46
1.15623e-50
3.18143e-55
2.43601e-59
9.93827e-62
2.71542e-64
4.97318e-67
2.88929e-70
5.01255e-74
6.36707e-71
-2.48621e-58
-9.93512e-57
-7.32918e-57
-7.06161e-58
-1.46685e-59
-8.04155e-62
-1.23557e-64
0.0055058
0.340056
1.49321e-07
3.08716e-05
0.000108986
6.88367e-06
0.000312863
5.45597e-05
0.000273236
2.42955e-24
0.0616504
1
1
0.594736
-6.20913e-21
1.19745e-09
7.28073e-12
4.21602e-15
5.24221e-16
7.0531e-19
8.38205e-26
4.33859e-35
5.44324e-34
5.41913e-30
2.2683e-25
1.8763e-20
2.82347e-16
1.12763e-13
3.15351e-12
1.41054e-11
1.98869e-11
9.44294e-12
9.25889e-13
5.04518e-15
8.67405e-19
8.91838e-23
1.87327e-23
6.75868e-22
4.43548e-24
3.74228e-32
1.27818e-35
1.01339e-41
2.01717e-49
1.49971e-53
5.85304e-58
1.43446e-62
5.92602e-66
2.17567e-68
3.73869e-71
4.32643e-74
1.60915e-77
1.77512e-81
2.91945e-72
-7.43239e-60
-1.72305e-58
-8.37165e-59
-5.65217e-60
-8.70792e-62
-3.75907e-64
-4.83155e-67
0.00193814
1.49321e-07
0.00595614
0.000719957
5.90552e-06
0.000463029
0.000787888
8.34854e-25
0.00016169
8.76253e-25
0.312111
1
1
0.436603
1.37332e-21
2.05168e-09
3.64493e-11
3.19746e-15
4.82047e-16
3.76582e-19
1.43075e-26
6.61939e-36
1.6193e-39
5.56631e-36
8.921e-32
1.59358e-27
2.06718e-22
1.23302e-18
3.36762e-16
4.38096e-15
5.16004e-15
8.00729e-16
8.76922e-18
3.28253e-21
1.25139e-25
1.67874e-29
1.54596e-25
2.74229e-24
1.82219e-26
1.4643e-32
5.84919e-35
2.65187e-41
1.28907e-50
8.84506e-60
2.47819e-65
7.96943e-70
1.66248e-72
3.11766e-75
3.51656e-78
2.38462e-81
-4.75581e-82
-1.22168e-83
9.1512e-74
-1.59637e-61
-2.27339e-60
-7.60452e-61
-3.74979e-62
-4.4477e-64
-1.55735e-66
-1.70759e-69
0.104265
0.240196
2.9071e-05
2.9071e-05
0.00327653
0.00279853
2.5505e-08
-9.32453e-25
5.07845e-05
1.61768e-15
0.596265
1
1
0.270735
8.38561e-11
1.60882e-09
5.4939e-11
2.5847e-15
4.43508e-16
2.60037e-19
4.51055e-27
2.10223e-36
1.92397e-44
3.95602e-40
2.61357e-35
1.77055e-33
4.77048e-29
3.78304e-25
1.61951e-22
2.85517e-21
3.1107e-21
4.10212e-22
2.51651e-22
2.25214e-24
1.19301e-32
5.38e-35
3.29609e-30
1.60949e-29
1.20795e-31
2.08017e-33
3.24401e-35
2.25723e-43
2.02825e-53
7.47065e-63
2.8836e-72
2.48957e-77
-8.79837e-76
-5.35615e-77
-2.12563e-78
-5.62025e-80
-1.09422e-81
-1.58736e-83
2.15751e-75
-2.57949e-63
-2.35433e-62
-5.62187e-63
-2.09343e-64
-1.96863e-66
-5.72261e-69
-5.43507e-72
0.355304
0.0505012
2.9071e-05
0.00503171
0.00307091
2.5505e-08
1.07721e-05
0.000344966
3.19307e-22
3.20452e-15
0.838258
1
1
0.142881
2.58279e-11
4.61971e-10
6.70955e-11
2.60036e-15
4.00894e-16
2.08984e-19
2.00628e-27
7.93069e-37
1.26695e-46
1.94891e-44
2.50899e-38
1.91257e-37
2.96937e-35
1.16635e-31
2.46862e-29
2.99072e-28
3.52739e-28
3.64084e-25
5.55919e-24
4.44438e-26
1.35503e-60
8.72958e-41
7.68556e-37
2.42137e-36
2.21069e-38
2.87585e-36
4.85638e-37
1.5551e-47
1.65089e-57
4.14074e-67
-1.05542e-73
-3.67815e-74
-2.34202e-75
-8.90729e-77
-2.43244e-78
-5.06606e-80
-8.15158e-82
-1.00915e-83
3.88578e-77
-3.23807e-65
-1.95957e-64
-3.44308e-65
-9.95334e-67
-7.6002e-69
-1.8678e-71
-1.55517e-74
0.0471716
2.9071e-05
0.00526618
0.00327624
1.69608e-06
2.55045e-08
1.16373e-05
0.00028
5.57199e-24
2.55045e-33
0.968804
1
1
0.0534957
2.42819e-11
2.04804e-10
4.91365e-11
4.5314e-15
3.4234e-16
1.92926e-19
1.61478e-27
4.35365e-37
5.73551e-47
1.44109e-65
6.6313e-43
2.1582e-41
2.35595e-41
3.66712e-38
4.2665e-36
3.41243e-35
6.95487e-34
2.48261e-29
3.91512e-28
1.51559e-30
4.15697e-67
1.60213e-47
7.62677e-44
2.33727e-43
2.67536e-45
9.16887e-42
9.86506e-42
1.08815e-52
1.76373e-62
2.29487e-72
-6.45156e-73
-5.34819e-74
-2.28308e-75
-6.86247e-77
-1.57922e-78
-2.8494e-80
-4.02727e-82
-4.40834e-84
5.47202e-79
-3.23007e-67
-1.33376e-66
-1.76967e-67
-4.06409e-69
-2.56878e-71
-5.41519e-74
-3.99251e-77
2.69605e-05
0.000949865
0.000166646
1.36336e-05
1.4463e-05
6.34474e-06
1.00618e-06
0.000225393
-9.97193e-25
6.74169e-33
1
1
1
0.00890732
3.75759e-11
1.17222e-10
2.6498e-11
4.97394e-15
2.64247e-16
1.82575e-19
1.29868e-27
2.76929e-37
2.67869e-47
-4.07715e-48
9.12922e-49
2.95983e-46
2.7549e-46
1.02558e-44
7.02348e-43
3.7212e-42
7.87862e-40
1.05052e-35
1.27899e-34
3.48132e-37
1.9268e-75
1.85553e-54
5.91626e-51
1.86012e-50
2.61325e-52
1.63476e-48
2.1871e-48
4.2149e-58
4.81763e-68
-7.58101e-72
-8.89131e-73
-4.25186e-74
-1.3993e-75
-3.55002e-77
-7.13428e-79
-1.13935e-80
-1.43274e-82
-1.39972e-84
6.17048e-81
-2.60663e-69
-7.52846e-69
-7.71326e-70
-1.43497e-71
-7.62895e-74
-1.39636e-76
-9.18961e-80
2.69914e-05
7.54945e-05
0.000524706
0.000315334
1.07696e-08
3.15833e-08
1.00618e-06
3.44136e-05
1.33846e-14
0.00528283
1
1
1
1.99509e-19
5.54426e-11
7.44794e-11
1.13293e-11
2.47317e-15
1.92415e-16
1.49863e-19
9.48488e-28
1.71747e-37
1.7127e-47
-1.75287e-47
-6.3431e-49
2.70588e-52
1.88453e-51
2.57202e-51
1.14869e-49
4.20242e-49
1.71135e-46
1.18585e-42
1.24895e-41
3.335e-44
-2.0429e-61
1.74691e-61
4.28935e-58
1.35625e-57
2.36382e-59
1.98647e-55
2.29237e-55
8.40767e-64
-5.92624e-71
-1.18791e-71
-6.29603e-73
-2.22165e-74
-6.08125e-76
-1.34793e-77
-2.40615e-79
-3.43438e-81
-3.87052e-83
-3.39321e-85
5.66925e-83
-1.72501e-71
-3.56277e-71
-2.87356e-72
-4.40341e-74
-1.99585e-76
-3.20287e-79
-1.89505e-82
0.000530887
0.000669967
0.000421039
9.40557e-23
0.00016845
0.000105856
0.00031966
1.36626e-06
1.01691e-14
0.43962
1
1
0.97684
2.59223e-19
6.62672e-11
5.18186e-11
3.3107e-12
7.37711e-16
1.37209e-16
1.13675e-19
7.83943e-28
1.503e-37
1.09221e-47
-4.882e-47
-1.98585e-48
-1.05613e-49
-5.04678e-51
-2.84627e-52
-1.06538e-53
2.79619e-56
2.18208e-53
9.61716e-50
9.46063e-49
2.45006e-51
-1.07132e-60
-8.7568e-62
-1.78982e-63
6.65409e-65
1.34718e-66
1.72489e-62
1.77153e-62
5.88949e-70
-1.50952e-70
-8.33879e-72
-3.06956e-73
-8.87344e-75
-2.10346e-76
-4.12713e-78
-6.60344e-80
-8.46999e-82
-8.59646e-84
-6.78913e-86
4.29289e-85
-9.47128e-74
-1.42658e-73
-9.21522e-75
-1.17992e-76
-4.61143e-79
-6.54523e-82
-3.50038e-85
7.3798e-22
0.000167235
2.34842e-40
-1.35377e-22
0.000113214
6.47067e-05
0.000319648
3.25076e-23
1.35708e-15
0.795362
1
1
0.755674
-4.6736e-20
7.35e-11
3.67616e-11
6.3232e-13
2.54182e-16
9.04975e-17
7.75908e-20
5.46776e-28
8.90405e-38
6.58318e-48
-9.25048e-47
-3.87391e-48
-2.24671e-49
-1.26556e-50
-7.22668e-52
-4.03417e-53
-2.28981e-54
-1.07446e-55
5.87956e-57
5.9647e-56
1.43977e-58
-2.25632e-60
-1.50886e-61
-9.23012e-63
-5.21991e-64
-2.87682e-65
-5.99486e-67
6.04537e-70
-2.16495e-69
-1.17992e-70
-4.29442e-72
-1.27327e-73
-3.16226e-75
-6.60281e-77
-1.15135e-78
-1.65425e-80
-1.91237e-82
-1.75225e-84
-1.25189e-86
2.64163e-87
-4.35509e-76
-4.87006e-76
-2.55748e-77
-2.77044e-79
-9.42856e-82
-1.19193e-84
-5.79287e-88
1.92125e-07
4.05811e-18
-1.84845e-23
0.00164904
8.19131e-05
3.5449e-05
0.000259341
3.47133e-24
1.01415e-33
0.985798
1
1
0.496472
2.639e-21
7.58073e-11
2.79933e-11
9.49581e-14
1.10022e-16
5.2985e-17
4.45615e-20
2.69126e-28
4.3639e-38
3.34584e-48
-1.23275e-46
-5.87296e-48
-3.20668e-49
-1.87338e-50
-1.08313e-51
-6.2613e-53
-3.66716e-54
-2.17206e-55
-1.21758e-56
-5.99552e-58
-4.265e-59
-3.04009e-60
-1.81068e-61
-1.02919e-62
-5.50744e-64
-2.74307e-65
-1.16247e-66
-4.55489e-68
-1.86925e-69
-6.58849e-71
-1.96282e-72
-5.01847e-74
-1.09758e-75
-2.036e-77
-3.16863e-79
-4.08623e-81
-4.26385e-83
-3.53539e-85
-2.2911e-87
2.93468e-90
-1.68999e-78
-1.42635e-78
-6.17124e-80
-5.7183e-82
-1.70897e-84
-1.93645e-87
-8.58912e-91
1.62439e-07
3.32212e-13
1.05649e-06
0.000110183
0.00043059
4.85567e-05
0.00013306
6.5516e-16
-3.45442e-19
1
1
1
0.213066
4.10422e-12
7.36202e-11
2.28169e-11
2.1437e-14
4.25716e-17
2.48718e-17
2.09928e-20
8.98595e-29
1.46696e-38
8.56833e-49
-1.20901e-46
-6.79972e-48
-3.42845e-49
-2.01026e-50
-1.17131e-51
-6.82573e-53
-4.00901e-54
-2.37735e-55
-1.41358e-56
-8.34274e-58
-4.942e-59
-2.87777e-60
-1.5971e-61
-8.41216e-63
-4.14838e-64
-1.89184e-65
-7.82899e-67
-2.93151e-68
-9.99023e-70
-3.01236e-71
-7.92414e-73
-1.80636e-74
-3.53656e-76
-5.88648e-78
-8.23121e-80
-9.54964e-82
-9.02972e-84
-6.7958e-86
-4.00538e-88
-1.75067e-90
-5.57134e-81
-3.60273e-81
-1.29984e-82
-1.04019e-84
-2.75017e-87
-2.80851e-90
-1.14129e-93
3.22309e-11
3.09117e-11
2.99872e-06
0.00215617
0.000157641
0.000241884
3.13719e-05
1.15092e-18
0.438257
1
1
1
0.047736
5.17266e-12
6.16782e-11
1.87418e-11
1.04911e-14
2.14188e-17
6.57317e-18
7.37164e-21
3.02903e-29
3.73642e-39
4.95403e-50
-9.03782e-47
-5.83001e-48
-2.86447e-49
-1.64465e-50
-9.52647e-52
-5.52179e-53
-3.21372e-54
-1.87846e-55
-1.09688e-56
-6.34114e-58
-3.59641e-59
-1.97507e-60
-1.03473e-61
-5.10836e-63
-2.34584e-64
-9.90442e-66
-3.80243e-67
-1.31461e-68
-4.0602e-70
-1.10708e-71
-2.63878e-73
-5.45e-75
-9.66247e-77
-1.45642e-78
-1.84332e-80
-1.93541e-82
-1.66275e-84
-1.13969e-86
-6.12718e-89
-2.53255e-91
-1.56907e-83
-7.88498e-84
-2.39784e-85
-1.67145e-87
-3.93495e-90
-3.63943e-93
-1.35945e-96
3.7216e-11
4.49182e-05
6.30481e-25
0.00215556
-1.24769e-23
0.000179823
4.89466e-05
-2.06907e-23
0.875134
1
1
1
0.00176798
5.97106e-12
4.69962e-11
1.47523e-11
7.64445e-15
2.64575e-17
8.99637e-19
1.33258e-21
8.21606e-30
8.69548e-40
-1.21607e-46
-5.27457e-47
-3.77545e-48
-1.91254e-49
-1.056e-50
-5.99908e-52
-3.41892e-53
-1.9525e-54
-1.11521e-55
-6.33043e-57
-3.53843e-58
-1.92561e-59
-1.0074e-60
-5.00098e-62
-2.3257e-63
-1.00059e-64
-3.9388e-66
-1.40442e-67
-4.49163e-69
-1.27695e-70
-3.19522e-72
-6.97323e-74
-1.31593e-75
-2.12884e-77
-2.9242e-79
-3.37069e-81
-3.22121e-83
-2.51802e-85
-1.57893e-87
-7.76364e-90
-2.94008e-92
-3.79361e-86
-1.50164e-86
-3.88622e-88
-2.37769e-90
-5.01379e-93
-4.21739e-96
-1.4527e-99
5.21571e-05
4.38503e-05
7.52477e-26
0.000722064
-5.80575e-25
0.00073348
1.41647e-22
2.99959e-21
1
1
1
1
9.74883e-20
7.10695e-12
3.38219e-11
1.08524e-11
5.78134e-15
3.84413e-17
6.3374e-20
9.59854e-23
9.98328e-31
1.31031e-40
-8.40775e-47
-2.44698e-47
-1.89976e-48
-1.0206e-49
-5.42795e-51
-2.99141e-52
-1.66029e-53
-9.22272e-55
-5.10791e-56
-2.80162e-57
-1.50641e-58
-7.84674e-60
-3.91001e-61
-1.84033e-62
-8.07723e-64
-3.26568e-65
-1.20294e-66
-3.99791e-68
-1.18776e-69
-3.12687e-71
-7.22336e-73
-1.45151e-74
-2.51656e-76
-3.73358e-78
-4.69689e-80
-4.95349e-82
-4.32765e-84
-3.08943e-86
-1.7746e-88
-8.00776e-91
-2.78706e-93
-7.90859e-89
-2.49702e-89
-5.54848e-91
-2.99973e-93
-5.69469e-96
-4.3736e-99
-1.393e-102
2.3474e-06
7.1389e-06
2.54907e-25
0.000352372
-5.5498e-23
0.000766823
-3.36167e-24
0.378674
1
1
1
0.61472
-6.33846e-21
8.35483e-12
2.23576e-11
7.28102e-12
3.95551e-15
4.08801e-17
1.56116e-20
1.12712e-24
2.03272e-32
1.63888e-42
-3.80632e-47
-9.16511e-48
-7.58564e-49
-4.33038e-50
-2.26009e-51
-1.20169e-52
-6.44502e-54
-3.45753e-55
-1.84513e-56
-9.72268e-58
-5.00792e-59
-2.48997e-60
-1.17993e-61
-5.26187e-63
-2.18055e-64
-8.29679e-66
-2.86592e-67
-8.90135e-69
-2.46413e-70
-6.02643e-72
-1.29039e-73
-2.39703e-75
-3.8333e-77
-5.23587e-79
-6.05577e-81
-5.86734e-83
-4.70351e-85
-3.07915e-87
-1.62247e-89
-6.74033e-92
-2.16077e-94
-1.42716e-91
-3.63779e-92
-6.99612e-94
-3.36315e-96
-5.77504e-99
-4.06383e-102
-1.1994e-105
5.97098e-05
3.02715e-05
0.00161022
7.8694e-23
0.00122172
3.57195e-05
-2.64302e-20
0.903742
1
1
1
0.227129
1.13578e-12
8.69398e-12
1.33323e-11
4.29617e-12
2.30329e-15
3.28364e-17
1.74162e-20
4.65368e-28
3.50033e-36
2.39766e-46
-1.2338e-47
-2.80574e-48
-2.44112e-49
-1.46784e-50
-7.65924e-52
-3.93429e-53
-2.02958e-54
-1.04581e-55
-5.34949e-57
-2.69566e-58
-1.32483e-59
-6.2687e-61
-2.8197e-62
-1.19019e-63
-4.65643e-65
-1.66847e-66
-5.41107e-68
-1.57321e-69
-4.06688e-71
-9.26585e-73
-1.84427e-74
-3.17682e-76
-4.69997e-78
-5.92934e-80
-6.32708e-82
-5.6507e-84
-4.17178e-86
-2.51376e-88
-1.21764e-90
-4.66764e-93
-1.38138e-95
-2.23682e-94
-4.65597e-95
-7.80586e-97
-3.35505e-99
-5.23362e-102
-3.38442e-105
-9.27753e-109
1.5202e-05
1.40099e-08
0.00131956
1.77435e-23
0.000771669
-9.52675e-24
-7.3812e-19
1
1
1
1
0.0171542
2.63168e-12
8.09858e-12
7.26441e-12
2.00229e-12
9.8765e-16
2.38054e-17
1.88233e-20
3.67213e-29
1.0409e-39
3.45562e-50
-3.34838e-48
-7.08532e-49
-6.41049e-50
-4.01909e-51
-2.11776e-52
-1.05838e-53
-5.24514e-55
-2.58658e-56
-1.26314e-57
-6.06424e-59
-2.83404e-60
-1.27278e-61
-5.42402e-63
-2.16485e-64
-7.99185e-66
-2.69668e-67
-8.21836e-69
-2.24008e-70
-5.41638e-72
-1.15189e-73
-2.13575e-75
-3.42114e-77
-4.69632e-79
-5.48841e-81
-5.41829e-83
-4.47397e-85
-3.05209e-87
-1.69812e-89
-7.59203e-92
-2.68763e-94
-7.36522e-97
-3.06934e-97
-5.24976e-98
-7.7248e-100
-2.98413e-102
-4.24462e-105
-2.53006e-108
-6.45358e-112
1.40099e-08
4.10071e-05
0.000179532
0.000365294
5.09814e-06
-9.04441e-23
0.800723
1
1
1
1
-2.05105e-19
3.98113e-12
6.98753e-12
3.51519e-12
6.2419e-13
2.59237e-16
1.35788e-17
2.10592e-20
4.06665e-29
7.84933e-40
1.77587e-50
-7.32511e-49
-1.48578e-49
-1.38768e-50
-8.98814e-52
-4.79384e-53
-2.3501e-54
-1.12122e-55
-5.28516e-57
-2.45799e-58
-1.12093e-59
-4.96789e-61
-2.11304e-62
-8.51685e-64
-3.21019e-65
-1.11766e-66
-3.5509e-68
-1.01752e-69
-2.60262e-71
-5.89413e-73
-1.17196e-74
-2.02836e-76
-3.0282e-78
-3.86708e-80
-4.19764e-82
-3.84432e-84
-2.94315e-86
-1.86088e-88
-9.58667e-91
-3.9684e-93
-1.29995e-95
-3.30684e-98
-4.28053e-100
-5.23482e-101
-6.79208e-103
-2.3689e-105
-3.08332e-108
-1.69832e-111
-4.03814e-115
1.40099e-08
0.00243365
2.642e-06
5.4826e-05
-1.00763e-23
1.47725e-18
1
1
1
1
0.548379
-3.65335e-21
4.69194e-12
5.38092e-12
1.3836e-12
1.29584e-13
3.81897e-17
4.36796e-18
1.5287e-20
3.72215e-29
6.17286e-40
1.59013e-50
-1.30655e-49
-2.60621e-50
-2.49628e-51
-1.65726e-52
-8.93417e-54
-4.32281e-55
-1.99426e-56
-8.99268e-58
-3.97916e-59
-1.72051e-60
-7.2173e-62
-2.90202e-63
-1.10467e-64
-3.92836e-66
-1.28904e-67
-3.85666e-69
-1.03934e-70
-2.49658e-72
-5.30185e-74
-9.86907e-76
-1.59737e-77
-2.22709e-79
-2.65167e-81
-2.68003e-83
-2.28299e-85
-1.62461e-87
-9.54567e-90
-4.56853e-92
-1.75613e-94
-5.33772e-97
-1.2624e-99
-2.6458e-102
-4.90424e-104
-5.34336e-106
-1.68283e-108
-2.00958e-111
-1.02503e-114
-2.27542e-118
0.00035685
0.000280943
2.65915e-05
2.5849e-07
-1.62174e-20
0.865
1
1
1
1
0.11346
3.82516e-13
4.22027e-12
3.66446e-12
4.50108e-13
2.0092e-14
4.12439e-18
6.76471e-19
2.00929e-21
7.36334e-30
3.22591e-40
5.41639e-51
-4.39058e-49
-5.03405e-50
-3.87868e-51
-2.20212e-52
-9.73965e-54
-3.53797e-55
-1.11551e-56
-3.27712e-58
-9.63202e-60
-3.01198e-61
-1.01341e-62
-3.54248e-64
-1.22655e-65
-4.0501e-67
-1.24464e-68
-3.49732e-70
-8.85842e-72
-1.99924e-73
-3.98363e-75
-6.95096e-77
-1.05364e-78
-1.37426e-80
-1.52924e-82
-1.44196e-84
-1.14532e-86
-7.59385e-89
-4.1573e-91
-1.8537e-93
-6.63523e-96
-1.87779e-98
-4.1332e-101
-6.95762e-104
-1.2191e-106
-4.47819e-109
-1.11581e-111
-1.19483e-114
-5.6168e-118
-1.16295e-121
6.98458e-05
0.000436393
5.92037e-07
1.50994e-08
0.29475
1
1
1
1
1
-2.44345e-19
8.86488e-13
3.14574e-12
2.12173e-12
1.28906e-13
3.7962e-15
4.94554e-19
2.0978e-19
3.41495e-23
8.63092e-33
1.20748e-43
-9.76019e-44
-1.19004e-44
-9.4153e-46
-5.54378e-47
-2.54203e-48
-9.34133e-50
-2.82239e-51
-7.17133e-53
-1.56775e-54
-3.00671e-56
-5.14153e-58
-7.93072e-60
-1.11395e-61
-1.43807e-63
-1.71303e-65
-1.89708e-67
-1.96486e-69
-1.90401e-71
-1.7448e-73
-1.54643e-75
-1.36072e-77
-1.21737e-79
-1.0949e-81
-9.49667e-84
-7.54691e-86
-5.28597e-88
-3.17045e-90
-1.59207e-92
-6.56213e-95
-2.1801e-97
-5.73765e-100
-1.1759e-102
-1.83785e-105
-2.15752e-108
-2.02007e-111
-1.65609e-114
-1.0288e-117
-3.74098e-121
-6.77298e-125
7.31154e-05
0.000439719
6.17674e-24
0.0399418
1
1
1
1
1
0.50415
7.47555e-20
1.13113e-12
1.96879e-12
9.82302e-13
3.40566e-14
1.64809e-15
1.01789e-19
5.91242e-20
8.12781e-24
-6.69192e-53
-1.17868e-33
-8.38811e-35
-3.70596e-36
-1.27237e-37
-3.66372e-39
-9.08991e-41
-1.95782e-42
-3.69653e-44
-6.18714e-46
-9.25277e-48
-1.25176e-49
-1.54583e-51
-1.75788e-53
-1.85479e-55
-1.82752e-57
-1.68271e-59
-1.45083e-61
-1.16744e-63
-8.76698e-66
-6.11015e-68
-3.93205e-70
-2.32407e-72
-1.25362e-74
-6.09692e-77
-2.6503e-79
-1.02327e-81
-3.45372e-84
-1.01018e-86
-2.52375e-89
-5.30691e-92
-9.25536e-95
-1.31791e-97
-1.49549e-100
-1.32335e-103
-8.79888e-107
-4.29155e-110
-1.47542e-113
-3.42168e-117
-5.09686e-121
-4.57544e-125
0.000286678
3.97345e-05
0.0270523
1
1
1
1
1
1
0.0395595
1.73943e-13
1.09449e-12
1.12214e-12
3.35719e-13
7.6514e-15
1.04428e-15
1.26638e-19
9.68081e-21
1.69843e-24
-4.15006e-31
-7.54633e-32
-4.33486e-33
-1.73621e-34
-5.69664e-36
-1.60336e-37
-3.9367e-39
-8.47757e-41
-1.60639e-42
-2.69896e-44
-4.04838e-46
-5.47423e-48
-6.7213e-50
-7.56536e-52
-7.86561e-54
-7.57435e-56
-6.7916e-58
-5.66188e-60
-4.39335e-62
-3.16615e-64
-2.10905e-66
-1.293e-68
-7.23504e-71
-3.67694e-73
-1.68255e-75
-6.86226e-78
-2.47522e-80
-7.79752e-83
-2.12755e-85
-4.94113e-88
-9.64866e-91
-1.56358e-93
-2.05329e-96
-2.15621e-99
-1.76769e-102
-1.09389e-105
-4.93866e-109
-1.56985e-112
-3.39848e-116
-4.67186e-120
-3.85094e-124
0.22399
0.184888
1
1
1
1
1
1
0.855829
1.40509e-17
4.31424e-13
8.20634e-13
5.43666e-13
8.42389e-14
1.63911e-15
4.39304e-16
3.59334e-19
5.53287e-22
1.28858e-25
-1.21472e-29
-1.21797e-30
-6.13351e-32
-2.39645e-33
-7.89553e-35
-2.24805e-36
-5.59221e-38
-1.22367e-39
-2.35672e-41
-4.02262e-43
-6.12038e-45
-8.37611e-47
-1.03575e-48
-1.16747e-50
-1.20637e-52
-1.14731e-54
-1.00887e-56
-8.20396e-59
-6.17949e-61
-4.2892e-63
-2.7386e-65
-1.60028e-67
-8.5286e-70
-4.1012e-72
-1.7703e-74
-6.80618e-77
-2.29866e-79
-6.77173e-82
-1.71823e-84
-3.72759e-87
-6.75892e-90
-1.01613e-92
-1.24139e-95
-1.20471e-98
-9.10451e-102
-5.19048e-105
-2.18219e-108
-6.41753e-112
-1.28493e-115
-1.62699e-119
-1.24492e-123
1
1
1
1
1
1
1
1
1
1
1
1
1
1
1
1
1
1
1
1
1
1
1
1
1
1
1
1
1
1
1
1
1
1
1
1
1
1
1
1
1
1
0.999999
1
1
1
1
1
1
1
1
1
1
1
1
1
1
1
1
1
1
1
1
0.999999
1
0.999999
1
1
1
1
1
1
1
1
1
1
1
1
1
1
1
1
1
1
1
1
0.999999
1
1
1
1
1
1
1
1
1
1
1
1
1
1
1
1
1
1
1
1
0.999999
0.999999
1
1
1
1
1
1
1
1
1
1
1
1
1
1
1
1
1
1
1
1
1
1
1
1
1
1
1
1
1
1
1
1
1
1
1
1
1
1
1
1
1
0.999999
1
1
1
0.999999
0.999999
1
1
1
1
1
1
1
1
1
1
1
1
1
1
1
1
1
1
1
0.999999
1
1
0.999999
1
1
1
1
1
1
1
1
1
1
1
1
1
1
0.999999
1
1
1
1
1
0.999999
1
1
1
1
1
1
1
1
1
1
1
1
1
1
1
1
1
1
1
1
1
1
1
1
1
1
1
1
1
1
1
1
1
1
1
1
1
1
1
1
0.0364634
0.894123
0.975814
1
1
1
1
1
1
1
1
1
1
1
0.999628
0.996403
0.985933
0.96127
0.902403
0.790915
-1.86427e-22
5.60296e-22
9.72504e-22
1.10964e-21
-5.63785e-24
-2.52795e-23
-4.64627e-23
-8.2589e-23
-1.31509e-22
-1.89355e-22
-2.56703e-22
-3.37483e-22
-4.32415e-22
-5.46143e-22
-6.85305e-22
-8.50765e-22
-1.04134e-21
-1.26085e-21
-1.51749e-21
-1.85621e-21
-6.22933e-23
-1.68705e-22
-3.78008e-22
-5.87569e-22