/*--------------------------------*- C++ -*----------------------------------*\
| =========                 |                                                 |
| \\      /  F ield         | OpenFOAM: The Open Source CFD Toolbox           |
|  \\    /   O peration     | Version:  v1912                                 |
|   \\  /    A nd           | Website:  www.openfoam.com                      |
|    \\/     M anipulation  |                                                 |
\*---------------------------------------------------------------------------*/
FoamFile
{
    version     2.0;
    format      ascii;
    class       surfaceScalarField;
    location    "10";
    object      alphaPhi0.water;
}
// * * * * * * * * * * * * * * * * * * * * * * * * * * * * * * * * * * * * * //

dimensions      [0 3 -1 0 0 0 0];
oriented        oriented;


internalField   nonuniform List<scalar> 
40282
(
0.00305856
0.00214933
1.95071
-1.95815
1.95388
0.0042708
-1.94701
1.9376
0.00941011
-1.92571
1.91168
0.0140283
-1.89576
1.87777
0.0179864
-1.85752
1.83574
0.0217797
-1.81315
1.7893
0.0238499
-1.76402
1.73825
0.0257752
-1.71272
1.68745
0.0252679
-1.66256
1.6386
0.0239624
-1.61558
1.59211
0.0234754
-1.56568
1.53359
0.0320811
-1.49348
1.44332
0.050155
-1.38145
1.30647
0.0749796
-1.21729
1.11321
0.104082
-0.993993
0.859788
0.134205
-0.711739
0.553814
0.157924
-0.393814
0.242105
0.151709
-0.109598
0.00736362
0.102235
0.0539976
-0.0624239
0.00842633
-0.00347006
0.00465702
1.88467
-1.88101
1.87534
-0.0114186
0.0170843
-1.86748
1.85737
-0.0204573
0.0305669
-1.84502
1.83052
-0.0288756
0.0433739
-1.81393
1.79542
-0.036774
0.0552801
-1.77524
1.75315
-0.0436011
0.0656847
-1.72918
1.70399
-0.0490563
0.0742535
-1.6777
1.64988
-0.0525692
0.0803835
-1.62041
1.58893
-0.0539994
0.0854888
-1.5541
1.51418
-0.0563674
0.0962882
-1.46783
1.41493
-0.0647462
0.117642
-1.35634
1.29314
-0.0841416
0.147339
-1.22624
1.15629
-0.114481
0.184434
-1.08378
1.00914
-0.152687
0.227326
-0.932853
0.85554
-0.194537
0.271851
-0.777982
0.701136
-0.233324
0.310169
-0.625921
0.552759
-0.256501
0.329663
-0.481251
0.410241
-0.244527
0.315537
-0.338074
0.262686
-0.185795
0.261183
-0.182234
0.095129
-0.0822707
0.169376
-0.00588047
0.00707718
1.81709
-1.81349
1.80751
-0.023132
0.0291123
-1.79933
1.78902
-0.0411856
0.0514957
-1.77635
1.7614
-0.05838
0.0733262
-1.74446
1.7253
-0.0743696
0.0935217
-1.70404
1.68123
-0.0887567
0.111567
-1.6566
1.62963
-0.100282
0.127252
-1.60043
1.56833
-0.110411
0.142507
-1.53155
1.48891
-0.122969
0.165605
-1.44064
1.38763
-0.145772
0.198786
-1.33075
1.27072
-0.177
0.237031
-1.20813
1.14353
-0.213637
0.278232
-1.07752
1.01071
-0.254885
0.3217
-0.943707
0.877122
-0.299225
0.36581
-0.811512
0.747349
-0.342593
0.406757
-0.684944
0.624361
-0.377554
0.438137
-0.565304
0.507025
-0.393543
0.451821
-0.448314
0.387611
-0.380346
0.441049
-0.323224
0.25357
-0.334799
0.404453
-0.17733
0.0933975
-0.25907
0.343002
-0.00830013
0.00949331
1.75196
-1.74848
1.74277
-0.035012
0.0407124
-1.73448
1.72382
-0.0622188
0.0728758
-1.71115
1.69614
-0.0885057
0.103508
-1.67881
1.65956
-0.113256
0.132496
-1.63813
1.61414
-0.135197
0.159193
-1.58784
1.55855
-0.155765
0.185053
-1.52448
1.48467
-0.179187
0.218999
-1.4396
1.39033
-0.213561
0.262832
-1.33779
1.28266
-0.25465
0.309778
-1.22546
1.16662
-0.29801
0.356852
-1.10653
1.0456
-0.342333
0.403265
-0.984233
0.922843
-0.386912
0.448301
-0.861834
0.801564
-0.430075
0.490345
-0.74232
0.684268
-0.468425
0.526476
-0.627416
0.571568
-0.496776
0.552624
-0.516299
0.46096
-0.509188
0.564527
-0.404718
0.346636
-0.501321
0.559402
-0.285784
0.221335
-0.472684
0.537133
-0.15263
0.0791173
-0.423059
0.496572
-0.0105946
0.0117448
1.68919
-1.68573
1.67974
-0.0467745
0.0527614
-1.67178
1.66158
-0.0833815
0.0935812
-1.64872
1.63371
-0.11895
0.133953
-1.6167
1.59716
-0.152212
0.171754
-1.5753
1.55089
-0.183829
0.208232
-1.52222
1.48793
-0.217228
0.251521
-1.44825
1.40425
-0.262337
0.306338
-1.35696
1.30714
-0.313743
0.363563
-1.25531
1.20186
-0.365302
0.41875
-1.14713
1.09139
-0.415281
0.471013
-1.03495
0.978082
-0.463209
0.52008
-0.921054
0.864124
-0.508401
0.56533
-0.807523
0.751432
-0.549385
0.605477
-0.695966
0.641154
-0.583736
0.638548
-0.586922
0.53308
-0.608341
0.662183
-0.479325
0.425255
-0.620197
0.674267
-0.370399
0.31426
-0.617543
0.673682
-0.256361
0.196288
-0.6004
0.660473
-0.133713
0.0683562
-0.566911
0.632268
-0.0129306
0.0141137
1.62871
-1.62515
1.61978
-0.0585188
0.0638969
-1.61185
1.60142
-0.104204
0.114637
-1.58925
1.57499
-0.148799
0.163063
-1.55811
1.53901
-0.191547
0.210647
-1.51686
1.48971
-0.234161
0.261307
-1.45688
1.41918
-0.288628
0.32633
-1.37778
1.33362
-0.351576
0.395744
-1.28729
1.2392
-0.413574
0.461655
-1.18968
1.13898
-0.471843
0.522547
-1.08732
1.03492
-0.526062
0.578465
-0.981973
0.92868
-0.576105
0.629398
-0.875217
0.821742
-0.621441
0.674916
-0.768386
0.715241
-0.660989
0.714133
-0.662354
0.609715
-0.693181
0.74582
-0.557257
0.504852
-0.716254
0.768659
-0.452317
0.399427
-0.728733
0.781623
-0.34593
0.29157
-0.729921
0.784281
-0.236108
0.179339
-0.719839
0.776608
-0.121106
0.0612906
-0.695716
0.755532
-0.0151629
0.016118
1.57031
-1.56735
1.56177
-0.0694167
0.0749923
-1.55407
1.54492
-0.12471
0.133856
-1.53355
1.51953
-0.177504
0.191528
-1.50338
1.48399
-0.229999
0.249388
-1.45939
1.42923
-0.290704
0.320863
-1.39455
1.35653
-0.365195
0.403215
-1.316
1.27348
-0.440027
0.482545
-1.22932
1.18377
-0.509392
0.554945
-1.13703
1.08928
-0.572688
0.620439
-1.04068
0.991398
-0.630216
0.6795
-0.941569
0.89133
-0.682061
0.7323
-0.840802
0.790086
-0.727903
0.778618
-0.739265
0.688392
-0.767039
0.817911
-0.637493
0.586561
-0.798519
0.849452
-0.535554
0.484402
-0.821375
0.872527
-0.433007
0.381252
-0.834899
0.886654
-0.32901
0.276157
-0.838836
0.89169
-0.222578
0.168184
-0.83311
0.887504
-0.112915
0.0567509
-0.814394
0.870558
-0.0170174
0.0179699
1.51413
-1.51117
1.5061
-0.0805901
0.0856562
-1.49978
1.49121
-0.142679
0.151247
-1.48003
1.46698
-0.205399
0.218439
-1.45091
1.42969
-0.26998
0.291199
-1.40301
1.37197
-0.352298
0.383338
-1.33776
1.30117
-0.44135
0.47794
-1.26268
1.22257
-0.524673
0.564777
-1.18106
1.13832
-0.599923
0.642671
-1.09447
1.04965
-0.667561
0.71238
-1.00398
0.957571
-0.728191
0.774599
-0.910529
0.86295
-0.782059
0.829638
-0.81492
0.76651
-0.829038
0.877448
-0.71778
0.668769
-0.868721
0.917732
-0.619502
0.569984
-0.90056
0.950078
-0.520201
0.470126
-0.924038
0.974113
-0.419717
0.368925
-0.938833
0.989624
-0.317701
0.265994
-0.944873
0.99658
-0.213766
0.160994
-0.941977
0.994749
-0.107678
0.0538672
-0.926408
0.980219
-0.0189569
0.0199685
1.45978
-1.45702
1.45313
-0.090177
0.0940651
-1.44721
1.43876
-0.160017
0.168464
-1.42881
1.41639
-0.231247
0.243666
-1.39914
1.37648
-0.313696
0.336352
-1.3495
1.3194
-0.414646
0.444745
-1.28699
1.25271
-0.514101
0.548374
-1.21684
1.17953
-0.604228
0.641533
-1.14092
1.10111
-0.68472
0.724531
-1.0602
1.01827
-0.756545
0.798474
-0.975412
0.931706
-0.820465
0.864171
-0.887228
0.842048
-0.876841
0.922021
-0.796229
0.749827
-0.925691
0.972092
-0.70289
0.655455
-0.966805
1.01424
-0.60755
0.559195
-0.999879
1.04823
-0.5104
0.461171
-1.02464
1.07387
-0.411507
0.361405
-1.04095
1.09105
-0.310866
0.259892
-1.0488
1.09978
-0.208494
0.156697
-1.04791
1.09971
-0.104545
0.0521364
-1.03419
1.0866
-0.0208911
0.0216908
1.40777
-1.40568
1.40218
-0.0977087
0.101212
-1.3963
1.38914
-0.17655
0.183713
-1.38034
1.36737
-0.256497
0.269468
-1.34913
1.3265
-0.359605
0.382235
-1.30074
1.27269
-0.474458
0.502502
-1.24282
1.21137
-0.581895
0.61335
-1.17846
1.1442
-0.678004
0.712268
-1.10865
1.07187
-0.763544
0.800322
-1.03392
0.994868
-0.839713
0.878769
-0.954758
0.913648
-0.907352
0.948462
-0.87159
0.828633
-0.966883
1.00984
-0.784827
0.740211
-1.01841
1.06303
-0.694829
0.648718
-1.06184
1.10796
-0.601912
0.554443
-1.09699
1.14446
-0.506343
0.457642
-1.12369
1.17239
-0.408373
0.35857
-1.14187
1.19167
-0.308272
0.257524
-1.1515
1.20225
-0.20638
0.154903
-1.15221
1.20369
-0.103179
0.05135
-1.13958
1.19141
-0.0223053
0.0227625
1.35759
-1.3559
1.35239
-0.104809
0.108322
-1.34752
1.34187
-0.190171
0.195817
-1.33319
1.3196
-0.283066
0.296649
-1.30157
1.28033
-0.40472
0.425956
-1.25682
1.23153
-0.529732
0.555023
-1.20469
1.17642
-0.643806
0.672076
-1.14678
1.11578
-0.745528
0.77652
-1.08347
1.04987
-0.836183
0.869783
-1.01501
0.9789
-0.917058
0.953165
-0.94158
0.903076
-0.989011
1.02751
-0.863416
0.82263
-1.05248
1.09327
-0.780748
0.737802
-1.10761
1.15055
-0.693824
0.64885
-1.15432
1.19929
-0.602919
0.556072
-1.19245
1.2393
-0.508358
0.459829
-1.22185
1.27038
-0.410545
0.360576
-1.24241
1.29238
-0.309997
0.258894
-1.25404
1.30514
-0.207363
0.155512
-1.25622
1.30807
-0.103472
0.051436
-1.24423
1.29626
-0.0230762
0.0232998
1.30919
-1.30744
1.30444
-0.111726
0.114725
-1.30107
1.29618
-0.201086
0.205983
-1.28728
1.27398
-0.310474
0.323764
-1.25739
1.23851
-0.446483
0.465365
-1.21791
1.19585
-0.579188
0.601249
-1.17242
1.14765
-0.699125
0.723895
-1.12154
1.09407
-0.806325
0.833792
-1.06524
1.03503
-0.90231
0.932518
-1.00344
0.970457
-0.988377
1.02136
-0.936084
0.900319
-1.06536
1.10113
-0.863162
0.824618
-1.13369
1.17223
-0.784696
0.74341
-1.19346
1.23474
-0.700778
0.656828
-1.24457
1.28852
-0.611596
0.565126
-1.28679
1.33326
-0.517478
0.468722
-1.31987
1.36863
-0.418944
0.368247
-1.34357
1.39426
-0.316746
0.264573
-1.35763
1.4098
-0.211876
0.158819
-1.36139
1.41445
-0.105594
0.0524798
-1.34978
1.40289
-0.0234616
0.0235936
1.26253
-1.26097
1.259
-0.117295
0.119272
-1.25679
1.25215
-0.210823
0.215463
-1.24358
1.23162
-0.33674
0.348692
-1.21735
1.20145
-0.483144
0.49905
-1.18421
1.16574
-0.621933
0.640407
-1.14603
1.12506
-0.74723
0.768202
-1.10277
1.07913
-0.859865
0.883512
-1.05407
1.02755
-0.96145
0.987965
-0.999539
0.969985
-1.05325
1.08281
-0.938851
0.906104
-1.13607
1.16881
-0.87171
0.83564
-1.21027
1.24634
-0.797872
0.758388
-1.27591
1.31539
-0.717183
0.674262
-1.33277
1.37569
-0.629643
0.583365
-1.38048
1.42676
-0.535483
0.486079
-1.41856
1.46797
-0.43526
0.383157
-1.44652
1.49863
-0.329933
0.275775
-1.46383
1.51799
-0.220901
0.165553
-1.46953
1.52487
-0.11002
0.0547816
-1.4582
1.51343
-0.0237028
0.0237947
1.21714
-1.21617
1.21526
-0.120724
0.121632
-1.21376
1.20951
-0.220035
0.224282
-1.20205
1.19224
-0.359858
0.369672
-1.18087
1.16835
-0.51357
0.526094
-1.15479
1.1402
-0.657281
0.671873
-1.12451
1.10765
-0.78751
0.804371
-1.08953
1.07007
-0.905518
0.924983
-1.04918
1.02678
-1.01294
1.03534
-1.00279
0.977125
-1.111
1.13666
-0.949716
0.920481
-1.20046
1.22969
-0.889344
0.85623
-1.28166
1.31477
-0.821069
0.783798
-1.35455
1.39182
-0.744364
0.702729
-1.41881
1.46044
-0.658871
0.612794
-1.47381
1.51989
-0.56453
0.514149
-1.51875
1.56913
-0.461759
0.407515
-1.55269
1.60693
-0.351625
0.294346
-1.57458
1.63186
-0.235991
0.176926
-1.58298
1.64204
-0.117628
0.0591006
-1.57207
1.6306
-0.0238598
0.0238916
1.17365
-1.17321
1.17315
-0.122094
0.122155
-1.17218
1.16876
-0.228244
0.231662
-1.16306
1.15588
-0.378372
0.385555
-1.14774
1.13884
-0.537026
0.545925
-1.12919
1.11872
-0.684662
0.695136
-1.10731
1.09487
-0.819331
0.831775
-1.08127
1.06639
-0.942524
0.957402
-1.05012
1.03235
-1.05587
1.07364
-1.01295
0.991807
-1.16058
1.18172
-0.968798
0.943797
-1.25742
1.28242
-0.916674
0.887295
-1.34671
1.37609
-0.855526
0.821236
-1.42839
1.46268
-0.784298
0.744596
-1.50198
1.54168
-0.70203
0.656528
-1.5666
1.6121
-0.60805
0.556603
-1.621
1.67245
-0.502256
0.445149
-1.66355
1.72066
-0.385511
0.323672
-1.69233
1.75417
-0.260074
0.195293
-1.70494
1.76972
-0.130199
0.0671338
-1.69513
1.7582
-0.0238793
0.0238156
1.13171
-1.1316
1.13216
-0.121876
0.121313
-1.1318
1.12962
-0.234556
0.236734
-1.12606
1.12174
-0.391427
0.395743
-1.11698
1.11182
-0.55309
0.558247
-1.10621
1.10001
-0.703639
0.70983
-1.09311
1.08536
-0.842092
0.849844
-1.07662
1.06674
-0.970059
0.979932
-1.0556
1.04304
-1.08917
1.10173
-1.02891
1.01306
-1.20067
1.21652
-0.99532
0.97552
-1.30537
1.32517
-0.953472
0.928975
-1.4037
1.4282
-0.901819
0.871784
-1.49564
1.52567
-0.838639
0.802152
-1.58069
1.61718
-0.762093
0.718245
-1.65781
1.70165
-0.670417
0.618463
-1.72524
1.7772
-0.562306
0.501969
-1.78048
1.84082
-0.437609
0.369565
-1.82017
1.88822
-0.298406
0.225036
-1.84008
1.91345
-0.151145
0.0821832
-1.83324
1.9022
-0.0236977
0.0235201
1.09129
-1.09182
1.09287
-0.12048
0.11943
-1.09323
1.09253
-0.238218
0.238917
-1.09126
1.08983
-0.398656
0.400077
-1.08842
1.08699
-0.561594
0.563026
-1.08542
1.08358
-0.713925
0.715772
-1.0813
1.07843
-0.855271
0.858138
-1.07482
1.07032
-0.987297
0.991801
-1.06476
1.05799
-1.11165
1.11842
-1.04984
1.04012
-1.22965
1.23937
-1.02864
1.01518
-1.34226
1.35572
-0.999521
0.981396
-1.45012
1.46824
-0.960521
0.936583
-1.55344
1.57738
-0.909234
0.878097
-1.65196
1.6831
-0.842761
0.802793
-1.74472
1.78469
-0.757744
0.707168
-1.82979
1.88036
-0.650654
0.587875
-1.90378
1.96656
-0.518653
0.443074
-1.96146
2.03704
-0.361643
0.275617
-1.99527
2.0813
-0.188266
0.111359
-1.99652
2.07342
-0.0232896
0.0230015
1.05219
-1.05307
1.05453
-0.118146
0.116689
-1.05569
1.05652
-0.238847
0.238022
-1.05745
1.05878
-0.400094
0.398762
-1.06056
1.06271
-0.562637
0.560493
-1.06508
1.06751
-0.715455
0.713018
-1.06986
1.07195
-0.858532
0.85644
-1.07363
1.07475
-0.993547
0.992427
-1.07515
1.07466
-1.12217
1.12266
-1.07311
1.07032
-1.24583
1.24862
-1.06609
1.06018
-1.36573
1.37163
-1.05236
1.04234
-1.4828
1.49283
-1.02978
1.01433
-1.59777
1.61323
-0.995533
0.9729
-1.71094
1.73358
-0.945845
0.913691
-1.82205
1.8542
-0.875663
0.830878
-1.92972
1.9745
-0.778353
0.717042
-2.03064
2.09195
-0.645904
0.564065
-2.11815
2.19999
-0.471137
0.368045
-2.18014
2.28323
-0.260207
0.171028
-2.20424
2.29341
-0.0226703
0.0222904
1.01458
-1.01591
1.01772
-0.115021
0.11322
-1.01964
1.02187
-0.236445
0.234221
-1.02478
1.02858
-0.396105
0.392304
-1.03326
1.0387
-0.556587
0.551147
-1.04476
1.05127
-0.708426
0.701913
-1.05808
1.06504
-0.851809
0.844851
-1.07199
1.0788
-0.988387
0.981579
-1.08532
1.09139
-1.11984
1.11376
-1.09687
1.1016
-1.2477
1.24297
-1.10539
1.10805
-1.37339
1.37072
-1.10937
1.10908
-1.49827
1.49856
-1.1069
1.10246
-1.62367
1.6281
-1.09537
1.0851
-1.75085
1.76112
-1.07102
1.05237
-1.8809
1.89955
-1.02817
0.997179
-2.01438
2.04537
-0.957854
0.90823
-2.15044
2.20006
-0.845874
0.767878
-2.28457
2.36257
-0.671037
0.553061
-2.40377
2.52174
-0.41933
0.310064
-2.49446
2.60372
-0.0218815
0.021436
0.978454
-0.979784
0.981853
-0.111239
0.10917
-0.984413
0.987783
-0.231335
0.227966
-0.992333
0.998206
-0.387322
0.381449
-1.00537
1.0137
-0.544076
0.53574
-1.02307
1.0333
-0.693333
0.683096
-1.04427
1.05582
-0.835383
0.823834
-1.06782
1.08014
-0.9718
0.959472
-1.09268
1.1053
-1.10422
1.0916
-1.11789
1.13034
-1.23423
1.22178
-1.14252
1.1543
-1.3634
1.35162
-1.16555
1.17611
-1.49342
1.48286
-1.18579
1.1944
-1.62616
1.61755
-1.20168
1.20732
-1.76385
1.75821
-1.21094
1.21203
-1.90923
1.90814
-1.20992
1.20369
-2.06579
2.07202
-1.19206
1.17317
-2.23809
2.25698
-1.14426
1.1012
-2.43164
2.4747
-1.03755
0.943503
-2.6521
2.74614
-0.813457
0.73096
-2.93216
3.01466
-1.90424
3.56448
-1.68013
3.27986
-3.80217
0.520401
4.00127
-4.06996
0.0667903
4.0985
-4.10402
0.00363188
4.10752
-4.11091
0.00171596
4.11492
-4.11809
0.00309225
4.12657
-4.14739
0.0208154
4.19086
-4.26494
0.0740752
4.37012
-4.51121
0.141145
4.67687
-4.83863
0.160267
4.82632
-4.35616
-0.471399
3.12732
-1.41953
-1.69535
-0.268191
1.72273
-1.45454
-2.9732
4.06033
-1.08713
-4.98519
5.7269
-0.741717
-6.26486
6.60948
-0.344617
-6.7965
6.8726
-0.0761016
-6.88046
6.84387
0.0365922
-6.7854
6.71304
0.0723599
-6.63397
6.55596
0.0780112
-6.48327
6.41627
0.0670027
-6.35418
6.29818
0.0560075
-6.25109
6.21384
0.0372529
-6.18269
6.1516
0.0310952
-6.11735
6.08225
0.0350999
-6.05016
6.01999
0.0280998
-5.99441
5.97006
0.0243704
-5.94896
5.93481
0.0153096
-5.93141
5.94149
-0.0100761
-5.96182
5.92488
-0.0209696
-5.93446
5.93018
0.00538343
-5.94832
5.95113
0.0186723
-5.93716
5.92912
0.00811271
-5.66389
5.6583
0.00464564
-5.65475
5.64982
0.00399062
-5.76036
5.90879
3.07219e-05
-5.91008
5.91094
-0.000856634
-5.91338
5.91903
-0.00578664
-5.93251
5.94986
-0.0175731
-4.12999
3.10686
0.0167955
-3.07683
3.03368
0.0431457
-2.98336
5.39432
0.0730296
-5.55691
5.50712
0.0497892
-5.48527
5.48933
-0.0042229
-5.50703
5.51963
-0.0123069
-3.425
3.4045
0.0271831
-3.35582
4.70476
0.0556171
-5.27823
5.23829
0.0399071
-5.1929
5.12498
0.0676859
-5.0241
4.90404
0.119825
-4.81382
4.82527
-0.0114736
-3.78284
0.101604
-0.0277406
-0.157237
0.998392
0.0222592
-2.5248
2.53442
-0.00601451
-2.54361
2.54768
-1.32748e-08
-2.55422
0.300481
-0.0228397
9.30717e-08
4.78398e-21
-9.30717e-08
4.13766e-21
-2.11084e-22
-1.03808e-22
8.60545e-24
-2.7506e-25
-9.27981e-26
5.81134e-27
-7.79912e-29
-3.50997e-29
-4.9444
5.79507
-0.859228
2.36958
-2.39143
-1.08787
0.959483
2.37776
-2.42014
-0.129336
0.0287162
2.41645
-2.3164
-0.0146436
0.00229223
2.23987
-2.2103
-0.00164817
8.24751e-05
2.2881
-2.70054
-0.000104724
-0.00113242
3.01334
-3.12387
-0.0107836
-0.000352249
3.13089
-3.08862
-0.0651353
0.00633986
3.03418
-3.06263
-0.122301
0.00734966
3.14594
-2.96636
-0.105852
-0.033236
2.64881
-2.59863
0.793514
-0.747356
2.47809
-1.51826
3.00075
-3.96047
0.239577
1.03337
2.81584
-4.08879
-2.20567
3.25737
2.15126
-3.20296
-4.17651
4.93666
1.49238
-2.25253
-5.51315
5.90617
0.721096
-1.11411
-6.14174
6.26211
0.174109
-0.294471
-6.31669
6.3371
-0.0441328
0.0237238
-6.33866
6.3286
-0.113347
0.123416
-6.31339
6.29868
-0.121338
0.136046
-6.28621
6.27597
-0.101435
0.111671
-6.26747
6.26035
-0.0826294
0.0897518
-6.25513
6.2534
-0.0525991
0.0543216
-6.25549
6.2581
-0.0415367
0.0389219
-6.2562
6.24857
-0.0531991
0.0608265
-6.23914
6.23056
-0.0439469
0.0525317
-6.22331
6.21698
-0.0371204
0.043441
-6.21128
6.20719
-0.0231706
0.0272602
-6.207
6.21231
0.0179209
-0.0232178
-6.22457
6.24254
0.041157
-0.0591292
-6.26029
6.26875
-0.00253871
-0.00591658
-6.26217
6.25173
-0.0313543
0.0419259
-6.24203
6.2347
-0.0165018
0.0244942
-6.22896
6.2233
-0.0104567
0.0161332
-6.21819
6.2142
-0.00807369
0.0120654
-6.2117
6.21059
-0.000516504
0.00162558
-6.21082
6.21209
0.00178666
-0.00306092
-6.2142
6.21733
0.0152117
-0.0183382
-6.2202
6.21977
0.0254238
-0.0249912
-6.20639
6.16969
-0.0535617
0.0902657
-6.11028
6.04977
-0.138425
0.198935
-6.00017
5.95188
-0.144873
0.193162
-5.89841
5.84503
-0.105349
0.158729
-5.80278
5.74641
-0.00421742
0.0211164
-5.69963
5.69813
0.0101674
-0.00821482
-5.72265
5.72106
-0.0670104
0.0884621
-5.69008
5.64837
-0.110833
0.152456
-5.60151
5.54913
-0.0933806
0.145707
-5.4922
5.45325
-0.149399
0.188264
-4.48873
1.06941
-0.204596
0.0205484
-0.00740919
-2.86719e-05
0.00743787
-8.42104e-12
-0.000724167
0.00509147
0.000120959
-3.98672e-10
-0.00535974
0.000993419
0.00114495
-6.25464e-10
-6.16318e-05
2.83835e-08
6.16423e-05
-4.93939e-11
-8.76113e-08
6.93306e-08
1.32748e-08
1.05749e-08
-5.26752e-08
-2.32181e-07
2.84494e-07
-3.06193e-12
-0.000150652
-5.48527e-10
-1.31778e-05
2.00084e-05
7.90872e-24
-6.31729e-25
1.27164e-23
-7.11196e-25
4.73785e-26
-1.83725e-27
1.61112e-26
-1.76311e-27
4.5408e-29
-7.11452e-31
6.93883e-30
-9.40502e-31
-6.26938
6.51647
-0.255887
0.118783
3.47532e-20
-0.118783
-2.87167e-19
3.3499e-21
2.95905e-21
0
-1.34583e-21
2.78416e-21
-4.12752e-21
2.97403e-10
-2.97403e-10
8.98281e-22
-2.28506e-23
3.52132e-12
-3.52132e-12
-1.42779e-23
-5.25845e-31
2.68697e-13
-2.68697e-13
2.12134e-30
-8.96984e-30
1.84996e-13
-1.84996e-13
-2.16587e-30
-1.02135e-29
2.23083e-12
-2.23083e-12
1.01065e-29
-4.04011e-27
3.43413e-10
-3.43413e-10
-9.07547e-26
-8.62453e-19
5.37206e-08
-5.37206e-08
0.0272985
-0.446731
0.374153
-0.087871
0.747474
-1.09809
3.80215
-2.99387
0.20454
0.77414
5.22064
-6.19932
-1.76755
2.71563
4.20658
-5.15467
-3.58141
4.31893
2.99976
-3.73728
-4.8854
5.28221
1.50882
-1.90563
-5.54581
5.71638
0.436813
-0.607377
-5.83708
5.92907
0.0291194
-0.121113
-6.00371
6.06246
-0.100532
0.0417803
-6.10975
6.14949
-0.123452
0.0837177
-6.18237
6.20982
-0.101446
0.074
-6.23314
6.25295
-0.0817752
0.0619745
-6.26924
6.28337
-0.046542
0.032418
-6.29832
6.31556
-0.0271588
0.00992043
-6.33142
6.33856
-0.0604963
0.0533602
-6.33991
6.3396
-0.0560439
0.0563505
-6.33935
6.3399
-0.045478
0.044933
-6.34079
6.34158
-0.0285982
0.0278074
-6.33205
6.14725
0.0266006
-0.00214402
-5.90252
5.90606
0.0729774
-5.41719e-19
-5.85724
4.06217
0.0184482
-4.93496e-19
-0.752181
0.514943
-0.0508611
-8.67362e-19
-0.551899
0.539087
-0.0318526
-9.54098e-18
-0.399633
0.202167
-0.0220334
-2.60209e-16
-0.073153
0.0216703
-0.0163577
-1.62863e-14
-0.00334692
0.000330916
-0.00241046
-8.29857e-14
-8.05311e-21
-2.27573e-31
1.80524e-14
-1.80524e-14
-2.06263e-15
-0.000888369
0.00457124
-2.92596e-10
-0.0196331
0.103271
0.00496015
-1.5758e-12
-0.20639
0.21393
-0.0722075
-3.40253e-08
-0.235486
0.868464
-0.0152361
-0.000184524
-2.06891
2.05404
-0.13524
0.00142716
-1.62676
1.35361
-0.154589
-0.00980456
-1.98687
4.64525
-0.0192319
0.0170238
-5.80221
5.86125
6.06588e-06
0.010389
-5.85674
5.84834
-0.101735
0.109541
-3.74658
0.663198
-0.194198
-0.00226595
-0.0716374
0.00824002
-0.10842
0.000619857
-7.96731e-05
1.76171e-11
8.78853e-05
-8.21225e-06
-2.77658e-10
3.74902e-10
3.98961e-08
-5.88903e-08
-1.00701e-06
-4.26183e-08
-1.35582e-08
5.35562e-08
-1.92947e-09
5.45065e-09
3.98672e-10
1.7267e-09
-4.58228e-09
2.91162e-09
6.25464e-10
1.88399e-09
-2.20911e-09
2.72091e-09
-4.60266e-09
4.60384e-10
-3.81288e-10
7.81385e-12
-1.50844e-09
-1.36803e-11
-4.99425e-13
8.72719e-13
-3.12856e-11
2.06655e-12
-5.53382e-13
-1.02647e-11
1.01937e-11
6.22941e-13
-1.59873e-09
-1.13916e-19
2.92034e-13
5.48339e-11
-1.56102e-29
-4.911e-30
1.43533e-28
-7.65625e-30
2.01267e-31
-3.95648e-33
1.00201e-31
-8.64164e-33
-6.62337
6.62184
-0.00686169
7.14048e-10
-7.14048e-10
2.13153e-28
-1.86713e-27
-1.41287e-10
-1.02651e-09
-4.32633e-27
1.1678e-09
2.696e-08
-3.82986e-10
-1.35524e-09
1.2582e-08
4.75124e-10
-7.05565e-10
-4.25973e-11
7.42924e-11
2.2284e-10
-8.47309e-11
-1.1215e-11
6.44944e-10
6.10616e-10
-4.3672e-09
-1.1268e-11
2.83942e-09
6.68174e-09
-5.33665e-09
-2.60091e-11
2.96479e-10
-1.56108e-09
1.54608e-09
1.49989e-11
1.99424e-25
0.000197058
-0.000168799
4.01004e-05
7.81465e-06
-6.6485e-05
-0.00512206
0.00518854
-2.41037e-19
0.479509
-0.515424
4.37353
-5.29527
-0.0594074
0.792084
7.02571
-7.75839
-1.56203
2.34671
6.01779
-6.80247
-3.10147
3.76673
4.43772
-5.10298
-4.27925
4.63184
2.29013
-2.64272
-4.56674
3.72882
0.816996
-0.289424
-2.98836
2.44742
0.260547
-4.77802e-18
-1.67953
0.495249
0.0368855
-2.01705e-18
0.00584857
0.00715732
-0.0135374
-7.56629e-19
-0.0224368
0.0404118
-0.0222976
-8.81895e-20
-0.0507402
0.0523158
-0.0199851
-2.71051e-20
-0.0419568
0.0211115
-0.00672186
-7.03708e-20
-0.00562291
0.00215826
0.0017239
-2.26501e-19
-0.000948961
-1.34113e-20
0.000948961
-5.19655e-21
-9.35649e-21
8.41217e-20
1.73472e-18
-9.56715e-20
-6.19026e-21
7.60557e-21
0
-2.3653e-19
7.64565e-21
-5.17424e-22
6.50521e-19
-6.07541e-19
3.8857e-19
5.40055e-18
1.18679e-20
-6.55028e-20
-2.32595e-17
5.64705e-17
5.41719e-19
-1.93131e-18
-7.43793e-17
7.74032e-17
4.93496e-19
-1.37296e-18
-1.03639e-16
2.50543e-16
8.82479e-19
4.47844e-18
-8.78239e-16
3.73216e-15
9.10458e-18
5.27974e-17
-1.83357e-14
1.12821e-13
2.60203e-16
1.44373e-15
-7.66774e-13
2.17426e-12
1.62862e-14
5.17491e-14
-2.8976e-12
2.78945e-12
1.46585e-14
5.17353e-14
-1.11822e-12
1.22974e-12
1.0245e-16
3.12998e-16
-4.45193e-09
2.60483e-08
2.45027e-10
8.86153e-10
-2.57959e-08
5.75613e-08
1.5758e-12
-3.21771e-08
-2.08271e-06
2.07305e-06
3.40253e-08
1.29991e-07
-1.92177e-06
2.75225e-07
1.70912e-08
2.56246e-08
-4.19685e-22
3.63997e-21
3.11793e-13
-3.11793e-13
1.8111e-20
1.49758e-06
-1.49758e-06
-1.54205e-12
-2.02242e-05
-6.88559e-20
2.02242e-05
-1.55604e-12
-1.71821e-20
1.46884e-20
9.5794e-14
-9.57944e-14
9.73977e-22
5.20472e-20
1.73472e-18
2.0388e-21
1.75343e-05
0.000687077
0.000177941
-8.11632e-05
-0.00124946
0.00116994
6.1632e-05
0.000286132
1.96981e-05
-9.28508e-09
-2.45294e-05
6.4441e-11
-2.59577e-08
2.7641e-08
-9.70314e-08
-2.24853e-09
-1.87314e-09
2.34042e-09
2.17737e-09
6.23993e-10
-2.80733e-09
1.87026e-09
-3.45915e-09
2.20142e-09
-4.05239e-10
2.71657e-11
-1.19551e-09
3.81571e-11
-1.21001e-12
6.84266e-13
-3.139e-13
1.66208e-12
-5.3783e-13
4.07676e-13
-1.70485e-12
1.63245e-12
-2.09051e-13
1.6679e-13
-1.10866e-12
5.95316e-13
-1.95646e-13
2.24462e-13
-6.47111e-13
6.17312e-13
-2.36024e-13
3.18544e-14
-4.88509e-13
8.0369e-15
-8.06713e-18
2.24847e-23
-9.79855e-20
7.64931e-21
-4.8013e-29
5.6175e-35
-3.40931e-31
2.30161e-33
-6.53899
6.42988
0.100671
0.00119541
-3.01819e-09
3.35703e-22
-0.00119541
-1.38459e-08
-8.12643e-07
-7.13675e-07
2.62121e-07
2.60546e-09
-2.59458e-09
-1.08835e-11
1.05031e-26
5.54885e-09
-4.60883e-09
-5.79776e-09
8.4625e-10
8.74849e-10
-1.55886e-07
-1.21094e-08
7.94551e-08
1.6892e-07
-1.09109e-08
-2.85497e-08
2.23647e-08
1.62447e-09
4.49859e-10
-3.73036e-10
6.12853e-11
-1.01622e-08
-8.65866e-05
-8.53932e-08
-4.89035e-06
9.91444e-05
-7.85494e-05
4.92169e-05
-0.000109008
-5.44842e-06
3.67976e-05
-1.0305e-19
-3.13492e-05
-0.0324218
-0.202615
1.89655
-0.955856
-0.317342
0.868898
8.39093
-8.94248
-1.45159
2.06796
7.49373
-8.1101
-2.68261
3.23506
5.70878
-6.26122
-2.46739
0.243675
1.92753
-0.295619
2.82971e-18
-1.90408e-18
3.93621e-17
-4.02877e-17
-2.05986e-17
4.39787e-17
4.73817e-18
-3.74093e-17
-4.70559e-17
3.97199e-17
2.01705e-18
-1.71878e-17
-2.96251e-17
1.82845e-17
7.56629e-19
-6.13961e-18
-1.07628e-17
1.00102e-17
8.81629e-20
-5.91346e-19
-1.13751e-17
1.87477e-17
3.68891e-20
-2.10782e-19
-3.4238e-17
5.67437e-17
7.02894e-20
-1.51821e-19
-8.52617e-17
1.22107e-16
2.26501e-19
-2.83961e-19
-1.73677e-16
2.50591e-16
-1.48893e-20
8.37194e-19
-3.67549e-16
5.42028e-16
-3.38049e-19
5.45491e-18
-7.93446e-16
1.14635e-15
-9.83569e-19
1.35524e-17
-1.6443e-15
2.3815e-15
-2.9387e-18
3.78489e-17
-3.50909e-15
5.18015e-15
-2.96062e-18
5.99919e-17
-7.42621e-15
9.96171e-15
7.60736e-18
7.63708e-17
-1.21277e-14
1.3566e-14
-1.42613e-17
2.75032e-16
-1.47568e-14
1.67506e-14
-9.63457e-17
7.26938e-16
-2.2626e-14
4.50508e-14
-2.97602e-16
1.84073e-15
-1.35293e-13
4.00537e-13
-3.99016e-15
1.10308e-14
-5.69247e-13
5.64413e-13
-3.82137e-14
1.16095e-14
-2.94191e-13
5.01827e-14
-4.76144e-14
2.88954e-13
-6.30478e-14
1.81383e-06
-4.20217e-13
7.17162e-09
-1.88999e-06
1.86243e-06
2.23454e-08
-1.70134e-10
-8.15019e-07
9.61068e-08
2.78427e-09
-3.72276e-10
-3.59854e-08
5.85314e-09
-5.41035e-08
-6.40098e-10
-3.73512e-10
4.55197e-10
1.16333e-11
2.82418e-11
-5.53719e-10
5.79665e-10
-1.36735e-12
2.98121e-11
-5.79862e-10
4.56479e-10
-5.82184e-12
2.88614e-11
-1.46738e-10
3.37226e-11
-4.65422e-12
2.23345e-12
-3.71096e-28
6.65142e-13
-7.344e-13
6.92579e-14
-0.00115201
0.000884242
-0
5.57862e-05
-0.000849061
0.000253256
-0.000185436
1.57986e-05
-9.56889e-06
7.83528e-12
4.47926e-06
6.25356e-12
2.51765e-12
1.73006e-10
-1.3662e-10
1.83575e-10
-1.04052e-10
2.40196e-10
-1.73575e-10
3.18635e-10
-2.95241e-10
1.70825e-10
-1.22673e-09
1.50387e-10
-1.56145e-11
1.36849e-12
-9.82567e-11
1.63436e-12
-6.65464e-13
5.01019e-13
-1.85949e-12
8.91764e-13
-3.57097e-13
2.05784e-13
-1.44752e-12
4.93667e-13
-1.04582e-13
6.44094e-14
-4.81119e-13
1.46195e-13
-4.50675e-14
2.57647e-14
-3.17971e-13
4.84951e-14
-6.91223e-15
2.54406e-16
-6.38255e-14
2.26564e-16
-2.58429e-19
6.5652e-21
-1.13369e-17
6.32547e-22
-8.74159e-24
3.53462e-29
-1.29414e-23
1.63439e-28
-5.80489e-35
1.02738e-40
-1.79907e-35
6.71509e-40
-6.2981
6.14491
0.144853
-0.00922049
-1.01267e-06
-0.00208399
0.0169831
1.01267e-06
-2.99445e-07
-9.18233e-07
2.75932e-05
3.62357e-10
-3.62357e-10
2.97714e-28
-1.85535e-28
7.2691e-11
-8.10621e-08
-5.1342e-10
8.18727e-08
1.37625e-06
-2.00103e-06
-7.50609e-07
1.58751e-06
5.38621e-07
-3.42133e-07
-4.79889e-08
1.4793e-07
1.30971e-07
2.32805e-06
-4.94302e-09
-1.31266e-08
3.84462e-05
-7.15369e-05
1.90551e-05
-6.59463e-09
1.36422e-05
-3.06689e-05
1.39851e-05
-2.06116e-05
1.74397e-05
7.85378e-06
5.93657e-05
-0.000140717
-7.85378e-06
0.0777188
1.74081
-2.08941
-0.535376
0.946815
9.40885
-9.82029
-1.38254
1.85345
8.64618
-9.11709
-2.35275
2.00617
6.59506
-6.67144
1.11022e-16
-7.72524e-17
4.42729e-18
-8.61263e-19
-3.58993e-16
4.26108e-15
1.48348e-16
-3.63586e-15
-1.44363e-14
1.94113e-14
1.34e-15
-1.17452e-14
-1.9886e-14
1.69568e-14
5.63731e-16
-4.73406e-15
-1.31145e-14
9.31924e-15
1.85358e-16
-1.40003e-15
-5.79841e-15
3.07294e-15
2.48535e-17
-2.0967e-16
-1.93011e-15
1.83327e-15
2.89747e-18
-1.65722e-17
-1.84584e-15
2.14636e-15
4.74172e-19
3.2173e-18
-2.92694e-15
4.20103e-15
3.00805e-19
5.08286e-18
-5.89747e-15
8.08411e-15
-4.35827e-18
1.51801e-17
-1.09901e-14
1.48813e-14
-2.70986e-17
8.69518e-17
-1.99099e-14
2.60692e-14
-7.74038e-17
2.74796e-16
-3.34603e-14
4.28046e-14
-2.17833e-16
7.95579e-16
-5.58702e-14
7.58766e-14
-4.10915e-16
1.8688e-15
-1.07688e-13
1.56384e-13
-7.72584e-16
5.08607e-15
-2.24778e-13
3.2053e-13
-2.05704e-15
1.6716e-14
-4.84261e-13
8.16974e-13
-5.08451e-15
6.08745e-14
-1.15308e-12
1.16235e-12
-1.46043e-14
1.29326e-13
-7.94446e-13
1.99508e-13
-1.8079e-14
5.77397e-14
-4.60106e-14
4.70409e-14
-3.63861e-15
3.44228e-15
-4.88965e-08
1.08927e-07
-4.16172e-09
7.14328e-09
-5.71103e-08
4.1907e-09
-1.27322e-08
-1.30687e-10
-4.22975e-10
2.91232e-10
-3.45742e-10
4.42141e-12
-4.38962e-10
6.09776e-10
2.39097e-12
1.83141e-11
-6.58601e-10
5.7132e-10
-3.82456e-12
3.82166e-11
-1.98138e-10
4.35484e-11
-4.80359e-11
3.7735e-12
4.98215e-28
6.20276e-29
-4.97741e-11
4.97741e-11
-7.59115e-31
2.82245e-12
-3.27111e-12
4.48659e-13
-0.000131388
0.000126103
-2.52842e-13
9.1755e-06
-0.000124328
4.77675e-05
-2.31313e-05
-1.07602e-06
-2.26128e-06
8.55948e-12
2.26127e-06
4.61697e-12
-7.78619e-12
7.27502e-12
6.42086e-13
-1.30914e-13
-6.04613e-12
6.40275e-12
-7.55832e-12
1.13722e-11
-7.37535e-12
1.44316e-11
-3.3581e-11
2.34498e-11
-2.01347e-11
1.62455e-11
-1.8712e-10
1.71297e-11
-1.03205e-12
2.88312e-13
-3.26697e-12
4.32916e-13
-2.13588e-13
1.36604e-13
-6.69642e-13
2.66116e-13
-6.58136e-14
2.75077e-14
-3.38787e-13
3.54812e-14
-1.16021e-14
5.09597e-15
-7.66726e-14
4.33009e-15
-1.98048e-15
5.06792e-16
-1.80526e-14
3.16869e-16
-5.98599e-17
2.0331e-18
-7.675e-16
6.9308e-19
-1.01274e-20
4.18996e-24
-1.17986e-19
3.82805e-24
-6.35105e-27
4.41122e-29
-3.24377e-25
1.74703e-29