/*--------------------------------*- C++ -*----------------------------------*\
| =========                 |                                                 |
| \\      /  F ield         | OpenFOAM: The Open Source CFD Toolbox           |
|  \\    /   O peration     | Version:  v1912                                 |
|   \\  /    A nd           | Website:  www.openfoam.com                      |
|    \\/     M anipulation  |                                                 |
\*---------------------------------------------------------------------------*/
FoamFile
{
    version     2.0;
    format      ascii;
    class       volScalarField;
    location    "10";
    object      epsilon;
}
// * * * * * * * * * * * * * * * * * * * * * * * * * * * * * * * * * * * * * //

dimensions      [0 2 -3 0 0 0 0];


internalField   nonuniform List<scalar> 
20320
(
4.4369e-05
0.000214556
0.000220572
0.00022655
0.000232478
0.000238348
0.000244183
0.000250296
0.000261681
0.000342924
0.0010623
0.00520739
0.0182479
0.0424548
0.0723273
0.0976063
0.109291
0.103099
0.0751225
0.0304392
4.39074e-05
4.36894e-05
4.40011e-05
4.48703e-05
4.63963e-05
4.88466e-05
5.50297e-05
0.000104093
0.000620977
0.00370703
0.0125934
0.0278951
0.0478578
0.0702498
0.0922865
0.110057
0.11967
0.120631
0.118957
0.141974
4.41946e-05
4.43442e-05
4.49131e-05
4.59581e-05
4.78716e-05
5.65555e-05
0.000150869
0.00107687
0.00582606
0.0177903
0.0366502
0.0596216
0.0835662
0.105775
0.124184
0.137572
0.146162
0.152579
0.164007
0.219688
4.46306e-05
4.54575e-05
4.68225e-05
4.88345e-05
5.6924e-05
0.000144452
0.0010382
0.00588833
0.018644
0.039247
0.0647402
0.0917031
0.117167
0.138959
0.155946
0.168242
0.177383
0.186713
0.204472
0.282547
4.52154e-05
4.70448e-05
4.95068e-05
5.53175e-05
0.000106776
0.000690808
0.00450502
0.0162019
0.0368716
0.0638445
0.0935677
0.122838
0.149174
0.171004
0.187829
0.200295
0.21026
0.221341
0.243224
0.340166
4.59185e-05
4.90384e-05
5.38613e-05
7.65853e-05
0.000351362
0.00268675
0.0119208
0.0309686
0.058022
0.0895559
0.122157
0.153026
0.180149
0.202407
0.219642
0.232691
0.24349
0.25594
0.281333
0.396026
4.67239e-05
5.16971e-05
6.19435e-05
0.000158019
0.00123151
0.00726968
0.0231072
0.0486289
0.0806194
0.11552
0.150252
0.182414
0.210362
0.23327
0.251159
0.264926
0.276556
0.290301
0.31912
0.45141
4.76489e-05
5.49388e-05
8.30707e-05
0.00043651
0.00347373
0.0148591
0.0371616
0.0680321
0.103872
0.141373
0.177813
0.211128
0.239946
0.263626
0.282276
0.296816
0.3093
0.324375
0.356702
0.506828
4.85962e-05
5.97624e-05
0.000143287
0.00120402
0.00770423
0.0251325
0.0531895
0.0884387
0.127361
0.166972
0.204878
0.239284
0.269018
0.293549
0.313028
0.328384
0.341762
0.358234
0.394198
0.562596
4.9528e-05
6.89727e-05
0.00030359
0.00286432
0.0140862
0.0374683
0.070493
0.109382
0.150865
0.192283
0.231526
0.267018
0.297726
0.323189
0.343568
0.359799
0.374126
0.392071
0.431805
0.61907
5.05621e-05
8.78142e-05
0.000673492
0.00573933
0.0223516
0.0512353
0.0885591
0.130564
0.174275
0.217332
0.257872
0.294496
0.326273
0.352779
0.374164
0.391362
0.40672
0.426215
0.469851
0.676775
5.18581e-05
0.000125831
0.00138968
0.00989637
0.0320237
0.065888
0.107009
0.15179
0.197543
0.242182
0.28406
0.321925
0.354926
0.382648
0.405215
0.423537
0.44005
0.461188
0.508864
0.736521
5.35486e-05
0.000197093
0.00255625
0.015145
0.0425904
0.0809799
0.125558
0.172928
0.220667
0.266931
0.310273
0.349575
0.384044
0.413262
0.4373
0.457018
0.474901
0.497822
0.549701
0.799595
5.57395e-05
0.000316064
0.00418724
0.0211428
0.0535785
0.0961444
0.143983
0.193887
0.243665
0.2917
0.336733
0.377773
0.414089
0.445249
0.471248
0.492844
0.512502
0.537468
0.593777
0.868058
5.84778e-05
0.000490383
0.00619352
0.0275029
0.0645781
0.111077
0.1621
0.214592
0.266569
0.316625
0.363689
0.406914
0.445649
0.479458
0.508242
0.532597
0.554839
0.582433
0.643581
0.945422
6.16846e-05
0.000715082
0.00841522
0.0338649
0.0752523
0.125531
0.179757
0.23499
0.289423
0.341857
0.391425
0.437465
0.479453
0.517006
0.549964
0.578713
0.605243
0.636903
0.703886
1.03825
6.51262e-05
0.000972291
0.0106711
0.0399327
0.0853405
0.139314
0.196837
0.255043
0.312277
0.367551
0.42024
0.46993
0.516339
0.559281
0.598693
0.634861
0.669347
0.70885
0.784758
1.16047
6.84717e-05
0.00123686
0.0128022
0.0454953
0.0946675
0.1523
0.21327
0.27474
0.335196
0.393868
0.450423
0.504804
0.557153
0.607782
0.657176
0.706114
0.75631
0.813783
0.909577
1.3474
7.1426e-05
0.00148511
0.0147027
0.0504455
0.103166
0.164463
0.229067
0.294141
0.358295
0.420993
0.48225
0.542496
0.602551
0.663701
0.72787
0.797976
0.87878
0.980033
1.1365
1.71383
7.38649e-05
0.00170283
0.0163377
0.054797
0.110907
0.175917
0.244386
0.313449
0.381821
0.44921
0.516026
0.583297
0.652768
0.72722
0.811171
0.912407
1.04566
1.24336
1.59876
2.81585
169.88
311.882
394.197
482.014
591.451
733.429
918.331
1159.88
1466.99
1812.21
2237.31
2540.44
2024.25
1609.27
1257.9
941.621
698.82
532.822
419.957
337.652
276.236
229.914
194.659
166.955
144.681
126.903
112.77
101.775
93.4623
85.9457
78.1159
71.5347
66.481
62.6704
59.8766
57.9042
56.3653
54.8754
52.7536
49.2044
45.3949
42.5457
41.1125
40.3938
38.776
35.672
32.1559
28.5259
24.779
21.8455
21.2515
22.5821
18.9089
17.5983
17.7149
12.1459
2.0173
0.0124248
0.000304393
0.000235025
240.992
186.727
198.422
234.359
288.597
361.196
457.472
582.971
737.567
893.363
928.87
819.356
657.446
515.149
404.924
320.33
263.57
221.077
185.33
154.846
129.379
108.652
91.9315
78.5036
67.6742
58.8114
51.5737
45.6577
40.7975
36.7636
33.3417
30.4446
28.0268
26.1287
24.7183
23.6988
22.9232
22.1993
21.3684
20.4761
19.6149
18.8698
18.3939
18.1426
17.9659
17.7105
17.402
17.1093
16.9227
17.4927
20.4657
23.1891
30.0003
49.8803
50.4704
19.803
1.50351
0.0217981
0.000705377
0.000434918
226.136
193.149
218.744
232.018
280.602
352.262
451.152
584.196
768.071
1039.81
1124
680.263
437.283
338.354
270.889
222.518
193.849
170.881
148.994
128.816
111
95.811
83.0462
72.3703
63.4383
55.9017
49.54
44.1988
39.7327
35.9951
32.8784
30.3702
28.4442
27.0907
26.3263
26.0602
25.9561
25.7297
25.1367
24.4713
23.9005
23.7013
24.1857
25.4275
26.8601
28.3781
30.7567
34.7406
40.5398
45.3485
44.2185
39.4943
28.0355
12.581
4.99336
1.63263
0.100967
0.00307339
0.000764852
0.000543143
191.974
169.476
198.983
231.79
279.487
347.561
442.583
569.526
739.871
1002.82
1461.27
594.563
297.295
220.585
187.487
170.908
161.285
146.607
129.516
113.992
100.003
88.1282
78.0857
69.5106
62.1251
55.7029
50.0927
45.2736
41.1961
37.8006
35.0624
33.1646
32.0238
31.4386
31.2239
31.1441
31.5417
32.358
33.2049
33.5124
34.298
35.803
38.863
43.779
49.3152
56.2955
64.8685
65.2506
56.5116
42.5105
27.1492
11.6467
4.03052
1.29223
0.479917
0.110387
0.00750095
0.00132412
0.000698749
0.000542404
160.326
145.632
176.844
216.537
263.481
325.112
410.216
522.727
656.564
767.855
856.875
452.297
204.287
145.889
135.196
147.739
148.564
133.581
115.416
101.332
90.2991
81.3984
73.926
67.3119
61.2987
55.8809
50.9755
46.6139
42.8684
39.7106
37.153
35.4236
34.499
34.0218
33.9135
34.2664
34.9431
35.8381
36.6561
38.0258
41.2072
46.1956
53.5149
61.9066
68.5772
70.5746
66.2366
55.6388
36.2137
17.1215
5.91711
1.70301
0.474991
0.154038
0.0478341
0.00798438
0.00153054
0.000828871
0.000563753
0.000475067
133.461
121.486
154.156
191.231
232.932
284.264
353.395
442.619
539.021
578.852
528.445
289.85
144.041
103.353
105.115
143.782
127.388
111.355
98.2167
88.4012
81.0145
75.2272
70.1745
65.3183
60.4913
55.8585
51.5136
47.5831
44.2062
41.3618
39.0871
37.5807
36.7781
36.3567
36.3201
36.7162
37.2055
37.5834
37.997
39.7395
43.7433
49.2491
55.3338
60.4401
61.6608
57.6432
47.9854
29.9473
11.9254
3.5481
0.911809
0.22969
0.0653116
0.0199382
0.00479974
0.00125777
0.000748701
0.000557917
0.000435624
0.00039187
110.712
101.739
131.338
162.826
196.654
235.351
285.405
348.819
417.259
448.697
359.747
197.329
109.613
80.5684
86.1636
122.848
100.461
88.6568
81.1515
76.1361
72.4392
69.5063
66.5989
63.219
59.3202
55.2456
51.3214
47.7991
44.8438
42.4513
40.6377
39.4924
38.8907
38.5619
38.4849
38.5918
38.5334
38.2085
38.1368
39.5507
42.8681
46.8778
49.9989
50.5951
46.5333
36.9735
22.4694
8.81452
2.40783
0.567811
0.133682
0.0348043
0.00971885
0.00266895
0.000910578
0.000578274
0.000478423
0.000398038
0.000337312
0.000317949
92.0836
86.2161
111.628
135.839
162.006
189.208
222.992
266.811
316.679
345.989
288.211
158.651
92.0836
68.8616
72.0622
85.6584
78.1014
71.4937
67.1876
65.0963
64.1601
63.53
62.3653
60.1255
56.8987
53.2519
49.7488
46.7446
44.3893
42.6491
41.465
40.7929
40.4494
40.1955
39.9459
39.5523
38.7615
37.6649
36.9378
37.4799
39.2175
40.6886
40.1096
35.9015
27.0374
15.3712
6.15277
1.7338
0.390703
0.0867807
0.0214338
0.00565954
0.00165345
0.000681035
0.000456871
0.000388098
0.000342633
0.000299996
0.000267011
0.000259538
77.5473
75.6841
96.4772
113.855
132.359
151.152
174.399
207.286
248.167
278.777
246.204
139.59
82.8827
62.9326
65.6882
72.6452
67.6978
61.1216
56.6353
55.0444
55.3996
56.2766
56.3511
54.9117
52.2108
49.0585
46.2032
44.0293
42.5762
41.7182
41.2921
41.1434
41.055
40.8063
40.26
39.2491
37.6596
35.7572
34.2039
33.5002
33.1326
31.5465
27.1122
19.1509
10.0233
3.95329
1.19222
0.2799
0.0605652
0.014278
0.0037384
0.00117657
0.00055493
0.000389343
0.000328004
0.000292312
0.000263331
0.000236855
0.000217192
0.000215059
64.9668
66.6688
89.3576
97.7006
109.115
122.192
140.462
169.829
208.774
241.208
219.665
127.624
77.1347
59.7172
64.1092
72.1555
65.8172
56.1642
49.0307
45.8399
45.8529
47.1708
47.8113
46.8385
44.6695
42.3191
40.5603
39.6438
39.4069
39.5934
39.9614
40.3049
40.4082
40.0703
39.1327
37.4595
35.0775
32.3572
29.8384
27.6355
24.9349
20.3763
13.4507
6.49647
2.44272
0.760953
0.193858
0.0435464
0.0100381
0.00265941
0.000927776
0.000488894
0.000353705
0.000294306
0.000258807
0.000233276
0.000212245
0.000193953
0.000181207
0.000181296
53.5388
63.4986
85.783
85.2516
91.7641
101.829
119.474
150.074
190.997
224.256
203.943
119.104
72.7584
57.6145
64.3543
75.1673
67.529
54.7225
44.1205
37.951
36.0665
36.5306
36.8927
36.0664
34.6264
33.5695
33.3972
34.0565
35.1666
36.3803
37.4462
38.1682
38.3581
37.8355
36.4478
34.1186
30.9827
27.4439
23.8734
20.0943
15.3666
9.48297
4.29846
1.52627
0.469974
0.127266
0.0307998
0.00727459
0.00200082
0.000781591
0.000453035
0.000335535
0.000276247
0.000239026
0.000212896
0.00019302
0.000176819
0.000163302
0.00015447
0.000155361
39.1424
52.947
71.0724
80.0722
79.5481
88.8519
109.107
143.753
188.801
222.009
194.785
112.427
68.9096
55.8995
65.0014
77.7666
69.7533
54.9372
41.359
31.8563
27.0332
25.4382
24.7013
23.8898
23.5609
24.2257
25.8265
27.9997
30.2677
32.2772
33.8282
34.7608
34.9131
34.1211
32.2546
29.2949
25.4545
21.1339
16.5773
11.6882
6.70379
2.90535
0.99063
0.295248
0.0818387
0.0211669
0.00530727
0.00157135
0.000689003
0.000431894
0.000326166
0.000266921
0.000227757
0.000200143
0.000179651
0.000163719
0.000150874
0.00014047
0.000134041
0.000135133
26.7996
36.6051
67.8558
68.6915
69.0051
81.9708
107.333
147.228
196.966
230.565
186.871
106.458
65.1836
54.3025
65.5672
79.3182
71.206
55.5062
39.9299
27.5579
19.5782
15.2907
13.1125
12.5897
13.6815
15.952
18.8949
22.0676
25.0454
27.4934
29.2668
30.2256
30.2161
29.0833
26.7211
23.1754
18.7349
13.8442
8.94595
4.72519
1.97517
0.666282
0.194255
0.0536863
0.0144474
0.00388739
0.00127487
0.000625138
0.000417761
0.000320708
0.00026184
0.000221454
0.000192313
0.000170803
0.000154374
0.000141451
0.000131104
0.000122895
0.00011805
0.000119104
18.1775
26.9454
40.3801
49.8763
59.2605
78.8204
111.025
156.373
209.575
242.717
181.827
100.395
61.3855
52.7532
65.9552
79.8224
71.6067
55.7902
39.1013
24.6461
14.0426
7.34668
4.40282
4.724
6.76257
9.65791
13.0275
16.5032
19.6856
22.2187
23.9676
24.7818
24.4991
22.9717
20.1381
16.1422
11.4364
6.80842
3.29207
1.33482
0.453556
0.133242
0.0368134
0.0100861
0.00290721
0.001069
0.000578672
0.000405899
0.000316566
0.000258408
0.000217486
0.000187456
0.000164935
0.000147855
0.00013456
0.000124018
0.000115608
0.000109028
0.000105289
0.000106219
14.8744
18.2626
26.2437
37.2988
51.7696
77.324
116.594
167.122
221.084
253.002
174.507
93.5097
57.4563
51.2627
66.2906
79.2567
71.0735
55.5978
38.407
22.5967
10.298
2.68988
0.602697
1.32791
2.90297
5.22155
8.14308
11.3188
14.2974
16.639
18.1669
18.7021
18.0759
16.1715
13.0285
9.01719
5.02766
2.26844
0.886991
0.304944
0.0926673
0.0262165
0.00734202
0.00226238
0.000930009
0.000545577
0.00039521
0.000311833
0.000255403
0.000214322
0.000183952
0.00016092
0.000143219
0.000129527
0.000118716
0.000110084
0.000103212
9.78809e-05
9.49453e-05
9.57336e-05
18.4252
14.7606
21.029
32.0729
47.7737
77.0852
121.706
177.893
230.772
258.074
163.94
85.6548
53.4643
49.8685
66.6592
77.9037
69.9501
54.9537
37.6169
21.0006
7.86956
1.01135
0.081225
0.298774
1.04843
2.33115
4.2525
6.6306
9.0525
10.9935
12.1675
12.3637
11.434
9.36618
6.45503
3.51947
1.52089
0.572608
0.198798
0.0633885
0.018857
0.00553022
0.00184346
0.000838286
0.000522355
0.000386272
0.000306354
0.000251666
0.000211368
0.000180864
0.000157731
0.000139781
0.000125731
0.000114687
0.000105865
9.87822e-05
9.31416e-05
8.87913e-05
8.64568e-05
8.71073e-05
24.2589
14.9703
20.0646
29.5118
45.7826
76.367
124.035
187.008
241.543
257.431
149.935
77.095
49.5522
48.6214
66.7901
76.2926
68.5795
53.9314
36.6389
19.6197
6.20018
0.502289
0.0326983
0.0481053
0.21913
0.73972
1.65214
2.96786
4.50313
5.8326
6.57051
6.50082
5.56118
3.94868
2.20316
0.953721
0.352347
0.123522
0.0415884
0.0132725
0.00420588
0.00154798
0.000774041
0.000505264
0.000378169
0.000300832
0.00024706
0.000207831
0.000177916
0.000154766
0.000136872
0.000122732
0.000111498
0.000102551
9.53348e-05
8.95104e-05
8.48635e-05
8.1291e-05
7.94171e-05
7.99469e-05
22.6133
16.43
20.4606
29.0795
44.7221
74.8975
123.996
188.784
248.5
253.495
134.062
68.2814
45.8815
47.5916
66.1506
74.51
66.9036
52.5238
35.4391
18.3395
4.98017
0.280966
0.0181088
0.0188282
0.0386694
0.119256
0.374882
0.866063
1.54249
2.19423
2.53597
2.41795
1.86866
1.12598
0.520236
0.198927
0.0717862
0.02565
0.0089244
0.00315151
0.00131074
0.00071905
0.000489288
0.000369987
0.000294595
0.000242092
0.000203487
0.000174508
0.000151895
0.000134086
0.000120093
0.000108861
9.98295e-05
9.25565e-05
8.66392e-05
8.18367e-05
7.79938e-05
7.50426e-05
7.35249e-05
7.39552e-05
29.3172
17.0128
21.7846
29.3527
44.9967
74.8878
124.543
184.834
244.201
236.715
116.754
59.6581
42.5978
46.8516
65.5704
72.2434
64.6559
50.699
34.017
17.1019
4.04906
0.165274
0.0107907
0.0103962
0.0145824
0.0264029
0.0615023
0.153304
0.329157
0.528217
0.637875
0.5902
0.416729
0.22425
0.0969571
0.0379232
0.0146529
0.0056733
0.002304
0.0011036
0.000663596
0.000469397
0.000359914
0.000287314
0.000236205
0.00019874
0.000170371
0.000148635
0.000131338
0.000117507
0.000106472
9.74942e-05
9.0205e-05
8.42751e-05
7.94092e-05
7.54363e-05
7.22443e-05
6.97909e-05
6.85548e-05
6.89055e-05
43.837
20.4708
24.599
30.4913
46.9955
77.2993
125.387
180.729
235.531
209.41
98.3477
51.6671
39.812
46.4366
65.4138
69.6274
61.9387
48.5467
32.4148
15.8772
3.30859
0.10062
0.00641765
0.00596732
0.00728184
0.0102049
0.0169944
0.0318521
0.0588346
0.0924313
0.112737
0.103443
0.0714176
0.0384476
0.0176631
0.0077327
0.00345273
0.00166192
0.000924785
0.000605722
0.000444259
0.000345804
0.000278317
0.000229268
0.000193199
0.000165894
0.000144753
0.000128264
0.000114915
0.000104092
9.53384e-05
8.81329e-05
8.22279e-05
7.73757e-05
7.33601e-05
7.00618e-05
6.73988e-05
6.53492e-05
6.43377e-05
6.46259e-05
66.6044
26.2609
25.6153
32.8551
50.1237
80.3075
125.741
179.168
235.578
171.141
80.7406
44.7418
37.5868
46.3298
65.1383
66.9037
59.1045
46.2412
30.6935
14.6506
2.69467
0.062618
0.00374768
0.00338277
0.00386968
0.0046982
0.00619227
0.00885144
0.0129488
0.0175017
0.0198224
0.0177583
0.0125006
0.00728546
0.00389273
0.00210189
0.00121557
0.000776898
0.00054768
0.000414487
0.00032764
0.000266304
0.000221074
0.000186757
0.000160787
0.000140604
0.000124668
0.000112044
0.000101672
9.3161e-05
8.61889e-05
8.03832e-05
7.5578e-05
7.15909e-05
6.82658e-05
6.55186e-05
6.32886e-05
6.15707e-05
6.07423e-05
6.0981e-05
77.0883
26.7804
26.8641
35.4426
53.1141
82.3525
123.086
172.03
223.855
140.924
65.6967
39.0941
35.9273
46.4635
64.0816
64.4181
56.4188
43.9111
28.9033
13.418
2.16848
0.0392109
0.00215722
0.00187349
0.00208069
0.00237935
0.00278258
0.0033149
0.00394925
0.00448846
0.00457274
0.00399454
0.0029971
0.00203833
0.00135267
0.00092034
0.000655303
0.000489803
0.000381118
0.000305945
0.000251435
0.000210682
0.000179426
0.000154959
0.000135987
0.000120887
0.000108757
9.90212e-05
9.09238e-05
8.42062e-05
7.86324e-05
7.3933e-05
7.00026e-05
6.67134e-05
6.39524e-05
6.16574e-05
5.97852e-05
5.83425e-05
5.7664e-05
5.78633e-05
72.1779
26.3102
27.4536
37.254
54.7028
81.8659
119.332
166.594
196.986
110.207
53.0079
34.6935
34.8022
46.7277
62.234
62.1209
53.8165
41.5553
27.0584
12.1767
1.70871
0.0242609
0.00124028
0.00102781
0.00111597
0.00124339
0.00139178
0.00154122
0.00166422
0.00171569
0.00164779
0.00145324
0.00118698
0.000924701
0.000709535
0.000547348
0.000429301
0.000343802
0.000280935
0.000234025
0.000198196
0.000170457
0.000148489
0.000130803
0.000116773
0.000105355
9.60461e-05
8.84917e-05
8.21471e-05
7.68276e-05
7.23535e-05
6.85308e-05
6.53011e-05
6.25798e-05
6.02822e-05
5.83613e-05
5.67874e-05
5.55735e-05
5.50174e-05
5.51848e-05
62.314
24.483
26.682
37.1567
53.1103
77.891
111.538
161.058
172.193
84.298
43.0674
31.4365
34.151
47.3071
60.2635
59.3119
51.0217
39.1166
25.1638
10.9346
1.30724
0.0146038
0.000722048
0.000574363
0.000609026
0.00066499
0.000729539
0.000789849
0.000831653
0.000840424
0.0008066
0.000733519
0.00063633
0.000534502
0.000441844
0.000363921
0.000301476
0.000252444
0.000214026
0.000183877
0.000159905
0.000140773
0.000125135
0.000112225
0.000101743
9.30253e-05
8.58275e-05
7.99324e-05
7.49413e-05
7.07094e-05
6.71028e-05
6.39811e-05
6.13199e-05
5.90642e-05
5.71489e-05
5.55392e-05
5.4214e-05
5.31897e-05
5.27332e-05
5.28769e-05
51.2038
22.0209
24.3707
33.9202
48.5639
72.0535
103.754
147.24
140.555
64.9432
35.7821
29.151
33.8767
48.278
58.3285
56.2383
48.0963
36.6246
23.2404
9.69983
0.963309
0.00844088
0.000428968
0.000335531
0.000348029
0.000372949
0.000402805
0.000431558
0.000452509
0.000459813
0.00044949
0.00042247
0.000383404
0.000339061
0.000295165
0.000255056
0.000220465
0.000191555
0.000167667
0.00014804
0.000131843
0.000118509
0.000107273
9.7779e-05
8.98822e-05
8.31713e-05
7.75631e-05
7.29366e-05
6.89879e-05
6.56037e-05
6.26869e-05
6.01328e-05
5.7937e-05
5.60646e-05
5.44656e-05
5.3115e-05
5.19974e-05
5.1131e-05
5.07557e-05
5.08805e-05
41.3485
19.6915
21.6631
28.8778
42.6548
65.6934
97.6821
141.674
101.653
49.8078
30.5664
27.6355
33.9059
49.0905
56.5081
53.4401
45.2822
34.1686
21.3231
8.48204
0.677045
0.00462813
0.000261818
0.000208283
0.000212571
0.00022455
0.000239417
0.000254543
0.000266761
0.000273569
0.00027263
0.00026386
0.000248447
0.000228953
0.000207711
0.000186626
0.00016716
0.000149896
0.000134903
0.000122003
0.000110963
0.000101584
9.34584e-05
8.644e-05
8.04468e-05
7.52403e-05
7.08363e-05
6.7183e-05
6.40394e-05
6.13223e-05
5.89602e-05
5.68686e-05
5.50545e-05
5.34974e-05
5.21609e-05
5.10261e-05
5.0082e-05
4.93478e-05
4.90392e-05
4.91494e-05
32.9896
17.9979
19.7376
25.2882
37.5646
60.9086
92.9787
126.283
77.5891
39.4562
26.9817
26.7154
34.2415
48.9101
54.3925
50.7153
42.5469
31.7661
19.4345
7.28963
0.446212
0.0023691
0.000166317
0.000138537
0.000140127
0.000146638
0.000154863
0.00016369
0.000171541
0.000177256
0.000179437
0.000177696
0.000172187
0.000163794
0.000153462
0.000142287
0.00013126
0.000120857
0.000111371
0.000102818
9.52316e-05
8.85837e-05
8.26727e-05
7.74593e-05
7.28814e-05
6.88108e-05
6.53264e-05
6.24207e-05
5.99049e-05
5.77198e-05
5.58072e-05
5.40934e-05
5.25916e-05
5.12941e-05
5.01755e-05
4.92204e-05
4.84221e-05
4.77993e-05
4.75456e-05
4.76443e-05
26.7684
16.9606
18.9724
23.1208
35.546
58.5035
93.7072
109.439
58.0548
32.171
24.5535
26.2409
34.8867
48.7199
51.6274
47.6851
39.7504
29.3855
17.5823
6.13685
0.270747
0.0011345
0.000112294
9.89958e-05
9.98198e-05
0.000103777
0.000108895
0.00011459
0.000120018
0.000124631
0.000127552
0.000128368
0.000126985
0.000123621
0.000118703
0.000112819
0.000106558
0.000100251
9.42018e-05
8.84952e-05
8.32514e-05
7.8508e-05
7.41862e-05
7.02909e-05
6.67718e-05
6.3567e-05
6.079e-05
5.84617e-05
5.64388e-05
5.46808e-05
5.31325e-05
5.17267e-05
5.04811e-05
4.93977e-05
4.846e-05
4.76557e-05
4.69803e-05
4.64511e-05
4.62425e-05
4.63324e-05
22.3807
16.2936
18.9744
23.0066
36.5053
59.6021
94.3354
90.7273
45.3131
27.1248
22.9373
26.1113
35.6726
47.8765
49.0565
44.678
36.9688
27.0453
15.783
5.04198
0.149461
0.000522891
8.20834e-05
7.58984e-05
7.65301e-05
7.91408e-05
8.26331e-05
8.65852e-05
9.05539e-05
9.4216e-05
9.70324e-05
9.86598e-05
9.89704e-05
9.79447e-05
9.57743e-05
9.27459e-05
8.92223e-05
8.53858e-05
8.15139e-05
7.76902e-05
7.40459e-05
7.06326e-05
6.7451e-05
6.45261e-05
6.18081e-05
5.92706e-05
5.70422e-05
5.51618e-05
5.3528e-05
5.21118e-05
5.08568e-05
4.97021e-05
4.86674e-05
4.7761e-05
4.69742e-05
4.62966e-05
4.57251e-05
4.52744e-05
4.51028e-05
4.51859e-05
19.546
15.7516
19.0177
24.415
39.5326
63.4021
102.066
68.7383
35.6657
23.5391
21.9061
26.287
36.5063
46.3123
46.5666
41.8126
34.2777
24.7763
14.0551
4.02651
0.0750882
0.00024798
6.52557e-05
6.21645e-05
6.26771e-05
6.44855e-05
6.69892e-05
6.98641e-05
7.28657e-05
7.57603e-05
7.82198e-05
8.00074e-05
8.09688e-05
8.10216e-05
8.02466e-05
7.87888e-05
7.68304e-05
7.4515e-05
7.20347e-05
6.94629e-05
6.69038e-05
6.44242e-05
6.20648e-05
5.98584e-05
5.77516e-05
5.57347e-05
5.39354e-05
5.24048e-05
5.10782e-05
4.99348e-05
4.8915e-05
4.79655e-05
4.71052e-05
4.63456e-05
4.56844e-05
4.51135e-05
4.46291e-05
4.42446e-05
4.41037e-05
4.41816e-05
17.9128
15.2908
19.0578
27.0318
43.7372
71.1257
96.5989
52.2646
28.5405
21.0147
21.3244
26.7208
37.8054
44.3747
43.6256
38.8692
31.6282
22.5777
12.4083
3.11079
0.0344841
0.00013197
5.59471e-05
5.40279e-05
5.43331e-05
5.55716e-05
5.73831e-05
5.95283e-05
6.18415e-05
6.41443e-05
6.62153e-05
6.79053e-05
6.90571e-05
6.95741e-05
6.94968e-05
6.88897e-05
6.78389e-05
6.64633e-05
6.48751e-05
6.31328e-05
6.13144e-05
5.94959e-05
5.77351e-05
5.60612e-05
5.4422e-05
5.28123e-05
5.13508e-05
5.00945e-05
4.90109e-05
4.80838e-05
4.72537e-05
4.64734e-05
4.57576e-05
4.51197e-05
4.45627e-05
4.40805e-05
4.36694e-05
4.3341e-05
4.32256e-05
4.32997e-05
17.0484
14.8226
18.8918
30.4657
48.3616
85.1697
78.3767
39.2076
23.3265
19.3092
21.1137
27.3645
38.284
42.5385
40.7817
35.9517
29.0255
20.4488
10.8497
2.3149
0.0145951
8.46442e-05
5.09834e-05
4.93668e-05
4.93646e-05
5.0123e-05
5.13945e-05
5.29963e-05
5.47886e-05
5.6627e-05
5.83408e-05
5.98348e-05
6.09664e-05
6.16507e-05
6.19043e-05
6.17483e-05
6.12309e-05
6.04218e-05
5.94054e-05
5.82087e-05
5.69069e-05
5.55645e-05
5.42407e-05
5.29611e-05
5.16788e-05
5.0389e-05
4.91942e-05
4.81529e-05
4.72604e-05
4.65047e-05
4.58283e-05
4.51883e-05
4.45932e-05
4.40564e-05
4.3585e-05
4.31762e-05
4.28268e-05
4.25461e-05
4.24519e-05
4.25232e-05
16.7782
14.5204
19.6957
34.1926
56.9588
90.7191
57.1958
29.5291
19.7442
18.2558
21.2139
28.3045
37.9697
40.1476
37.9176
33.0969
26.4891
18.3945
9.3861
1.65179
0.00578812
6.57087e-05
4.86322e-05
4.68948e-05
4.65117e-05
4.68387e-05
4.76642e-05
4.88315e-05
5.02064e-05
5.16628e-05
5.30602e-05
5.43267e-05
5.53488e-05
5.60532e-05
5.64496e-05
5.65241e-05
5.62991e-05
5.58326e-05
5.51791e-05
5.43489e-05
5.34108e-05
5.24129e-05
5.14065e-05
5.04198e-05
4.94111e-05
4.83745e-05
4.73904e-05
4.65183e-05
4.57754e-05
4.51545e-05
4.46027e-05
4.40791e-05
4.3585e-05
4.31322e-05
4.27312e-05
4.23828e-05
4.20852e-05
4.18451e-05
4.17682e-05
4.18376e-05
15.9994
14.0006
22.0199
40.1259
74.8144
81.4572
40.5982
22.8163
17.4208
17.7087
21.5858
29.322
37.0047
37.7574
35.039
30.2907
24.017
16.4116
8.01931
1.122
0.0021689
5.83843e-05
4.78552e-05
4.57895e-05
4.50026e-05
4.49387e-05
4.53825e-05
4.61835e-05
4.72078e-05
4.83375e-05
4.94606e-05
5.05014e-05
5.1384e-05
5.20387e-05
5.24654e-05
5.26413e-05
5.2572e-05
5.23096e-05
5.18841e-05
5.1304e-05
5.06233e-05
4.98712e-05
4.90941e-05
4.83255e-05
4.75278e-05
4.66918e-05
4.5876e-05
4.51385e-05
4.4514e-05
4.39991e-05
4.35473e-05
4.31196e-05
4.27096e-05
4.23269e-05
4.19839e-05
4.1685e-05
4.14307e-05
4.1225e-05
4.11628e-05
4.12307e-05
14.468
13.6267
26.3396
51.942
91.7709
58.4737
29.2955
18.4693
16.0022
17.5508
22.2202
30.61
35.4569
35.2417
32.2341
27.5716
21.6209
14.5005
6.73917
0.715942
0.000774823
5.59374e-05
4.79995e-05
4.5539e-05
4.43584e-05
4.39354e-05
4.40448e-05
4.45281e-05
4.52475e-05
4.60961e-05
4.69761e-05
4.7815e-05
4.8548e-05
4.91205e-05
4.95138e-05
4.97182e-05
4.97253e-05
4.9581e-05
4.92977e-05
4.88883e-05
4.83884e-05
4.78074e-05
4.7198e-05
4.65921e-05
4.59567e-05
4.52796e-05
4.45982e-05
4.39703e-05
4.34408e-05
4.30099e-05
4.26379e-05
4.22879e-05
4.19475e-05
4.16234e-05
4.13285e-05
4.10703e-05
4.08516e-05
4.06751e-05
4.06252e-05
4.0692e-05
14.6452
15.1674
36.2914
84.8256
84.4215
40.1542
21.6284
15.7236
15.2068
17.7026
23.0815
31.1071
33.7558
32.6636
29.4781
24.9395
19.3064
12.6633
5.54213
0.417301
0.000279102
5.55366e-05
4.86403e-05
4.58025e-05
4.42619e-05
4.35176e-05
4.33297e-05
4.35298e-05
4.39814e-05
4.45849e-05
4.5252e-05
4.59089e-05
4.64948e-05
4.69645e-05
4.73007e-05
4.74939e-05
4.75331e-05
4.74539e-05
4.7254e-05
4.69583e-05
4.65821e-05
4.6123e-05
4.56363e-05
4.51525e-05
4.46412e-05
4.40884e-05
4.35154e-05
4.29781e-05
4.25262e-05
4.21621e-05
4.18531e-05
4.1565e-05
4.12819e-05
4.10068e-05
4.07523e-05
4.05277e-05
4.03382e-05
4.01861e-05
4.01466e-05
4.02124e-05
17.4095
21.3925
65.0409
120.505
57.7385
27.2358
16.6724
14.0377
14.8568
18.1173
24.2125
30.535
31.7147
30.1077
26.8094
22.4004
17.074
10.9004
4.42568
0.210854
0.000132009
5.59659e-05
4.95062e-05
4.63509e-05
4.45002e-05
4.34723e-05
4.30182e-05
4.297e-05
4.319e-05
4.35805e-05
4.40574e-05
4.45488e-05
4.49972e-05
4.53576e-05
4.56256e-05
4.57888e-05
4.58314e-05
4.57767e-05
4.56235e-05
4.54005e-05
4.51091e-05
4.47386e-05
4.43435e-05
4.39508e-05
4.35355e-05
4.308e-05
4.25949e-05
4.2133e-05
4.17449e-05
4.14345e-05
4.1175e-05
4.09351e-05
4.06984e-05
4.04647e-05
4.02444e-05
4.00479e-05
3.98824e-05
3.97504e-05
3.97195e-05
3.97844e-05
27.9651
45.4049
166.534
79.9516
34.4642
18.4055
13.5945
13.0738
14.8572
18.7877
25.4411
29.3823
29.6219
27.6116
24.2419
19.9594
14.9221
9.20639
3.38486
0.0886538
9.18337e-05
5.67717e-05
5.04976e-05
4.70668e-05
4.49444e-05
4.36616e-05
4.29734e-05
4.27096e-05
4.27304e-05
4.29348e-05
4.32419e-05
4.35855e-05
4.39087e-05
4.41685e-05
4.4364e-05
4.44801e-05
4.45078e-05
4.44523e-05
4.43193e-05
4.41406e-05
4.39058e-05
4.35982e-05
4.32703e-05
4.29446e-05
4.26026e-05
4.22237e-05
4.18104e-05
4.14116e-05
4.1076e-05
4.0809e-05
4.05879e-05
4.0385e-05
4.01851e-05
3.99859e-05
3.97949e-05
3.96226e-05
3.94769e-05
3.93613e-05
3.93374e-05
3.94011e-05
102.05
240.884
108.571
41.5166
19.817
13.2755
11.8298
12.6473
15.1689
19.7172
25.7829
27.9703
27.4676
25.181
21.7786
17.622
12.8535
7.57614
2.41056
0.0292013
7.84488e-05
5.78075e-05
5.15859e-05
4.79045e-05
4.55337e-05
4.40165e-05
4.31127e-05
4.26508e-05
4.24917e-05
4.25279e-05
4.26819e-05
4.28958e-05
4.31076e-05
4.3278e-05
4.34018e-05
4.34662e-05
4.34668e-05
4.33995e-05
4.32742e-05
4.31222e-05
4.29218e-05
4.26605e-05
4.23806e-05
4.2104e-05
4.18186e-05
4.15002e-05
4.11441e-05
4.07965e-05
4.05033e-05
4.02709e-05
4.00794e-05
3.99041e-05
3.97327e-05
3.95617e-05
3.93959e-05
3.92444e-05
3.91153e-05
3.90132e-05
3.89946e-05
3.90569e-05
50.3693
70.9733
31.1692
16.9552
12.0178
10.5978
10.9629
12.6613
15.779
20.9638
25.1301
26.1562
25.1841
22.7655
19.3927
15.3817
10.8714
6.01342
1.54977
0.00687388
7.39783e-05
5.90855e-05
5.2736e-05
4.87933e-05
4.61941e-05
4.44682e-05
4.33724e-05
4.27316e-05
4.24088e-05
4.22897e-05
4.23052e-05
4.24002e-05
4.25082e-05
4.25927e-05
4.26426e-05
4.26505e-05
4.26167e-05
4.25314e-05
4.24066e-05
4.22699e-05
4.20932e-05
4.1868e-05
4.16261e-05
4.13889e-05
4.11518e-05
4.08838e-05
4.05753e-05
4.02702e-05
4.0012e-05
3.98075e-05
3.96387e-05
3.94837e-05
3.93334e-05
3.91848e-05
3.90403e-05
3.8907e-05
3.87922e-05
3.87011e-05
3.86869e-05
3.87463e-05
7.5926e-05
0.00189033
0.0177541
0.0587078
0.11815
0.187007
0.259638
0.333127
0.40628
0.479038
0.552214
0.627474
0.707585
0.797049
0.903525
1.04121
1.24004
1.57751
2.34126
5.62593
7.81259e-05
0.00206742
0.0191072
0.0625625
0.125505
0.198534
0.275793
0.354291
0.432899
0.511766
0.592069
0.676051
0.767368
0.871926
0.99969
1.16884
1.41641
1.83105
2.68041
5.03587
8.15044e-05
0.00227962
0.0207034
0.0670931
0.134144
0.212076
0.294783
0.379173
0.464156
0.550046
0.638311
0.731621
0.834203
0.952656
1.09758
1.28694
1.55348
1.96301
2.66466
4.02465
8.84759e-05
0.00262088
0.0231322
0.0736488
0.146145
0.230305
0.319718
0.41118
0.503628
0.597502
0.694472
0.797439
0.910823
1.04116
1.19819
1.39683
1.66066
2.02834
2.56432
3.36029
0.000106331
0.00332775
0.0277597
0.0851602
0.165776
0.25843
0.356385
0.456383
0.557446
0.660157
0.766329
0.878948
1.00232
1.14237
1.30722
1.50782
1.75883
2.07904
2.48928
2.99854
0.000169725
0.00518989
0.0382993
0.108394
0.201838
0.306323
0.415008
0.524874
0.63526
0.747034
0.862212
0.983812
1.11586
1.26349
1.43297
1.63169
1.86768
2.14813
2.47578
2.84081
0.000605929
0.0117897
0.0654975
0.158564
0.271404
0.391199
0.511914
0.631541
0.750291
0.869682
0.992121
1.12073
1.25924
1.41194
1.58347
1.77847
2.00071
2.25165
2.52794
2.81838
0.00556172
0.0385205
0.135633
0.265275
0.40335
0.539018
0.669257
0.794627
0.917181
1.03963
1.16503
1.29668
1.43805
1.59259
1.76355
1.95356
2.1639
2.39352
2.63783
2.88794
0.0429675
0.128796
0.301294
0.478745
0.639918
0.782619
0.911195
1.03109
1.14724
1.26394
1.38492
1.51352
1.65276
1.80519
1.97272
2.15642
2.35615
2.5699
2.79342
3.02052
0.224812
0.385551
0.663122
0.877267
1.03442
1.15492
1.25596
1.34923
1.44237
1.54055
1.64738
1.76553
1.8971
2.0434
2.2048
2.38105
2.57111
2.77264
2.98207
3.19561
0.927153
1.052
1.39826
1.56271
1.63549
1.67278
1.70308
1.73992
1.7896
1.85533
1.93846
2.03938
2.15859
2.29574
2.4493
2.61773
2.79949
2.99218
3.19279
3.39961
3.39171
2.64202
2.74176
2.60713
2.44303
2.30915
2.21831
2.16976
2.15911
2.1826
2.23633
2.31641
2.42099
2.54789
2.69368
2.85555
3.03151
3.21923
3.41713
3.62504
12.0597
5.88529
4.74351
3.90304