/*--------------------------------*- C++ -*----------------------------------*\
| =========                 |                                                 |
| \\      /  F ield         | OpenFOAM: The Open Source CFD Toolbox           |
|  \\    /   O peration     | Version:  v1912                                 |
|   \\  /    A nd           | Website:  www.openfoam.com                      |
|    \\/     M anipulation  |                                                 |
\*---------------------------------------------------------------------------*/
FoamFile
{
    version     2.0;
    format      ascii;
    class       volScalarField;
    location    "10";
    object      k;
}
// * * * * * * * * * * * * * * * * * * * * * * * * * * * * * * * * * * * * * //

dimensions      [0 2 -2 0 0 0 0];


internalField   nonuniform List<scalar> 
20320
(
0.00413699
0.00425677
0.00433598
0.00441397
0.00449063
0.00456591
0.00464012
0.0047172
0.00485875
0.00581371
0.012334
0.0355915
0.0821633
0.144339
0.205968
0.251595
0.271344
0.261033
0.211402
0.115772
0.00414385
0.00413402
0.00415379
0.00420078
0.00427637
0.00438428
0.00455707
0.00542377
0.0143271
0.0615361
0.174564
0.333767
0.501448
0.64838
0.755507
0.813207
0.824552
0.802333
0.742239
0.571632
0.0041625
0.00417955
0.00422404
0.00429829
0.00440589
0.00461906
0.00623381
0.0217353
0.0923543
0.244047
0.449683
0.668818
0.86965
1.03093
1.1412
1.19817
1.20687
1.17088
1.07169
0.808168
0.00419067
0.00425186
0.00434666
0.00446325
0.00466836
0.0061335
0.0209605
0.0932818
0.25707
0.487479
0.742124
0.987137
1.19887
1.36243
1.47081
1.52348
1.52242
1.46362
1.32054
0.977097
0.00422816
0.00435342
0.00450871
0.00471131
0.00557255
0.0152472
0.0734021
0.228106
0.466313
0.744523
1.02554
1.28285
1.49852
1.66155
1.76677
1.81284
1.79826
1.71424
1.53001
1.11805
0.00427278
0.00447732
0.00472626
0.00517009
0.00967294
0.0463261
0.173693
0.402052
0.690728
0.998319
1.29459
1.55842
1.77552
1.93703
2.0382
2.07628
2.04704
1.9387
1.71757
1.2452
0.00432306
0.00463127
0.00498153
0.00655104
0.0237532
0.111137
0.310529
0.594199
0.916822
1.2434
1.54922
1.81687
2.03438
2.19392
2.29051
2.32008
2.27637
2.14553
1.89126
1.36423
0.00437911
0.00478631
0.005394
0.0110357
0.0569996
0.208534
0.468778
0.792482
1.13866
1.47824
1.79055
2.06075
2.27828
2.43574
2.52767
2.54881
2.4914
2.33989
2.05547
1.47789
0.00443297
0.00494105
0.00634669
0.0228147
0.114396
0.3294
0.637276
0.990364
1.35365
1.70274
2.01995
2.29222
2.50983
2.66544
2.75301
2.76626
2.6961
2.52552
2.21318
1.58797
0.00447844
0.00512663
0.00876912
0.0466183
0.193716
0.463983
0.808765
1.18421
1.56067
1.91735
2.23882
2.51325
2.73139
2.88575
2.96965
2.9758
2.89394
2.70562
2.36694
1.69602
0.00451636
0.00539814
0.0142017
0.0847534
0.288509
0.604563
0.978578
1.37192
1.7593
2.12275
2.44854
2.72572
2.94527
3.09941
3.18071
3.18088
3.08843
2.88347
2.51945
1.80374
0.00454803
0.00589391
0.0242501
0.135765
0.391713
0.745526
1.14362
1.5522
1.94947
2.31968
2.65047
2.93152
3.1539
3.30937
3.38967
3.38534
3.28359
3.06288
2.67391
1.91328
0.00457273
0.00683153
0.0397109
0.195635
0.497353
0.882901
1.3018
1.72429
2.13133
2.50901
2.84607
3.13273
3.36
3.51907
3.60068
3.59401
3.48459
3.24894
2.83475
2.0276
0.00459066
0.00840681
0.0600629
0.259625
0.600832
1.01385
1.45165
1.88769
2.30514
2.69163
3.03689
3.3316
3.56667
3.73266
3.81906
3.81328
3.69866
3.44907
3.00856
2.15116
0.00460454
0.0106837
0.0836681
0.323453
0.698766
1.13632
1.59212
2.04208
2.47119
2.86844
3.22452
3.5306
3.77755
3.95525
4.05174
4.05214
3.93656
3.67487
3.20608
2.29123
0.00461762
0.0135409
0.108393
0.383771
0.788801
1.24894
1.72251
2.18732
2.62986
3.04041
3.41065
3.73243
3.99679
4.1931
4.3079
4.32337
4.21496
3.94585
3.44647
2.46095
0.00463106
0.0167008
0.132207
0.438245
0.869453
1.35087
1.84249
2.32348
2.78164
3.2085
3.59693
3.93979
4.2288
4.45335
4.59893
4.64467
4.55963
4.2958
3.76649
2.68707
0.00464325
0.0198233
0.15356
0.485533
0.940051
1.44192
1.95213
2.4509
2.92715
3.37372
3.78491
4.1551
4.4775
4.7428
4.93697
5.03761
5.00746
4.78217
4.24058
3.03162
0.00465153
0.0226167
0.171586
0.525272
1.00081
1.52263
2.05223
2.57053
3.0675
3.53732
3.97601
4.38006
4.74528
5.06551
5.33034
5.52077
5.59974
5.49036
5.01742
3.6626
0.00465437
0.0249234
0.186164
0.558113
1.053
1.59464
2.14462
2.68436
3.20471
3.70124
4.17188
4.61568
5.032
5.4197
5.77578
6.09242
6.34946
6.49164
6.33862
5.17324
20.8251
21.6946
25.3596
28.9973
33.2346
38.3601
44.553
52.0442
60.872
70.1296
80.7581
87.8801
75.5652
64.841
55.0324
45.3869
37.2065
31.046
26.4894
22.9036
20.0336
17.7251
15.863
14.3211
13.0175
11.9267
11.0223
10.2905
9.71944
9.19708
8.63206
8.13786
7.74735
7.44657
7.22201
7.06163
6.93653
6.81602
6.64559
6.34986
6.0179
5.75859
5.62389
5.55826
5.41759
5.1296
4.78845
4.42305
4.02748
3.6963
3.61334
3.77093
3.36149
3.1885
3.21251
2.559
0.828809
0.0304714
0.00217036
0.00179944
26.3781
59.0539
67.898
76.8833
88.5267
102.943
120.556
141.998
168.281
196.643
206.34
193.14
168.056
142.572
119.827
99.8093
85.0216
73.7013
64.1846
56.1341
49.4254
43.892
39.3474
35.5158
32.2291
29.4523
27.1059
25.1498
23.5278
22.0726
20.6664
19.4437
18.5111
17.8281
17.3706
17.0955
16.9
16.6642
16.2525
15.6149
14.9306
14.4543
14.2684
14.2249
13.9725
13.3912
12.6706
11.8698
10.8724
9.96766
9.74311
9.12658
9.13359
11.0655
9.2211
3.51952
0.310763
0.0157914
0.0115256
0.00949081
25.3713
71.0421
89.0357
96.5783
110.241
128.178
150.773
178.708
214.836
264.945
283.15
213.973
168.619
145.487
126.426
109.832
97.7182
87.2506
77.4688
68.8007
61.3593
55.0917
49.8432
45.3645
41.4611
38.0863
35.1716
32.6777
30.5657
28.7224
27.0638
25.6917
24.705
24.0652
23.7645
23.739
23.7714
23.6626
23.2074
22.54
21.8725
21.4485
21.3862
21.6311
21.6698
21.3575
21.0229
20.7692
20.4017
18.954
15.5886
11.8338
7.3913
3.07421
1.13997
0.3523
0.0418573
0.029277
0.0207802
0.0168126
22.8321
69.2395
90.2147
105.918
121.793
141.212
165.674
195.448
231.617
280.593
350.236
210.326
148.373
128.422
117.767
110.052
103.028
93.6533
83.7487
75.0849
67.5453
61.2609
55.9933
51.4601
47.4434
43.8892
40.7453
38.009
35.6693
33.6748
31.9932
30.7835
30.0724
29.7161
29.593
29.5611
29.7521
30.0595
30.1971
29.8661
29.7149
29.8289
30.5006
31.6868
32.5638
33.2819
33.6659
30.5745
24.2214
16.5076
9.41614
3.79471
1.23286
0.374901
0.137059
0.0517356
0.0397319
0.0341579
0.0241862
0.0204998
20.3059
64.2246
86.7833
106.285
124.212
144.304
169.145
199.056
231.639
256.187
272.954
188.974
125.662
108.523
105.864
109.971
106.595
96.5102
85.5333
76.8665
69.9371
64.2981
59.5461
55.3278
51.4559
47.9352
44.745
41.9054
39.466
37.3903
35.6695
34.4595
33.7829
33.4008
33.2422
33.3462
33.5645
33.757
33.6985
33.7231
34.523
35.8982
37.8576
39.6362
39.983
37.9872
33.1811
25.7952
15.7903
7.03339
2.28635
0.624459
0.171827
0.0665073
0.0423134
0.0382954
0.036904
0.0294651
0.0231538
0.0206476
18.0224
57.2425
80.8134
100.755
119.106
138.675
162.235
190.026
218.074
230.607
219.04
153.473
106.621
92.5169
95.5066
112.382
101.5
91.0301
82.0942
75.1249
69.6339
65.1595
61.2199
57.4976
53.8798
50.461
47.3075
44.4931
42.0972
40.0864
38.4571
37.3293
36.6698
36.2524
36.0484
36.06
36.0214
35.744
35.255
35.2653
36.2289
37.5404
38.5815
38.5903
36.3786
31.5979
24.4742
14.5947
5.65417
1.59203
0.390145
0.103989
0.0452776
0.034833
0.0325903
0.0311589
0.0282802
0.0239289
0.0203669
0.0189294
15.9619
50.8287
73.1767
92.0866
109.461
127.281
148.046
172.056
195.984
207.372
182.565
127.863
93.2802
81.4978
86.5032
104.425
90.5459
81.9953
75.812
71.1936
67.4903
64.3374
61.3
58.1098
54.7597
51.4611
48.4089
45.7422
43.5416
41.7736
40.4126
39.494
38.9254
38.5062
38.188
37.8959
37.3635
36.4721
35.4841
35.0925
35.4558
35.7677
35.148
32.8628
28.1419
21.0526
12.3262
4.72363
1.23212
0.279897
0.075144
0.0365412
0.0297535
0.0276435
0.0257919
0.0239704
0.0218902
0.0194763
0.0174338
0.0167004
14.1588
45.4271
65.7734
82.2266
97.9864
113.602
131.33
151.804
172.487
183.722
163.977
114.543
85.096
74.6978
77.9909
85.3849
79.0867
73.2138
68.7906
65.8333
63.6747
61.7482
59.5589
56.8576
53.7626
50.6399
47.8214
45.4914
43.7006
42.3806
41.4484
40.8426
40.4199
39.9943
39.4754
38.7357
37.5728
35.9985
34.3953
33.2861
32.5712
31.3597
28.728
24.0584
17.2281
9.52937
3.70214
0.9953
0.219776
0.0599701
0.0317846
0.0266093
0.0245533
0.0225412
0.0206288
0.019106
0.0176797
0.0161849
0.0149471
0.0146129
12.665
41.4559
59.4707
73.1206
86.416
100.091
115.67
134.049
153.047
164.878
150.898
106.644
80.1399
70.8891
73.4526
77.0213
72.3507
66.4834
61.9533
59.3587
58.0414
57.0249
55.524
53.2386
50.4384
47.6566
45.3289
43.633
42.5241
41.8583
41.4764
41.2383
40.9706
40.4956
39.6893
38.411
36.552
34.251
31.9168
29.8682
27.7922
24.8058
20.1324
13.6804
7.01038
2.66311
0.762395
0.178336
0.0511713
0.0290517
0.0248821
0.0229186
0.0207865
0.0187022
0.0170957
0.0158879
0.0148194
0.0137889
0.0129856
0.0128562
11.2919
37.9643
55.7847
65.5749
76.1112
88.1453
102.887
120.977
139.816
152.2
141.04
100.915
76.7903
68.8224
72.2146
76.1044
70.3867
62.3546
55.9212
52.212
50.6999
50.0025
48.8757
46.9158
44.5362
42.4055
40.9573
40.2556
40.0959
40.2339
40.4533
40.5759
40.4251
39.8337
38.664
36.7958
34.2193
31.1671
28.0152
24.8938
21.3627
16.6948
10.7421
5.09979
1.83513
0.54192
0.140581
0.0453835
0.027782
0.0242094
0.0222099
0.0199276
0.0176755
0.0159114
0.0146264
0.0136359
0.0127845
0.0120163
0.0114591
0.0114274
9.9668
36.0185
52.974
59.0787
67.5342
78.7235
93.9326
113.089
132.76
145.134
134.064
96.3521
74.1657
67.5798
72.4752
77.8999
71.118
60.605
51.3526
45.2431
42.2872
41.0115
39.7575
38.009
36.2923
35.2531
35.116
35.7073
36.6448
37.6133
38.3894
38.8024
38.6931
37.9085
36.315
33.8349
30.5456
26.7392
22.7396
18.5473
13.7896
8.40618
3.75647
1.27317
0.373853
0.10718
0.0409543
0.0274523
0.02424
0.0220445
0.0195562
0.0171644
0.0152583
0.0138539
0.0128024
0.01197
0.0112691
0.0106666
0.0102581
0.0102688
8.12965
30.8173
46.0591
55.3799
60.9082
72.2272
89.1001
110.163
131.216
143.024
129.272
92.5316
71.8627
66.6602
73.1699
79.7917
72.6105
60.3294
48.3961
39.2733
33.7654
30.8552
28.8515
27.2764
26.6136
27.1195
28.5627
30.5037
32.4691
34.1393
35.3362
35.9211
35.7561
34.7011
32.6404
29.5444
25.5686
21.0536
16.301
11.3845
6.53444
2.79796
0.912746
0.263701
0.0825128
0.0376588
0.027585
0.0245444
0.022109
0.0194164
0.0169182
0.0149165
0.0134029
0.0122669
0.0113879
0.0106815
0.0100953
0.00960784
0.00929562
0.00932246
6.33202
23.4197
43.1299
49.1455
55.4103
68.8505
88.264
111.404
133.826
145.066
124.974
89.0793
69.6775
65.855
73.8862
81.2004
73.8458
60.5976
46.6652
34.6763
26.046
20.6121
17.382
16.2269
17.0734
19.2662
22.1207
25.1132
27.8179
29.9433
31.3705
31.9851
31.6601
30.2652
27.7072
24.0166
19.4381
14.4012
9.38378
5.01503
2.07372
0.673763
0.195884
0.0668481
0.035648
0.0279174
0.0248375
0.0221527
0.0193442
0.0167835
0.0147284
0.013146
0.0119317
0.0109948
0.0102533
0.00965195
0.00915774
0.00875611
0.00851046
0.00854135
4.9009
18.4066
30.6589
40.7164
51.2218
67.9193
90.2921
115.248
138.353
148.627
121.971
85.6603
67.4981
65.1009
74.5128
82.0286
74.5012
60.8487
45.6288
31.3655
19.7484
11.4332
7.17964
7.16581
9.47076
12.7016
16.2765
19.7757
22.8217
25.1219
26.5817
27.0858
26.5047
24.7168
21.6691
17.4831
12.5647
7.65493
3.77072
1.5128
0.500301
0.152464
0.0577548
0.0347844
0.0283589
0.0250676
0.022106
0.0192243
0.0166749
0.0145979
0.0129814
0.0117205
0.0107301
0.00994955
0.00932192
0.00881015
0.00839195
0.00805744
0.0078603
0.00788992
4.28524
14.2522
24.1107
35.3643
48.6485
68.2612
93.4358
119.875
142.514
151.489
118.163
81.9003
65.2739
64.396
75.1196
82.2149
74.5747
60.8623
44.8815
29.0081
15.1331
4.84694
1.23626
2.34311
4.62062
7.62143
11.0532
14.4981
17.5206
19.7544
21.0788
21.3575
20.4561
18.2783
14.8553
10.5068
6.05035
2.78285
1.07681
0.365819
0.12136
0.0522863
0.0346547
0.0288704
0.0252614
0.0220198
0.0190489
0.0165274
0.0144795
0.0128473
0.011566
0.0105465
0.00973074
0.00907744
0.00854603
0.00811074
0.0077564
0.00747584
0.00731552
0.00734178
4.94981
13.7537
22.4138
33.8762
47.9933
69.3338
96.4063
124.425
145.799
152.327
112.986
77.6613
63.0234
63.7601
75.769
81.8932
74.2497
60.6087
44.1879
27.2434
12.0114
1.9442
0.191879
0.583672
1.8686
3.83655
6.43708
9.31606
11.986
13.9654
15.036
15.0309
13.8292
11.4183
8.05329
4.53031
1.98685
0.741609
0.260412
0.0968397
0.0483202
0.0346879
0.0293162
0.0254256
0.0219194
0.0188628
0.0163382
0.014329
0.0127202
0.0114281
0.0103991
0.00956663
0.00889092
0.00834282
0.00789293
0.00752315
0.00722264
0.00698648
0.00685482
0.00687694
6.01215
15.6428
23.3969
33.7532
48.2235
70.011
97.9923
128.1
149.159
150.823
106.265
73.0229
60.8177
63.2269
76.2874
81.3698
73.7459
60.1179
43.4289
25.8009
9.84031
1.03743
0.123374
0.122952
0.424206
1.33892
2.8172
4.70641
6.65418
8.17296
8.90565
8.668
7.41187
5.33589
3.0336
1.32194
0.487822
0.179797
0.0769954
0.0448048
0.0344584
0.0294791
0.0254653
0.0217919
0.0186562
0.0161371
0.0141411
0.0125675
0.0112951
0.0102609
0.00942654
0.00874211
0.00818032
0.00771997
0.00733936
0.00702555
0.00677054
0.00657104
0.0064622
0.00648031
5.72684
17.2899
24.9427
34.751
48.717
70.0554
98.2928
128.702
150.861
147.97
98.5255
68.1847
58.7511
62.8528
76.2828
80.7055
73.0356
59.3664
42.5393
24.5209
8.22606
0.64416
0.115465
0.0941275
0.105981
0.236266
0.682858
1.51111
2.55016
3.44485
3.83885
3.58644
2.75154
1.65688
0.76604
0.298938
0.121328
0.0615795
0.0415426
0.0338189
0.0292391
0.0252418
0.0215632
0.018414
0.0159022
0.0139364
0.0123795
0.0111411
0.010126
0.00929134
0.0086101
0.00804469
0.00757654
0.00718973
0.00686792
0.00660164
0.006385
0.00621593
0.00612535
0.00613999
6.83802
19.1249
27.2627
36.1188
49.8322
70.6389
98.6173
126.663
148.057
140.465
89.9695
63.3767
56.9179
62.7056
76.3043
79.7001
71.9165
58.3004
41.4847
23.3108
6.96036
0.428174
0.105624
0.0907343
0.0829488
0.0886228
0.137319
0.286984
0.576565
0.888557
1.04009
0.942077
0.659019
0.358935
0.166983
0.0820808
0.0507487
0.0387816
0.0329046
0.028618
0.0247109
0.0211344
0.0180884
0.0156232
0.0136935
0.012173
0.0109536
0.00997231
0.00915705
0.00847983
0.00792092
0.00745246
0.00706198
0.0067369
0.00646476
0.00623867
0.00605427
0.00591042
0.00583477
0.00584657
8.97189
22.7487
30.6032
37.9955
51.8548
72.3287
98.8599
124.074
142.975
128.644
80.6396
58.8352
55.3986
62.8269
76.672
78.428
70.4129
56.951
40.2722
22.1171
5.91964
0.295896
0.0894181
0.0811947
0.076727
0.0732917
0.0757085
0.0928591
0.132097
0.182998
0.211757
0.19336
0.141169
0.0900678
0.0590433
0.0442369
0.0367973
0.0319031
0.0277456
0.0239105
0.0204937
0.0176124
0.0152776
0.0134067
0.0119318
0.0107496
0.00978851
0.00900614
0.00834834
0.00779681
0.00733709
0.00694853
0.00662254
0.00634909
0.00611871
0.00592652
0.00576924
0.00564651
0.00558315
0.0055927
11.8976
27.347
32.4033
40.5008
54.3551
74.1397
98.6502
122.114
140.407
111.934
71.3545
54.8268
54.2527
63.2128
77.0401
77.0453
68.7534
55.4322
38.9342
20.908
5.02228
0.208429
0.0700582
0.0656237
0.0652443
0.0644375
0.0633328
0.0634271
0.0661272
0.0703548
0.0718043
0.0669242
0.0574361
0.047974
0.040799
0.0353839
0.0308012
0.0266547
0.0229038
0.0196656
0.0169852
0.0148152
0.0130677
0.0116502
0.010516
0.00959074
0.00882864
0.00820193
0.00766967
0.00721979
0.00684134
0.00651872
0.00624607
0.00601566
0.00582044
0.00565688
0.00552252
0.00541766
0.00536463
0.00537239
13.2024
28.4202
34.0566
42.8304
56.4722
75.1441
96.7424
117.59
133.658
97.6685
63.0706
51.5366
53.511
63.8123
76.9285
75.7866
67.1431
53.8451
37.5038
19.6663
4.21638
0.147436
0.0517267
0.0486938
0.049977
0.051436
0.0523246
0.052483
0.052114
0.0512516
0.0495229
0.0465668
0.0425759
0.038102
0.0335767
0.0292199
0.025202
0.0216637
0.0186682
0.0162191
0.0142377
0.0126361
0.0113281
0.0102478
0.00936946
0.00864058
0.00803325
0.00752956
0.0070984
0.00673131
0.00641951
0.00615114
0.0059225
0.00572804
0.00556249
0.00542319
0.00530832
0.00521872
0.00517438
0.00518073
12.6943
28.3396
34.8042
44.2348
57.3817
74.3971
93.7194
112.932
120.897
82.7642
55.8793
49.0134
53.1829
64.5315
76.229
74.6395
65.558
52.1931
35.9849
18.3773
3.47257
0.103374
0.0368962
0.0342985
0.0355532
0.0373478
0.0390539
0.0402424
0.0406913
0.0402783
0.0389493
0.0367262
0.033731
0.030238
0.0266102
0.0231527
0.0200772
0.0174679
0.0153091
0.0135506
0.0121114
0.010931
0.00994734
0.00911891
0.00843456
0.00785719
0.00737128
0.00696557
0.0066162
0.00631658
0.00605937
0.00583559
0.00564344
0.0054792
0.00533879
0.00522012
0.00512196
0.00504538
0.00500832
0.00501353
11.5606
26.854
34.0653
43.9212
55.9691
71.3352
88.3282
107.765
108.29
69.2674
50.0755
47.2447
53.2513
65.5361
75.3852
73.0809
63.7771
50.4188
34.3706
17.0392
2.78156
0.0709557
0.0260217
0.0238115
0.0245772
0.0258645
0.0272688
0.0284751
0.029224
0.0293204
0.0286542
0.0272493
0.0252347
0.0228613
0.0204053
0.0180758
0.0160057
0.0142337
0.0127425
0.0114992
0.010457
0.00958532
0.00884202
0.00820464
0.00766877
0.00720914
0.00681904
0.00649155
0.00620822
0.00596323
0.00575071
0.00556386
0.00540227
0.00526356
0.00514448
0.00504345
0.00495957
0.00489403
0.00486303
0.00486746
10.1832
24.5404
31.7663
41.0654
52.2769
66.7203
82.2967
98.9869
93.0613
58.5677
45.7987
46.1724
53.6546
66.9279
74.5461
71.2305
61.8052
48.5251
32.6674
15.6533
2.14864
0.0470972
0.0184589
0.0167904
0.0171693
0.0179479
0.0188603
0.0197208
0.0203489
0.0206022
0.0203749
0.0196658
0.0185524
0.0171867
0.0157267
0.0142934
0.0129744
0.0118062
0.0107893
0.00991362
0.00915959
0.00851441
0.00795128
0.00745995
0.00703897
0.00667161
0.00635722
0.00609226
0.00586187
0.00566106
0.00548532
0.00532933
0.00519353
0.00507643
0.00497547
0.00488947
0.00481779
0.00476164
0.00473568
0.00473952
8.86647
22.0998
28.8501
36.5825
47.2761
61.3249
76.5921
92.9717
74.1111
49.9302
42.8478
45.703
54.3394
68.2675
73.7764
69.5034
59.829
46.5803
30.9012
14.2251
1.5842
0.0300326
0.0133443
0.012248
0.0124201
0.012888
0.0134571
0.0140287
0.0144925
0.0147672
0.0147714
0.0144945
0.0139615
0.0132481
0.012429
0.0115755
0.0107508
0.00998726
0.0092972
0.00868088
0.008135
0.00765632
0.00722942
0.00685068
0.00651903
0.00622432
0.00596987
0.00575484
0.00556687
0.00540204
0.00525684
0.00512676
0.00501268
0.00491382
0.00482825
0.00475505
0.00469377
0.00464563
0.00462391
0.00462733
7.65846
20.059
26.3603
32.8807
42.495
56.4377
71.3403
83.4675
61.1019
43.8712
41.0255
45.7375
55.3213
68.8045
72.7456
67.78
57.843
44.6055
29.0913
12.7582
1.09688
0.0185918
0.00996122
0.00932946
0.00941226
0.0097125
0.0100838
0.0104764
0.0108241
0.0110812
0.011191
0.0111365
0.0109197
0.0105709
0.0101245
0.0096247
0.00911482
0.00861796
0.00815074
0.00771695
0.00732146
0.00696581
0.00664201
0.00635001
0.00608813
0.00585077
0.00564396
0.00546871
0.00531494
0.00517973
0.00506003
0.00495169
0.00485585
0.00477234
0.00469981
0.00463749
0.00458511
0.00454385
0.00452569
0.00452881
6.68651
18.5144
24.7279
30.1508
39.6212
52.8233
68.4809
73.425
50.289
39.7528
40.0839
46.1766
56.6279
69.3457
71.1156
65.7229
55.7195
42.5687
27.2408
11.263
0.700836
0.0116882
0.00777491
0.00744594
0.00749636
0.00770204
0.00796312
0.00824907
0.00851887
0.00874765
0.00889518
0.00894279
0.00888566
0.00873177
0.00849903
0.00821321
0.00790149
0.00757973
0.00726382
0.00695895
0.00667264
0.00640818
0.00616257
0.0059371
0.00572981
0.00553795
0.00536915
0.00522567
0.00509958
0.00498884
0.00489037
0.00480019
0.00471964
0.00464905
0.00458757
0.00453454
0.0044898
0.0044544
0.00443921
0.00444216
5.95624
17.3807
23.8162
29.0362
38.7649
51.1959
65.7085
63.0936
42.9696
37.1735
39.811
46.9465
58.1001
69.3951
69.5333
63.5572
53.4995
40.4766
25.3617
9.75619
0.40858
0.00796377
0.00639131
0.00622503
0.00626505
0.00641286
0.00660763
0.00682483
0.00704031
0.00723739
0.00738882
0.00747774
0.00749809
0.00744848
0.00733818
0.00718072
0.00699401
0.006787
0.00657438
0.00636074
0.00615361
0.00595635
0.00576961
0.00559535
0.00543106
0.00527559
0.00513728
0.00501916
0.00491553
0.00482489
0.00474392
0.00466888
0.00460117
0.00454148
0.00448936
0.00444427
0.00440607
0.00437568
0.00436296
0.00436581
5.46061
16.5992
23.1929
29.1714
39.2641
50.9817
65.8637
51.3414
37.6344
35.7132
40.0519
48.0265
59.6187
68.7786
67.9392
61.402
51.2519
38.3572
23.4738
8.2629
0.217618
0.00612935
0.00553142
0.00543786
0.00547047
0.00557923
0.00572817
0.00589712
0.00607141
0.00623774
0.0063781
0.00648004
0.00653554
0.00654037
0.00649903
0.00641894
0.00630963
0.00617867
0.00603652
0.00588721
0.00573664
0.00558882
0.00544639
0.00531156
0.0051813
0.0050552
0.00494145
0.00484367
0.00475821
0.00468399
0.00461735
0.00455494
0.00449804
0.00444753
0.00440334
0.00436502
0.00433239
0.00430626
0.00429564
0.00429844
5.17075
16.1442
22.8154
30.1306
40.2263
52.175
61.0345
42.4143
34.0454
35.1058
40.7048
49.3778
61.6073
67.7439
65.8336
59.0568
48.9325
36.2106
21.5888
6.81103
0.106883
0.00527331
0.00501297
0.00494257
0.00496219
0.00503981
0.00515268
0.00528508
0.00542633
0.00556554
0.00568965
0.00579035
0.00585886
0.00589001
0.0058864
0.0058516
0.00579041
0.00570947
0.00561509
0.00551058
0.0054004
0.00528905
0.00518013
0.00507554
0.00497216
0.00486974
0.00477584
0.00469439
0.00462363
0.00456269
0.00450783
0.004456
0.00440823
0.00436544
0.00432791
0.0042953
0.00426742
0.00424494
0.00423608
0.0042389
5.02208
15.7826
22.3706
31.4058
40.9007
55.1481
51.3608
35.4397
31.882
35.1744
41.7088
50.9434
62.8639
66.714
63.6606
56.5875
46.532
34.0315
19.7149
5.43736
0.0495626
0.00489365
0.0047204
0.0046466
0.00464636
0.00469515
0.00477696
0.00487935
0.00499291
0.00510834
0.005215
0.00530732
0.0053769
0.00541897
0.00543481
0.00542568
0.0053945
0.00534531
0.00528304
0.00520925
0.00512835
0.00504425
0.00496063
0.00487913
0.00479686
0.0047135
0.00463565
0.00456727
0.00450829
0.00445806
0.0044129
0.00437001
0.00432995
0.00429367
0.00426168
0.00423386
0.00421
0.00419067
0.00418329
0.00418617
4.99
15.5844
22.4988
32.331
42.4444
54.0666
40.3437
30.6413
30.9642
35.7916
43.015
52.8267
63.3464
65.0662
61.3279
54.0296
44.0639
31.8208
17.8598
4.1817
0.0229678
0.00475188
0.00457844
0.00448518
0.00445971
0.00448095
0.00453519
0.00461162
0.00470107
0.00479508
0.00488456
0.0049651
0.00502972
0.00507412
0.00509912
0.00510391
0.00508998
0.00506083
0.00501975
0.00496733
0.00490778
0.00484403
0.00477932
0.00471543
0.00464973
0.00458182
0.00451691
0.004459
0.0044094
0.00436773
0.00433055
0.00429517
0.00426166
0.00423086
0.00420347
0.00417961
0.00415919
0.00414255
0.00413641
0.00413937
4.85816
15.2378
23.3347
33.5386
46.0919
47.0254
31.724
27.9931
31.0391
36.8484
44.5912
54.7919
63.1657
63.2596
58.8101
51.3587
41.5199
29.5701
16.0261
3.07526
0.0116795
0.00473637
0.00453314
0.00441173
0.00435916
0.00435452
0.00438399
0.00443728
0.00450513
0.00457951
0.00465296
0.0047206
0.00477765
0.00481981
0.00484721
0.00485849
0.00485411
0.00483732
0.00480999
0.00477264
0.00472862
0.00467978
0.00462905
0.00457857
0.00452593
0.00447051
0.00441613
0.00436669
0.00432461
0.00428976
0.00425908
0.00422996
0.00420197
0.00417578
0.00415223
0.00413165
0.0041141
0.00409978
0.00409469
0.00409775
4.56196
14.6825
24.5558
35.8327
47.3712
35.2594
26.4957
27.2013
31.8433
38.2524
46.4385
57.0332
62.3019
61.1734
56.1841
48.6029
38.9031
27.2723
14.1993
2.13585
0.00729997
0.00478736
0.00454622
0.00439481
0.00431575
0.00428691
0.00429407
0.0043265
0.00437473
0.00443137
0.0044898
0.00454521
0.0045934
0.00463089
0.00465656
0.00466985
0.00467032
0.00466089
0.00464236
0.00461556
0.00458273
0.00454447
0.00450416
0.00446388
0.00442147
0.00437612
0.00433028
0.00428785
0.00425189
0.0042225
0.00419706
0.00417307
0.0041497
0.00412739
0.00410705
0.00408919
0.00407403
0.00406168
0.00405749
0.00406064
4.61372
14.9839
26.8718
41.8973
40.1692
26.6072
24.2551
27.7025
33.1445
39.9341
48.5113
58.434
61.1422
58.8366
53.4171
45.757
36.2128
24.9224
12.3711
1.36614
0.00581813
0.00486751
0.00459101
0.00441231
0.00430914
0.00425856
0.00424558
0.00425899
0.00428947
0.00433013
0.00437488
0.00441879
0.00445779
0.00448896
0.00451118
0.00452391
0.00452647
0.00452119
0.00450792
0.00448829
0.00446326
0.00443266
0.00440011
0.00436761
0.00433315
0.0042958
0.00425694
0.00422036
0.00418946
0.00416447
0.00414321
0.00412334
0.0041038
0.00408478
0.00406714
0.00405155
0.00403836
0.00402767
0.00402425
0.00402749
5.20578
16.946
32.6972
44.6963
28.2657
22.2283
24.2851
28.9778
34.7739
41.8424
50.8629
58.6153
59.4602
56.3282
50.5447
42.8227
33.4427
22.5132
10.5337
0.768034
0.00549066
0.00495489
0.00464998
0.0044489
0.00432519
0.00425545
0.00422436
0.0042209
0.00423575
0.00426219
0.00429441
0.00432752
0.00435764
0.00438179
0.00439968
0.00441053
0.00441334
0.00440962
0.00439934
0.00438435
0.00436474
0.0043398
0.00431313
0.00428651
0.00425829
0.00422727
0.00419415
0.0041625
0.0041358
0.00411438
0.00409642
0.0040798
0.00406337
0.00404714
0.00403182
0.00401813
0.00400656
0.00399725
0.00399448
0.00399779
7.18629
22.2297
47.3727
29.4741
20.7128
21.5002
25.5952
30.6675
36.6311
43.9667
53.2711
58.0204
57.5256
53.6763
47.5777
39.8014
30.584
20.0288
8.67231
0.363779
0.0055079
0.00504478
0.00471661
0.00449661
0.00435512
0.00426833
0.00422133
0.00420314
0.0042044
0.00421824
0.00423905
0.0042623
0.00428414
0.00430168
0.00431481
0.00432258
0.00432441
0.00432061
0.0043116
0.00429945
0.00428351
0.00426263
0.00424032
0.00421807
0.00419466
0.00416869
0.0041403
0.00411282
0.00408961
0.00407108
0.00405572
0.00404159
0.00402767
0.00401378
0.00400044
0.0039884
0.00397818
0.00397001
0.00396776
0.00397112
17.0598
49.6721
29.4435
19.1769
19.3579
22.9648
27.4441
32.5758
38.6743
46.3053
54.5507
56.9469
55.3123
50.8814
44.5164
36.6956
27.6325
17.4498
6.75231
0.137788
0.00560452
0.00513755
0.00478888
0.00455219
0.00439475
0.00429243
0.00423086
0.00419914
0.00418808
0.00419043
0.00420084
0.00421532
0.00422967
0.00424122
0.00424957
0.00425388
0.00425387
0.00424925
0.00424069
0.00423027
0.00421655
0.0041987
0.00417952
0.00416051
0.00414085
0.0041189
0.00409431
0.00407024
0.00404987
0.00403368
0.00402031
0.00400807
0.00399607
0.00398411
0.00397249
0.00396187
0.0039528
0.00394555
0.00394373
0.00394711
10.6972
17.7559
15.5111
17.7676
21.1871
25.046
29.457
34.6307
40.8969
48.9449
54.4913
55.1892
52.7184
47.8753
41.3249
33.4947
24.5851
14.765
4.84243
0.0404364
0.00574104
0.00523708
0.00486445
0.00461097
0.00443904
0.00432304
0.00424858
0.00420468
0.00418241
0.0041741
0.00417503
0.0041814
0.00418869
0.00419442
0.00419776
0.00419823
0.00419586
0.00418998
0.0041814
0.00417196
0.0041598
0.00414431
0.00412765
0.00411126
0.00409483
0.00407626
0.00405487
0.00403366
0.00401564
0.00400134
0.00398951
0.00397865
0.0039681
0.00395767
0.00394751
0.00393814
0.00393005
0.00392358
0.0039221
0.00392538
0.00465302
0.0267655
0.197952
0.585846
1.09925
1.66114
2.23288
2.79613
3.34254
3.86896
4.37519
4.86298
5.33547
5.79708
6.2535
6.71164
7.17933
7.66421
8.17674
8.86607
0.00465224
0.0283811
0.208566
0.611959
1.14459
1.72832
2.32404
2.91347
3.48887
4.04822
4.59302
5.12729
5.65733
6.1918
6.74212
7.32303
7.95273
8.65074
9.42708
10.2234
0.00466297
0.0302825
0.220975
0.642664
1.19806
1.80749
2.43112
3.05062
3.65873
4.25438
4.84041
5.42255
6.00904
6.61052
7.23978
7.91077
8.63525
9.41397
10.2176
10.968
0.00471132
0.0334995
0.240758
0.689165
1.27529
1.91722
2.57433
3.22839
3.87272
4.50717
5.13563
5.76488
6.40399
7.06365
7.75517
8.48816
9.26583
10.0769
10.8856
11.6297
0.00487887
0.0405804
0.280504
0.774758
1.40646
2.09107
2.78821
3.48074
4.16326
4.8368
5.5063
6.17926
6.86483
7.57284
8.31222
9.08836
9.89891
10.7284
11.5439
12.2952
0.00557373
0.0599312
0.372432
0.948066
1.64645
2.38448
3.12586
3.85697
4.57511
5.28335
5.98798
6.69721
7.42011
8.16541
8.9399
9.74599
10.5786
11.4221
12.2483
13.0184
0.0107089
0.12697
0.594385
1.2959
2.07886
2.87391
3.65524
4.41624
5.15901
5.88978
6.61682
7.3493
8.09624
8.86538
9.66174
10.4858
11.3315
12.1843
13.0212
13.8133
0.060862
0.356145
1.0736
1.93011
2.79968
3.63979
4.44206
5.21107
5.956
6.68754
7.41652
8.15323
8.90661
9.68336
10.4868
11.316
12.1644
13.0191
13.8619
14.6713
0.326192
0.927164
1.95264
2.96466
3.89528
4.74364
5.52737
6.26644
6.97897
7.68072
8.38501
9.10283
9.84259
10.6094
11.4047
12.2257
13.0656
13.9131
14.7536
15.5721
1.1794
2.0801
3.41716
4.52161
5.43236
6.21185
6.91069
7.56513
8.20105
8.83757
9.48866
10.1643
10.8713
11.6124
12.3858
13.187
14.0087
14.8407
15.6713
16.4905
3.38105
4.24035
5.72439
6.71427
7.43237
8.01464
8.53671
9.0414
9.55436
10.0926
10.6664
11.2813
11.941
12.645
13.3872
14.1607
14.9582
15.7705
16.5874
17.4038
8.65746
8.08266
9.10978
9.54865
9.80755
10.0341
10.2846
10.5826
10.938
11.3569
11.8403
12.3851
12.9904
13.6519
14.3595
15.1032
15.8755
16.6682
17.4754
18.2947
21.6776
14.2419
13.4221
12.7315
12.2855
12.0454
11.9729
12.0414
12.2307
12.5272
12.9196
13.3968
13.9483
14.5652
15.2415
15.9643
16.7161
17.4856
18.2848
19.1585
28.2488
20.8009
17.4095
15.5552
14.4468
13.7823
13.4242
13.2932
13.3462
13.542
13.8593
14.2938
14.8102
15.3927
16.0628
16.8007
17.5602
18.3169
19.0746
19.966
24.8002
21.8378
18.9592
17.0152
15.7018
14.8364
14.3037
14.0267
13.9511
14.0384
14.2636
14.6037
15.0385
15.5617
16.1632
16.8201
17.5103
18.2091
18.8961
19.6194
23.047
20.8777
18.7093
17.1062
15.9333
15.1023
14.5487
14.2219
14.0804
14.093
14.235
14.483
14.8214
15.2407
15.7232
16.2472
16.7969
17.3583
17.9281
18.5069
21.9735
19.8554
17.9397
16.5362
15.5045
14.7586
14.2434
13.9186
13.7526
13.7197
13.7983
13.9694
14.2183
14.5325
14.896
15.2919
15.7072
16.1325
16.5634
16.991
21.0443
18.9024
17.0206
15.6732
14.7071
14.0195
13.5444
13.2379
13.0683
13.0116
13.048
13.1612
13.3373
13.5637
13.8274
14.1156
14.4179
14.7267
15.0362
15.3374
20.002
17.867
15.9523
14.6046
13.6616
13.007
12.5624
12.276
12.1122
12.0453
12.056
12.1288
12.2507
12.4105
12.5975
12.802
13.0157
13.2321
13.4453
13.6479
18.6925
16.6205
14.6715
13.3232
12.4006
11.7759
11.3614
11.0983
10.947
10.8802
10.878
10.9254
11.0105
11.1233
11.2551
11.3982
11.5461
11.6933
11.8345
11.9635
16.9925
15.0623
13.1125
11.7974
10.9212
10.3441
9.9714
9.74083
9.61098
9.55388
9.54998
9.58502
9.64815
9.73071
9.82549
9.9264
10.0282
10.1264
10.2165
10.2938
14.7656
13.098
11.2142
9.99409
9.21128
8.71372
8.40387
8.21993
8.12223
8.08458
8.08907
8.12294
8.1767
8.24297
8.31582
8.39034
8.46238
8.52829
8.58463
8.6279
11.813
10.623
8.91896
7.88639
7.26046
6.88239
6.65973
6.53782
6.4831
6.47396
6.49573
6.53796
6.59283
6.65427
6.71741
6.7783
6.83364
6.88064
6.91679
6.93972
8.1681
7.50907
6.1716
5.45645
5.0612
4.84279
4.72949
4.68268
4.6798
4.70651