/*--------------------------------*- C++ -*----------------------------------*\
| =========                 |                                                 |
| \\      /  F ield         | OpenFOAM: The Open Source CFD Toolbox           |
|  \\    /   O peration     | Version:  v1912                                 |
|   \\  /    A nd           | Website:  www.openfoam.com                      |
|    \\/     M anipulation  |                                                 |
\*---------------------------------------------------------------------------*/
FoamFile
{
    version     2.0;
    format      ascii;
    class       volScalarField;
    location    "10";
    object      nut;
}
// * * * * * * * * * * * * * * * * * * * * * * * * * * * * * * * * * * * * * //

dimensions      [0 2 -1 0 0 0 0];


internalField   nonuniform List<scalar> 
20320
(
0.0347161
0.00760088
0.00767127
0.00773994
0.00780686
0.00787201
0.0079357
0.00800124
0.00811932
0.00887056
0.0128885
0.0218935
0.0332955
0.0441655
0.0527886
0.058367
0.0606318
0.059481
0.0535413
0.0396294
0.0351976
0.0352055
0.0352913
0.0353951
0.0354739
0.0354164
0.0339639
0.0254345
0.0297498
0.091934
0.217775
0.359418
0.47287
0.538588
0.556649
0.540788
0.511321
0.480278
0.416812
0.207142
0.0352843
0.035454
0.0357541
0.0361803
0.0364948
0.0339528
0.023182
0.039483
0.13176
0.301304
0.496568
0.675235
0.814518
0.904318
0.94384
0.939185
0.896864
0.808663
0.630255
0.267571
0.0354142
0.0357927
0.0363161
0.0367129
0.0344568
0.0234387
0.038086
0.132998
0.319012
0.544939
0.765635
0.956343
1.10403
1.20222
1.24848
1.24159
1.17598
1.03259
0.767559
0.304107
0.0355843
0.0362571
0.0369558
0.036113
0.0261743
0.0302876
0.107637
0.289035
0.530771
0.781402
1.01162
1.20577
1.3548
1.45298
1.49568
1.47669
1.38417
1.19487
0.866215
0.330733
0.0357829
0.036791
0.0373252
0.0314118
0.0239665
0.0718895
0.227773
0.469771
0.740054
1.00158
1.23478
1.42839
1.57493
1.66837
1.70224
1.66738
1.54887
1.32168
0.943736
0.352369
0.0359986
0.0373402
0.0360555
0.0244429
0.0412336
0.152913
0.375578
0.653449
0.938368
1.2045
1.43763
1.62867
1.77067
1.85706
1.88001
1.82862
1.68634
1.42712
1.00877
0.371063
0.036221
0.0375289
0.0315222
0.02511
0.0841763
0.263393
0.532211
0.830821
1.1234
1.39112
1.62274
1.81029
1.9469
2.02542
2.03708
1.96985
1.80613
1.51909
1.066
0.387854
0.036394
0.0367666
0.0253005
0.038908
0.152875
0.388556
0.687182
0.998137
1.29486
1.56277
1.79238
1.97625
2.10742
2.1782
2.17909
2.09722
1.91421
1.60242
1.1183
0.403395
0.0364456
0.0342949
0.0227964
0.0682863
0.239761
0.517111
0.835105
1.15386
1.45303
1.7207
1.94842
2.12899
2.25524
2.31901
2.31015
2.21508
2.01466
1.6804
1.1677
0.41818
0.0363073
0.0298652
0.026952
0.112641
0.335161
0.642032
0.973195
1.2974
1.5984
1.86602
2.09244
2.27052
2.39283
2.45075
2.43349
2.32679
2.11069
1.75568
1.21588
0.43266
0.0358982
0.0248462
0.0380851
0.167625
0.431228
0.759211
1.09998
1.42855
1.73146
1.99967
2.22576
2.40256
2.52233
2.57593
2.55194
2.43532
2.20516
1.83073
1.26454
0.447314
0.0351436
0.0213112
0.0555211
0.227438
0.522711
0.866342
1.21475
1.54738
1.85271
2.1225
2.34958
2.52668
2.64569
2.69695
2.66828
2.54371
2.30114
1.90833
1.31566
0.46274
0.0340275
0.0201247
0.0775402
0.286928
0.606398
0.962194
1.31721
1.65408
1.96265
2.23529
2.46499
2.64435
2.76488
2.81628
2.78551
2.65541
2.40235
1.99202
1.37194
0.479777
0.0326305
0.0209485
0.101724
0.342363
0.680487
1.04621
1.40738
1.74893
2.06178
2.33877
2.57302
2.757
2.88185
2.93657
2.90707
2.77467
2.51367
2.08679
1.43744
0.49975
0.0311102
0.023077
0.125656
0.391413
0.744145
1.11834
1.48553
1.83239
2.15068
2.43367
2.67465
2.86604
2.99861
3.06068
3.03696
2.90687
2.6418
2.20014
1.51876
0.524983
0.0296379
0.0258179
0.147415
0.432861
0.797223
1.17891
1.55219
1.90505
2.22999
2.52074
2.77083
2.97273
3.11703
3.19144
3.17945
3.05826
2.79544
2.34302
1.62698
0.559972
0.0283385
0.0285941
0.165774
0.466352
0.840126
1.22864
1.60817
1.96775
2.30056
2.60082
2.86242
3.0781
3.23846
3.33092
3.33797
3.23457
2.98385
2.52921
1.77931
0.613895
0.0272633
0.0309987
0.180222
0.492253
0.873795
1.26872
1.65475
2.02177
2.36358
2.67495
2.95029
3.18278
3.36335
3.47949
3.51317
3.43758
3.21143
2.76824
1.99357
0.704453
0.0263953
0.0328313
0.190915
0.511599
0.899786
1.30094
1.69382
2.06898
2.42081
2.74466
3.03553
3.28718
3.49112
3.6352
3.70127
3.66129
3.46997
3.05039
2.26177
0.855377
0.229761
0.135817
0.14683
0.156999
0.168075
0.180569
0.194535
0.210171
0.227326
0.244252
0.262355
0.273598
0.253875
0.235132
0.216687
0.196892
0.178285
0.162807
0.150377
0.139824
0.130762
0.122986
0.116342
0.11056
0.105411
0.100882
0.0969607
0.0936432
0.090968
0.0885764
0.0858484
0.0833194
0.0812553
0.0796329
0.0783974
0.0775071
0.0768273
0.076195
0.0753455
0.0737509
0.0718003
0.0701486
0.0692376
0.0688343
0.0681228
0.0663868
0.0641759
0.0617229
0.0589149
0.0562878
0.0552932
0.0566729
0.0537823
0.0519929
0.0524315
0.0485237
0.0306465
0.00672569
0.00139275
0.00123995
0.259854
1.68087
2.09106
2.27
2.44399
2.64054
2.85926
3.11286
3.45552
3.89558
4.12529
4.09746
3.86628
3.55123
3.1914
2.7989
2.46834
2.2113
2.00059
1.83145
1.69934
1.59578
1.51569
1.44609
1.38139
1.32745
1.28216
1.2468
1.22115
1.1927
1.15288
1.11761
1.10035
1.0948
1.09864
1.10988
1.12135
1.12583
1.11253
1.0717
1.02284
0.996474
0.996146
1.00379
0.978005
0.911281
0.830312
0.741136
0.628667
0.511178
0.417457
0.323277
0.250264
0.220929
0.151625
0.056296
0.00578086
0.00102959
0.0169491
0.0186398
0.256188
2.3517
3.26162
3.61809
3.89797
4.19762
4.53491
4.92007
5.40823
6.07572
6.41964
6.05736
5.85183
5.63017
5.31035
4.87905
4.43333
4.00946
3.62516
3.30719
3.05266
2.85102
2.69237
2.55926
2.43878
2.33537
2.24734
2.17438
2.11624
2.06272
2.00498
1.95605
1.93116
1.92399
1.93068
1.9462
1.95936
1.95854
1.92836
1.86849
1.8015
1.74689
1.70196
1.65614
1.57342
1.44664
1.29326
1.1175
0.924049
0.712988
0.494596
0.31912
0.175379
0.0676073
0.0234225
0.00684195
0.00156172
0.0251003
0.0508117
0.0468379
0.244393
2.5459
3.68114
4.35603
4.77666
5.16362
5.58159
6.0366
6.52571
7.06599
7.55496
6.69624
6.66443
6.72894
6.65764
6.37787
5.92326
5.38435
4.87388
4.45116
4.10601
3.83261
3.61362
3.42873
3.26082
3.11229
2.9828
2.8719
2.77956
2.69995
2.62734
2.5716
2.54159
2.52792
2.52425
2.52527
2.52577
2.51319
2.47156
2.39548
2.31698
2.23665
2.15438
2.06411
1.93522
1.77086
1.5725
1.28937
0.934335
0.576916
0.293922
0.111275
0.0339399
0.00978893
0.00352283
0.00218223
0.0189411
0.0793045
0.0753451
0.0697302
0.231463
2.54911
3.83286
4.69519
5.27013
5.76453
6.27695
6.82213
7.35513
7.69269
7.82537
7.10599
6.95677
7.26541
7.46055
7.36719
6.88342
6.27546
5.7049
5.24772
4.875
4.57113
4.3167
4.09295
3.88742
3.70073
3.53484
3.39053
3.27004
3.16849
3.08207
3.01695
2.97735
2.95121
2.93258
2.92057
2.90163
2.8617
2.78816
2.69165
2.60308
2.51065
2.41032
2.28397
2.09804
1.84021
1.49599
1.07632
0.619654
0.260033
0.0795096
0.0206079
0.0055942
0.00258436
0.00336868
0.0165309
0.0800837
0.0942695
0.0855851
0.0807654
0.219036
2.42748
3.81283
4.77767
5.48121
6.08862
6.70299
7.34237
7.94043
8.26835
8.17127
7.31361
7.10292
7.45356
7.80991
7.9056
7.27849
6.69736
6.17564
5.74582
5.38667
5.07953
4.80672
4.55519
4.31919
4.10265
3.91003
3.74435
3.608
3.49653
3.40535
3.33717
3.29056
3.25336
3.22008
3.1874
3.13875
3.05951
2.94398
2.81653
2.70049
2.57539
2.42109
2.21755
1.93163
1.55887
1.12344
0.640136
0.241272
0.0642907
0.0150242
0.00423716
0.00282501
0.00547694
0.019916
0.0694712
0.0961389
0.0923675
0.0856998
0.0822955
0.207117
2.28545
3.66944
4.68719
5.48347
6.1952
6.91156
7.63807
8.2847
8.62565
8.33838
7.45656
7.14432
7.41941
7.81598
7.98877
7.34486
6.82508
6.37414
5.99148
5.65916
5.35976
5.07804
4.80721
4.54948
4.31423
4.10955
3.93964
3.80496
3.6996
3.61698
3.5546
3.50642
3.46055
3.41041
3.34914
3.26061
3.13332
2.97144
2.80231
2.63927
2.45616
2.22373
1.92107
1.53175
1.07885
0.608567
0.227822
0.0567444
0.0124175
0.00380151
0.00345282
0.00819795
0.0257685
0.0657493
0.0894248
0.0901428
0.0857693
0.0810954
0.0789478
0.195937
2.15419
3.48795
4.47964
5.33387
6.13872
6.96113
7.77328
8.45547
8.78014
8.39653
7.44285
7.07748
7.29258
7.59666
7.66011
7.20759
6.74777
6.33887
5.99207
5.68737
5.40147
5.1191
4.83906
4.57194
4.33405
4.13718
3.98445
3.87203
3.79024
3.72887
3.68031
3.63514
3.58147
3.51094
3.41423
3.27785
3.09652
2.8825
2.66055
2.43462
2.17527
1.85185
1.45098
0.987991
0.531695
0.200483
0.0514222
0.0111265
0.00372983
0.00424206
0.0112598
0.032815
0.067147
0.0838293
0.0846524
0.0821035
0.0785867
0.0753055
0.0740478
0.186159
2.04366
3.29932
4.22639
5.07782
5.96515
6.9046
7.80194
8.49475
8.77634
8.32364
7.33264
6.97391
7.18664
7.39213
7.3495
6.9591
6.50839
6.09936
5.761
5.47282
5.20048
4.92381
4.64549
4.38535
4.16653
4.0024
3.89162
3.82249
3.7799
3.74955
3.72001
3.67978
3.61686
3.5214
3.38318
3.19293
2.95274
2.68044
2.3967
2.09814
1.75549
1.34546
0.879525
0.44128
0.161458
0.0438778
0.0102263
0.0038911
0.00532009
0.0149049
0.0401793
0.0700754
0.0808528
0.0801928
0.0777189
0.0750589
0.0722464
0.0698756
0.0691685
0.176638
1.94568
3.1343
3.96114
4.77811
5.72266
6.78268
7.75596
8.42715
8.64336
8.15019
7.18164
6.88027
7.13842
7.32103
7.22425
6.77461
6.23047
5.74021
5.3523
5.04533
4.77037
4.49675
4.2294
3.9963
3.82429
3.72223
3.67893
3.67172
3.67964
3.68561
3.67639
3.63978
3.56387
3.43809
3.25294
3.00439
2.70186
2.36731
2.01817
1.6472
1.23106
0.772102
0.360304
0.12408
0.034734
0.0091751
0.00425683
0.00692019
0.0198347
0.0478513
0.0731035
0.0794958
0.0774208
0.0743949
0.0717364
0.0693065
0.0670017
0.0652184
0.0648254
0.166988
1.83878
2.9442
3.6847
4.4732
5.47747
6.64661
7.66971
8.30525
8.45346
7.93157
7.01518
6.80401
7.13419
7.34588
7.26586
6.7408
6.04078
5.37932
4.85427
4.46227
4.14378
3.85604
3.60506
3.42344
3.33191
3.3231
3.36943
3.43665
3.49992
3.54206
3.55023
3.5128
3.41835
3.25644
3.01983
2.71032
2.34474
1.94936
1.54074
1.11371
0.67065
0.295455
0.095584
0.0267652
0.00812373
0.00490111
0.00932375
0.0264302
0.0559582
0.0759766
0.0790242
0.0758507
0.072267
0.0692877
0.0668082
0.0646384
0.0627044
0.0613094
0.0610851
0.151963
1.61433
2.68641
3.44719
4.19725
5.28418
6.54858
7.59803
8.20751
8.29257
7.72138
6.85409
6.74481
7.15431
7.41285
7.36826
6.80261
5.96259
5.09675
4.35753
3.79567
3.36831
3.03292
2.80288
2.70556
2.73231
2.84299
2.99085
3.13475
3.24978
3.32204
3.34081
3.29574
3.17618
2.97278
2.68164
2.31148
1.88762
1.44265
0.997976
0.573244
0.242509
0.0756888
0.0211972
0.00748732
0.00603003
0.0129038
0.0345044
0.06385
0.0785602
0.0789787
0.0750233
0.0709853
0.0676656
0.0649686
0.0627199
0.0607946
0.059144
0.0580179
0.0578819
0.134648
1.34854
2.46725
3.16451
4.00445
5.20473
6.53248
7.58671
8.1833
8.21444
7.52211
6.70835
6.70331
7.18786
7.49347
7.48145
6.89252
5.95405
4.90829
3.927
3.11854
2.50069
2.07374
1.88234
1.91755
2.09419
2.33076
2.57212
2.78075
2.93504
3.02629
3.04623
2.98558
2.83456
2.58567
2.23996
1.81509
1.34825
0.885875
0.479038
0.195946
0.0613195
0.0177774
0.00749131
0.00791634
0.018044
0.0435504
0.0706513
0.0806151
0.079049
0.0745621
0.0702343
0.066625
0.063698
0.0612901
0.0592744
0.0575709
0.0561477
0.055218
0.0551277
0.118922
1.13163
2.09502
2.99149
3.98462
5.26733
6.60879
7.64444
8.22013
8.19105
7.36371
6.57794
6.67974
7.23048
7.57627
7.58661
6.97614
5.97292
4.79213
3.59253
2.49951
1.60136
1.0537
0.97828
1.19372
1.50341
1.83022
2.13274
2.38117
2.55641
2.65328
2.66436
2.58071
2.39351
2.09849
1.70418
1.24239
0.774602
0.388708
0.154306
0.0496678
0.0157013
0.00815478
0.0107966
0.0248969
0.0529039
0.0760028
0.0819458
0.0790505
0.074219
0.0697352
0.0659528
0.0628254
0.0602579
0.0581215
0.0563282
0.0548251
0.0535917
0.0528127
0.0527454
0.11111
1.00102
1.9936
3.01772
4.11441
5.42346
6.73898
7.73869
8.26803
8.16361
7.20096
6.4559
6.67395
7.28046
7.6612
7.67551
7.04235
5.99627
4.72026
3.35148
2.00146
0.786041
0.228224
0.3721
0.661913
1.00119
1.3503
1.67133
1.93234
2.11078
2.20117
2.19509
2.08347
1.85936
1.52443
1.10183
0.655297
0.307252
0.117652
0.0394962
0.0143044
0.0093852
0.0147215
0.0331574
0.0617546
0.0799857
0.0826327
0.0788367
0.073879
0.0693106
0.0654487
0.0622085
0.0595023
0.0572546
0.0553685
0.053782
0.0524603
0.0513884
0.0507294
0.0506735
0.119676
1.1534
2.15008
3.22028
4.33925
5.61257
6.87291
7.83247
8.29025
8.09195
7.00819
6.33723
6.68624
7.33693
7.75113
7.74783
7.09322
6.01611
4.67161
3.18078
1.64999
0.336375
0.0407951
0.102621
0.299735
0.56827
0.876952
1.17803
1.42831
1.59667
1.67227
1.64462
1.50535
1.25281
0.904255
0.524833
0.233601
0.0864439
0.0307009
0.0133149
0.0111436
0.019582
0.0419588
0.0694051
0.0827814
0.0829014
0.0784201
0.0734258
0.0688952
0.0649882
0.061705
0.0589266
0.0565842
0.0546204
0.0529622
0.051566
0.050407
0.0494753
0.0489142
0.0488629
0.134101
1.47109
2.45544
3.47438
4.57152
5.77656
6.9676
7.89731
8.28989
7.95278
6.77831
6.22493
6.71798
7.39978
7.84216
7.81064
7.13714
6.03126
4.63295
3.05366
1.40558
0.192844
0.0418954
0.0282827
0.0739087
0.218115
0.432344
0.671705
0.884947
1.03072
1.08636
1.04019
0.889058
0.64894
0.375935
0.164909
0.0607847
0.0235539
0.0128292
0.0136125
0.0254083
0.0505248
0.0754006
0.084589
0.0828334
0.0779055
0.0728456
0.0683959
0.0645372
0.0612264
0.0584294
0.0560423
0.0540151
0.0523036
0.0508519
0.0496284
0.0486147
0.0478045
0.0473248
0.0472751
0.130529
1.63753
2.73661
3.73758
4.77618
5.89737
7.01261
7.89676
8.24267
7.77359
6.51679
6.12793
6.77076
7.4707
7.91703
7.86746
7.17567
6.03905
4.59558
2.95072
1.22288
0.132916
0.0662606
0.0423514
0.0261417
0.0421272
0.111946
0.237293
0.379452
0.486744
0.522998
0.478766
0.36464
0.21943
0.101518
0.0404307
0.0184554
0.0133054
0.0174041
0.032662
0.0587023
0.0797485
0.0855276
0.0824808
0.0772561
0.0722044
0.0677812
0.0640157
0.0607541
0.057945
0.0555572
0.0535043
0.0517519
0.0502644
0.0489979
0.047929
0.047044
0.046339
0.0459272
0.0458785
0.143543
1.93492
3.07065
4.00002
4.96686
5.9968
7.02795
7.81196
8.07897
7.50156
6.23966
6.05943
6.84468
7.5532
7.99158
7.91337
7.19932
6.03372
4.55326
2.85965
1.07684
0.0998336
0.0930498
0.0712705
0.0424654
0.026772
0.0275937
0.0483509
0.0908941
0.134524
0.152634
0.135337
0.093796
0.0517061
0.0258827
0.0159889
0.0158186
0.0238593
0.0422936
0.0667896
0.0828164
0.0856412
0.0818175
0.0764589
0.0714471
0.0671046
0.0633815
0.0602162
0.0574595
0.0550748
0.0530345
0.0512699
0.0497582
0.048469
0.047367
0.0464351
0.0456629
0.0450485
0.0446944
0.0446468
0.165261
2.2752
3.42656
4.2612
5.1495
6.091
7.01507
7.6661
7.81111
7.1125
5.9508
6.02981
6.93785
7.65022
8.08812
7.95069
7.20419
6.01292
4.50308
2.77284
0.953212
0.0783132
0.112129
0.0994303
0.0727608
0.0473742
0.0303547
0.0243643
0.0266927
0.0326074
0.0357972
0.0325293
0.0251141
0.0189894
0.017763
0.0227761
0.035295
0.0551187
0.0749188
0.0849465
0.0850841
0.0807327
0.0754764
0.0705575
0.0663204
0.0626894
0.059573
0.0569134
0.054584
0.0525602
0.0508185
0.0493049
0.0480034
0.0468879
0.0459306
0.0451191
0.0444455
0.0439099
0.043605
0.0435591
0.191275
2.56302
3.68911
4.49332
5.30493
6.16011
6.96565
7.49053
7.53161
6.58888
5.67536
6.04665
7.04774
7.76233
8.2005
7.98518
7.19797
5.9805
4.44486
2.68543
0.842439
0.0624394
0.117869
0.114576
0.099004
0.0795405
0.0582976
0.0409051
0.0303929
0.0254537
0.0234093
0.022699
0.023751
0.0284313
0.0384847
0.0536096
0.0702425
0.0823047
0.0862049
0.0839746
0.0792479
0.0741789
0.0695185
0.0654084
0.0619003
0.0588776
0.05627
0.0540361
0.0520706
0.0503567
0.0488735
0.0475775
0.0464581
0.0454938
0.0446632
0.0439574
0.0433701
0.0429035
0.0426414
0.0425974
0.203497
2.71443
3.88573
4.65823
5.40383
6.17099
6.84331
7.234
7.18234
6.0921
5.44946
6.11452
7.17305
7.8875
8.31158
8.02453
7.19153
5.94238
4.37971
2.59417
0.737848
0.0498935
0.111629
0.113904
0.108038
0.100073
0.088554
0.0747841
0.0618924
0.0526697
0.04827
0.0488572
0.0544339
0.0641008
0.0750114
0.0834934
0.0872306
0.0862355
0.0822979
0.0773843
0.0725594
0.0682089
0.0643683
0.0609934
0.0580996
0.0555841
0.0534032
0.0515292
0.0498753
0.0484281
0.0471677
0.0460591
0.0450961
0.0442632
0.0435437
0.0429305
0.0424192
0.0420133
0.0417883
0.0417466
0.200936
2.74729
3.97106
4.72714
5.41727
6.08488
6.62439
6.88997
6.67783
5.59394
5.30156
6.23195
7.31442
8.02069
8.40341
8.07128
7.18753
5.89987
4.30706
2.49619
0.635149
0.0396419
0.0987841
0.10301
0.101941
0.100964
0.0986276
0.0945687
0.0895438
0.0851031
0.0828592
0.0835327
0.0862694
0.0889915
0.0898185
0.0881418
0.0845063
0.0798756
0.0750823
0.0706153
0.0666099
0.0630879
0.0599739
0.0572153
0.0548307
0.0527378
0.0509153
0.0493461
0.0479587
0.04674
0.0456706
0.0447226
0.0438945
0.043176
0.0425539
0.0420222
0.0415779
0.0412253
0.0410324
0.0409931
0.193026
2.65092
3.91424
4.67255
5.30837
5.87981
6.29535
6.4896
6.12917
5.12252
5.24015
6.39019
7.47308
8.17104
8.48712
8.10415
7.17492
5.84881
4.22515
2.38967
0.532679
0.0310278
0.0844013
0.0888444
0.0892632
0.090539
0.0917332
0.0923906
0.0924228
0.0920629
0.091614
0.0911046
0.0900653
0.0880021
0.0848123
0.0808034
0.0764781
0.072229
0.0682791
0.0647213
0.0615449
0.0587403
0.0562301
0.0539849
0.0520225
0.0502815
0.0487598
0.0474478
0.0462867
0.0452615
0.0443553
0.0435454
0.0428345
0.042216
0.0416791
0.041219
0.0408337
0.0405274
0.0403619
0.0403256
0.182268
2.46133
3.72656
4.47442
5.06464
5.56037
5.87495
5.98924
5.54543
4.75363
5.27574
6.58193
7.64814
8.35041
8.57456
8.11975
7.14793
5.78632
4.13266
2.27349
0.431324
0.0236508
0.0714878
0.075619
0.0762314
0.0777355
0.0794775
0.0811062
0.0823564
0.0830788
0.0831218
0.0823894
0.0807953
0.0784057
0.0754143
0.0720902
0.0687196
0.0654888
0.0624864
0.0597485
0.0572713
0.0550553
0.0530425
0.0512234
0.049612
0.0481649
0.0468945
0.0457987
0.0448272
0.0439653
0.0431987
0.0425086
0.0418998
0.0413686
0.0409061
0.0405088
0.040175
0.039909
0.039767
0.0397338
0.171114
2.23224
3.45793
4.17086
4.71583
5.15223
5.405
5.49102
4.86283
4.50475
5.40573
6.80243
7.83784
8.54424
8.66897
8.13557
7.11441
5.71504
4.03035
2.1471
0.333615
0.0175398
0.0612119
0.0648209
0.0653119
0.0665736
0.0680757
0.0695849
0.0708609
0.0717421
0.0720303
0.0716593
0.0706115
0.0689927
0.0669349
0.0646174
0.0622287
0.0598889
0.0576668
0.0555902
0.0536761
0.0519348
0.0503305
0.0488648
0.0475444
0.0463422
0.045281
0.044366
0.0435529
0.0428291
0.0421826
0.0415964
0.0410762
0.0406208
0.0402232
0.0398805
0.0395917
0.0393609
0.0392391
0.0392091
0.160011
2.01205
3.16846
3.84774
4.32652
4.70656
4.92639
4.96513
4.33063
4.39021
5.61411
7.04735
8.04404
8.71119
8.75624
8.1528
7.07743
5.63712
3.91918
2.00962
0.242672
0.0131311
0.0536948
0.0565446
0.0568996
0.0578971
0.0590939
0.0603457
0.0614694
0.0623468
0.0628162
0.0628151
0.0623256
0.0614007
0.0601159
0.058594
0.0569648
0.055307
0.0536867
0.0521272
0.050659
0.0492983
0.0480263
0.0468509
0.0457714
0.0447725
0.0438855
0.0431206
0.0424402
0.0418342
0.0412913
0.0407948
0.0403511
0.0399611
0.0396197
0.0393245
0.0390749
0.0388748
0.0387704
0.0387436
0.150321
1.81894
2.90065
3.53864
3.97472
4.29252
4.50411
4.43364
3.92058
4.42094
5.88938
7.31321
8.27263
8.88334
8.81643
8.15253
7.02936
5.54998
3.79845
1.86038
0.163272
0.0108377
0.0484482
0.0504039
0.0506671
0.051446
0.0524085
0.053445
0.0544201
0.0552584
0.0558298
0.0560703
0.0559591
0.0555079
0.0547669
0.0538131
0.0527319
0.0515776
0.0504097
0.0492505
0.0481334
0.0470758
0.0460725
0.0451329
0.0442517
0.0434219
0.0426797
0.0420392
0.0414699
0.0409644
0.0405102
0.0400908
0.0397128
0.039379
0.0390863
0.0388324
0.0386171
0.0384437
0.0383541
0.0383306
0.142664
1.66862
2.6904
3.29815
3.70478
3.95778
4.11918
3.9489
3.66725
4.58505
6.21881
7.59664
8.51649
9.0527
8.87015
8.13725
6.96798
5.45204
3.66785
1.69903
0.100524
0.0109161
0.0447885
0.0459508
0.0461593
0.0467676
0.0475532
0.0484154
0.0492628
0.0500359
0.0506379
0.0510086
0.0511256
0.0509796
0.0506023
0.0500362
0.0493425
0.0485526
0.0477221
0.0468696
0.0460258
0.0452061
0.0444167
0.0436678
0.0429503
0.0422616
0.0416402
0.0411024
0.0406258
0.0402051
0.0398261
0.0394724
0.0391509
0.0388654
0.0386147
0.0383968
0.0382113
0.038061
0.0379841
0.0379637
0.137299
1.57432
2.54563
3.13691
3.50977
3.6895
3.82518
3.45126
3.57407
4.87653
6.59058
7.89703
8.76274
9.1929
8.9209
8.11522
6.89687
5.3444
3.52838
1.52609
0.0567624
0.013635
0.0421985
0.042811
0.0429718
0.0434439
0.0440828
0.044799
0.0455301
0.0462228
0.0468067
0.0472355
0.0474775
0.0475167
0.0473711
0.0470658
0.0466356
0.0461094
0.0455275
0.0449064
0.0442698
0.0436348
0.0430145
0.042419
0.0418365
0.0412661
0.0407453
0.0402922
0.0398928
0.0395432
0.039227
0.0389294
0.0386564
0.0384124
0.0381978
0.038011
0.0378513
0.037721
0.037655
0.0376377
0.134334
1.53408
2.45824
3.02262
3.32974
3.44462
3.47073
3.09785
3.65508
5.27811
6.99288
8.21216
9.03552
9.30782
8.94121
8.07563
6.81337
5.22679
3.38056
1.34214
0.0298152
0.0189642
0.0404255
0.0406941
0.0407873
0.0411356
0.0416414
0.04223
0.0428524
0.043461
0.0440002
0.0444373
0.0447363
0.0448772
0.0448722
0.0447339
0.0444818
0.044142
0.04374
0.0432895
0.0428087
0.0423165
0.0418296
0.0413566
0.0408846
0.0404127
0.0399756
0.0395923
0.0392569
0.038966
0.0387027
0.0384529
0.0382214
0.038013
0.0378292
0.037669
0.0375315
0.0374186
0.037362
0.0373477
0.133146
1.51242
2.38409
2.91374
3.11317
3.21379
3.02914
2.88305
3.9218
5.76674
7.41539
8.53554
9.29026
9.41661
8.94373
8.01613
6.71377
5.09725
3.22417
1.14944
0.0151475
0.0254631
0.0393344
0.0393621
0.0393597
0.0395826
0.0399604
0.0404315
0.0409506
0.0414743
0.0419546
0.0423682
0.0426792
0.0428685
0.0429428
0.0429068
0.0427735
0.0425593
0.0422849
0.041957
0.0415942
0.0412134
0.040831
0.0404548
0.0400722
0.039682
0.0393143
0.0389883
0.0387051
0.0384625
0.0382435
0.0380348
0.037839
0.0376609
0.0375032
0.0373655
0.0372471
0.0371493
0.0371007
0.0370894
0.133567
1.50537
2.31308
2.75137
2.84657
2.90003
2.56112
2.86159
4.3704
6.31547
7.84988
8.87348
9.5115
9.49062
8.92727
7.93814
6.59692
4.95422
3.05853
0.95278
0.00820248
0.0309279
0.0387929
0.038608
0.0384853
0.0385814
0.0388366
0.0391968
0.0396165
0.040055
0.0404692
0.0408399
0.041136
0.0413394
0.0414545
0.0414777
0.0414165
0.0412855
0.0410991
0.04086
0.0405867
0.040292
0.0399904
0.0396902
0.0393797
0.0390573
0.0387468
0.0384676
0.0382269
0.0380236
0.0378415
0.0376678
0.0375028
0.0373506
0.0372147
0.0370959
0.0369939
0.0369092
0.0368675
0.036859
0.132765
1.4926
2.22552
2.52294
2.55568
2.44331
2.23106
3.09099
4.97728
6.90069
8.29036
9.2147
9.70394
9.53878
8.88372
7.8372
6.46006
4.79508
2.88246
0.7586
0.00566043
0.034581
0.0386466
0.0382555
0.0380024
0.0379753
0.0381148
0.0383697
0.038694
0.0390479
0.039395
0.039713
0.03998
0.0401768
0.0403044
0.0403569
0.0403374
0.0402597
0.0401325
0.0399584
0.0397522
0.0395225
0.0392822
0.0390414
0.0387891
0.0385226
0.0382597
0.038019
0.0378129
0.0376413
0.0374898
0.0373457
0.0372069
0.0370767
0.0369592
0.0368562
0.0367681
0.0366947
0.0366589
0.0366531
0.12946
1.42382
2.06036
2.22476
2.20073
1.91351
2.15672
3.60556
5.70296
7.5035
8.73474
9.56388
9.85246
9.55677
8.81359
7.71088
6.29995
4.61642
2.6926
0.573463
0.00618987
0.0368751
0.0387532
0.0381715
0.0377902
0.0376458
0.0376779
0.037834
0.038067
0.0383403
0.0386206
0.0388854
0.0391147
0.0392924
0.0394136
0.039476
0.0394783
0.0394334
0.0393453
0.039218
0.0390615
0.0388789
0.0386854
0.0384906
0.0382849
0.0380644
0.0378406
0.0376323
0.0374548
0.037309
0.0371823
0.0370628
0.0369462
0.0368347
0.0367327
0.0366429
0.0365664
0.0365027
0.0364722
0.0364689
0.130813
1.33223
1.79074
1.86246
1.72019
1.58676
2.44807
4.39268
6.50171
8.10759
9.17623
9.87902
9.96728
9.53837
8.71173
7.55561
6.11315
4.41442
2.48532
0.402515
0.0109156
0.0383952
0.0389998
0.0382547
0.0377568
0.0375061
0.0374396
0.0375033
0.0376513
0.0378491
0.038066
0.0382783
0.0384661
0.0386157
0.0387218
0.0387821
0.0387941
0.0387682
0.038704
0.0386092
0.0384881
0.0383402
0.038182
0.0380232
0.0378543
0.0376709
0.0374796
0.0372988
0.0371452
0.0370203
0.0369137
0.0368141
0.036716
0.0366204
0.0365316
0.0364529
0.0363861
0.0363307
0.0363047
0.0363036
0.140097
1.20813
1.47937
1.49204
1.24536
1.63274
3.18366
5.38366
7.32527
8.69726
9.61623
10.1267
10.0331
9.48455
8.57641
7.36775
5.89537
4.1848
2.25644
0.25178
0.0205536
0.0394809
0.0393083
0.0384318
0.0378347
0.0374905
0.0373347
0.0373153
0.037387
0.037516
0.037673
0.0378342
0.0379804
0.0380974
0.0381835
0.0382353
0.0382485
0.0382298
0.0381794
0.0381059
0.0380098
0.0378879
0.037757
0.0376256
0.037486
0.0373325
0.0371683
0.0370108
0.0368772
0.0367695
0.036679
0.0365951
0.0365123
0.0364304
0.0363529
0.0362836
0.0362248
0.0361763
0.0361542
0.0361551
0.166202
0.979509
1.21281
0.977907
1.12034
2.26038
4.33708
6.47437
8.12844
9.26011
10.039
10.3114
10.0543
9.3911
8.40394
7.14316
5.64156
3.92158
1.99973
0.134344
0.0297312
0.0403454
0.0396489
0.0386632
0.0379812
0.0375542
0.0373199
0.0372275
0.0372318
0.0372988
0.0374003
0.0375136
0.0376201
0.0377056
0.037769
0.0378063
0.0378146
0.0377954
0.0377508
0.0376904
0.0376114
0.0375085
0.037398
0.0372874
0.0371707
0.0370412
0.0368996
0.0367621
0.0366453
0.0365516
0.0364738
0.0364022
0.0363316
0.0362612
0.0361935
0.0361323
0.0360803
0.0360375
0.0360187
0.0360214
0.256671
0.92185
0.718632
0.797217
1.70186
3.57531
5.73012
7.5515
8.87426
9.78723
10.3875
10.4348
10.0245
9.25311
8.1894
6.87725
5.34638
3.61721
1.70227
0.0585144
0.0360357
0.0410932
0.040011
0.0389321
0.0381748
0.0376732
0.0373675
0.037208
0.0371509
0.0371608
0.0372109
0.0372811
0.0373509
0.0374074
0.0374477
0.0374681
0.0374674
0.037444
0.0374012
0.0373488
0.0372802
0.0371916
0.0370961
0.0370009
0.0369022
0.0367921
0.0366688
0.0365477
0.0364447
0.0363625
0.0362945
0.0362322
0.0361711
0.0361102
0.0360511
0.0359969
0.0359506
0.0359126
0.0358966
0.0359006
0.204466
0.399789
0.694705
1.6757
3.3617
5.32727
7.12352
8.52489
9.5399
10.2846
10.6342
10.4804
9.93208
9.06126
7.92551
6.56434
5.00384
3.26279
1.36176
0.0214085
0.0400976
0.0417772
0.0403834
0.0392163
0.0383914
0.0378244
0.0374556
0.0372358
0.0371226
0.0370794
0.0370825
0.0371123
0.0371473
0.0371749
0.0371906
0.0371921
0.0371796
0.0371499
0.0371068
0.0370589
0.0369977
0.0369204
0.0368369
0.0367543
0.0366713
0.0365776
0.0364699
0.0363627
0.0362712
0.0361983
0.0361379
0.0360824
0.0360285
0.0359752
0.0359233
0.0358754
0.035834
0.0358
0.0357863
0.0357912
0.0256638
0.0341079
0.198638
0.526154
0.920452
1.32801
1.72825
2.11227
2.47497
2.81229
3.11982
3.39197
3.62083
3.79469
3.89537
3.8937
3.74089
3.35123
2.57011
1.25751
0.0249329
0.0350649
0.204896
0.538733
0.939464
1.35412
1.76257
2.15627
2.53061
2.88204
3.20676
3.49977
3.75372
3.95728
4.09232
4.12925
4.0187
3.67832
2.98398
1.86791
0.0240097
0.0362046
0.21227
0.55403
0.963003
1.38645
1.80448
2.20892
2.5956
2.96152
3.3035
3.61712
3.89566
4.12836
4.2979
4.37644
4.32003
4.06318
3.52612
2.69009
0.0225789
0.0385365
0.22552
0.580394
1.00156
1.43643
1.86554
2.2813
2.68019
3.05993
3.41802
3.75082
4.05237
4.31306
4.51752
4.64221
4.65297
4.50563
4.15887
3.62246
0.0201474
0.0445374
0.255097
0.634363
1.07394
1.52277
1.96325
2.38922
2.79837
3.18942
3.5608
3.90978
4.23153
4.51806
4.75695
4.93019
5.0141
4.98254
4.81811
4.5374
0.0164736
0.0622859
0.325945
0.746298
1.20875
1.67051
2.11898
2.55082
2.96548
3.36295
3.74273
4.10316
4.4407
4.74927
5.01962
5.2391
5.39261
5.46603
5.45358
5.3693
0.0170336
0.123066
0.48546
0.953194
1.4331
1.90017
2.34896
2.77937
3.19261
3.58988
3.97171
4.33746
4.68491
5.00981
5.3057
5.56418
5.77606
5.93394
6.03645
6.09308
0.0599413
0.296349
0.764831
1.2639
1.74895
2.21203
2.6535
3.07563
3.48095
3.87166
4.2492
4.61391
4.96472
5.29896
5.61232
5.89935
6.1544
6.37338
6.55603
6.70797
0.222869
0.600694
1.13893
1.65229
2.134
2.58771
3.01765
3.42759
3.82094
4.20068
4.56905
4.92729
5.27536
5.61183
5.93395
6.23813
6.52073
6.77913
7.013
7.22526
0.556855
1.01002
1.58482
2.09747
2.56757
3.00699
3.42224
3.8176
4.19668
4.56281
4.91879
5.26652
5.60685
5.9393
6.26217
6.57301
6.86936
7.14923
7.41194
7.6587
1.10967
1.53826
2.10918
2.59634
3.03983
3.45598
3.85113
4.22848
4.59081
4.94114
5.28227
5.61642
5.94507
6.26843
6.5854
6.89424
7.19319
7.48072
7.75585
8.01863
1.98886
2.22544
2.72414
3.14748
3.54352
3.92412
4.29132
4.64534
4.98703
5.31849
5.64202
5.95968
6.27327
6.58341
6.88927
7.18938
7.48239
7.76722
8.04337
8.30956
3.50694
3.10177
3.4181
3.73767
4.06762
4.40074
4.7309
5.05437
5.36965
5.67744
5.97942
6.27736
6.57261
6.86578
7.15663
7.44349
7.72415
7.99784
8.26681
8.53235
4.53431
4.03893
4.14031
4.34874
4.60152
4.87512
5.15735
5.44109
5.72299
6.00139
6.27729
6.55289
6.82741
7.10088
7.37514
7.64771
7.91386
8.17174
8.42489
8.68256
5.02091
4.75871
4.81293
4.93381
5.10465
5.30847
5.53208
5.76624
6.00533
6.2467
6.49003
6.73544
6.98279
7.23235
7.48329
7.73277
7.9776
8.2156
8.44687
8.67306
5.33707
5.21244
5.25972
5.34539
5.4681
5.62104
5.79575
5.98476
6.18279
6.38697
6.59607
6.80938
7.02649
7.24696
7.46894
7.68959
7.90641
8.11776
8.32292
8.51863
5.42097
5.41351
5.46099
5.5391
5.64327
5.7693
5.91237
6.06793
6.23259
6.40433
6.5821
6.76518
6.9529
7.14422
7.3372
7.52934
7.71833
7.90231
8.07931
8.24551
5.29969
5.38871
5.44157
5.52541
5.62903
5.74616
5.8731
6.00754
6.1482
6.29454
6.44636
6.6034
6.76505
6.93019
7.09702
7.26335
7.42691
7.58553
7.73671
7.87703
5.01162
5.17731
5.23679
5.33135
5.44324
5.5621
5.68346
5.80622
5.93091
6.05856
6.19008
6.32588
6.46572
6.60866
6.75313
6.89714
7.03853
7.17499
7.30395
7.42239
4.58574
4.81468
4.88024
4.9861
5.10887
5.23386
5.35498
5.47167
5.58584
5.69994
5.81593
5.93491
6.05705
6.1817
6.30751
6.43273
6.5553
6.67298
6.78333
6.88368
4.03849
4.32435
4.39603
4.51258
4.6456
4.77679
4.8988
5.01153
5.11803
5.22185
5.32576
5.43141
5.53928
5.64895
5.75931
5.86879
5.9755
6.07739
6.17224
6.25772
3.37329
3.71765
3.79732
3.92431
4.06526
4.19989
4.32097
4.42932
4.52898
4.62424
4.71833
4.81312
4.90927
5.00648
5.1038
5.19985
5.29298
5.38135
5.46306
5.5361
2.57533
2.99367
3.08636
3.22344
3.36806
3.5013
3.61798
3.72029
3.81296
3.90049
3.98613
4.07169
4.15778
4.24414
4.32994
4.41399
4.49487
4.57109
4.64106
4.70315
1.62338
2.13802
2.25049
2.39307
2.53394
2.66013
2.76931
2.86452
2.95034
3.03092
3.10908
3.18635
3.26319
3.33933
3.41404
3.48638
3.55524
3.61947
3.6779
3.72932
0.119918
0.0993856
0.116826
0.119984
0.117649
0.116047
0.115844
0.116602
0.118361
0.121058
0.124633
0.129104
0.134651
0.141849
0.152485
0.789055
0.617804
0.719902
0.879526
1.05511
1.23138
1.40933
1.59291
1.78343
1.98042
2.18326
2.39276
2.61233
2.84853
3.11155
1.85429
1.48995
1.45698
1.5824
1.79995
2.08219
2.40756
2.76288
3.13836
3.52596
3.91973
4.31664