/*--------------------------------*- C++ -*----------------------------------*\
| =========                 |                                                 |
| \\      /  F ield         | OpenFOAM: The Open Source CFD Toolbox           |
|  \\    /   O peration     | Version:  v1912                                 |
|   \\  /    A nd           | Website:  www.openfoam.com                      |
|    \\/     M anipulation  |                                                 |
\*---------------------------------------------------------------------------*/
FoamFile
{
    version     2.0;
    format      ascii;
    class       volScalarField;
    location    "10";
    object      p;
}
// * * * * * * * * * * * * * * * * * * * * * * * * * * * * * * * * * * * * * //

dimensions      [1 -1 -2 0 0 0 0];


internalField   nonuniform List<scalar> 
20320
(
413698
423950
423974
424023
424085
424160
424249
424347
424453
424563
424676
424796
424936
425101
425287
425473
425619
425682
425669
425644
393797
403699
403733
403784
403849
403928
404021
404126
404240
404359
404477
404600
404741
404904
405078
405243
405370
405434
405450
405503
374507
384092
384128
384182
384251
384334
384433
384544
384659
384772
384885
385005
385133
385272
385415
385549
385663
385750
385835
385981
355823
365107
365144
365199
365271
365358
365461
365569
365676
365781
365887
365996
366111
366230
366350
366466
366575
366680
366802
366982
337728
346720
346758
346814
346887
346976
347077
347179
347277
347374
347471
347570
347672
347776
347882
347987
348093
348208
348347
348540
320208
328915
328952
329009
329082
329170
329265
329359
329449
329537
329625
329715
329806
329899
329995
330093
330199
330318
330467
330668
303245
311674
311711
311767
311838
311922
312011
312096
312178
312258
312337
312418
312499
312584
312671
312765
312870
312993
313149
313358
286828
294986
295022
295074
295143
295223
295303
295380
295453
295525
295595
295666
295738
295814
295895
295985
296088
296215
296378
296596
270945
278836
278869
278919
278983
279057
279129
279197
279261
279323
279383
279443
279505
279571
279644
279729
279832
279961
280132
280361
255582
263214
263244
263289
263350
263416
263479
263537
263590
263639
263686
263733
263782
263837
263900
263978
264078
264209
264388
264630
240731
248106
248133
248174
248229
248287
248339
248385
248425
248459
248491
248520
248552
248590
248639
248706
248800
248932
249119
249378
226383
233507
233529
233566
233614
233661
233701
233733
233757
233772
233782
233789
233797
233812
233840
233890
233972
234102
234298
234577
212526
219403
219422
219453
219493
219528
219555
219570
219573
219565
219547
219524
219499
219479
219475
219497
219560
219682
219886
220192
199151
205785
205799
205825
205855
205878
205889
205885
205864
205826
205773
205708
205638
205571
205518
205495
205524
205627
205837
206175
186248
192646
192655
192673
192693
192703
192697
192671
192622
192549
192452
192335
192204
192068
191943
191850
191817
191881
192088
192467
173807
179973
179978
179989
179998
179995
179971
179921
179841
179727
179579
179397
179186
178957
178726
178521
178382
178365
178544
178970
161817
167757
167756
167760
167760
167744
167703
167630
167517
167359
167151
166892
166583
166231
165850
165473
165150
164967
165051
165508
150267
155986
155981
155978
155968
155941
155885
155790
155645
155443
155174
154829
154405
153899
153319
152686
152056
151536
151339
151702
139143
144649
144640
144631
144615
144579
144511
144397
144225
143981
143652
143221
142674
141994
141167
140186
139070
137900
136930
136609
128434
133733
133720
133707
133686
133646
133570
133444
133251
132973
132592
132083
131418
130563
129468
128070
126284
124001
121112
117771
99716.5
35962.4
15436.6
11762
11302.2
11402.9
10966.2
9790.83
8981.43
18160.4
108551
304333
374526
311790
199694
99454.3
43544
21897.8
14150.5
12296.6
12139.2
12360.1
12458.7
12272.7
11840.7
11609.9
11520.4
11458.8
11430.5
11223.2
10494.1
9603.16
9307.66
9094.48
8967.11
8930.6
9000.69
9027.41
9090.69
8375.23
7964.94
8574.85
9583.04
10433.4
11152.2
10253.3
9586.41
8945.71
7579.58
5412.87
2871.79
665.844
252.996
713.198
972.452
611.227
156.408
155.353
140.161
133.466
57324.8
22732.5
8924.41
7140.03
6854.03
6872.72
6919.29
6643.41
5314.25
1020.79
19651.1
166119
276711
254498
167568
82194.4
34744.8
16507.5
9583.09
7903.42
7696.33
7791.04
7728.04
7483.34
7030.89
6741.37
6597.47
6429.72
6186.48
5877.64
5478.94
4557.45
4275.53
4095.82
3971.22
3899.06
3837.6
3807.99
3971.02
4248.13
4143.83
5225.52
5323.56
5483.89
6261.46
6478.55
5696.82
4240.43
2175.08
829.382
116.426
110.823
134.843
127.174
113.062
98.4841
134.715
140.852
132.802
127.307
25717.5
6679.62
6371.33
6253.38
6212.99
6209.81
6240.58
6309
6462.34
6751.31
8801.93
103343
203188
200466
132454
56747.3
16612.3
5419.96
1769.84
1534.53
2188.65
2509.89
2617.11
2553.81
1858.94
1582.08
1502.99
1260.55
1163.58
1080.64
973.831
143.604
127.458
62.2183
-5.01685
-17.436
-16.6224
-16.2956
8.53251
95.5024
186.781
665.054
681.05
1370.34
1814.69
1618.62
721.634
91.6026
68.0324
86.7675
107.798
108.685
117.754
119.721
105.795
101.131
122.132
127.119
123.608
119.835
14179.6
6319.5
6323.69
6259.58
6221.47
6211.79
6233.11
6293.91
6420.69
6650.12
8519.26
63304.5
156058
156203
99955.5
23921.7
-4533.27
-2585.43
-870.284
-2.83036
-22.4814
-28.5299
-24.1604
-29.0749
-33.5217
-35.9858
-41.4007
-42.754
-45.2023
-47.0415
-46.1045
-41.8856
-37.6823
-33.0544
-26.2327
-21.3341
-21.2428
-22.9565
-25.1115
-22.1833
-15.8172
-17.3584
-13.7901
-5.80668
-7.53131
-14.2989
25.0442
41.3066
62.2121
79.3601
96.1906
99.6116
105.141
106.793
100.537
99.8325
110.379
114.679
113.647
111.386
10435.1
6291.41
6303.72
6257.52
6221.02
6205.06
6215.97
6259.96
6345.64
6498.63
6698.21
31123.8
122680
120528
75378.4
2442.17
88.8129
121.345
67.084
23.4767
2.64628
-11.576
-21.324
-28.9851
-35.4239
-40.7662
-45.552
-48.6411
-51.0443
-52.0347
-51.0618
-46.9743
-42.5222
-37.741
-32.0326
-27.4574
-26.0549
-26.6337
-27.7883
-24.8408
-19.9378
-18.7902
-17.2221
-13.3949
-11.8614
-10.0549
12.0121
35.6698
55.6521
70.9157
83.477
88.9485
93.1428
94.9189
92.9511
93.8853
99.7672
103.273
103.454
102.293
9728.52
6306.85
6279.62
6245.99
6213.2
6193.59
6195.72
6225.25
6283.07
6369.05
6252.96
19104.1
91533.2
92397.4
46296.9
465.118
164.165
93.8734
48.1689
15.88
-3.42762
-16.4862
-25.5636
-33.0212
-39.9008
-45.6757
-50.7445
-54.2807
-56.4153
-57.1934
-56.0725
-52.5387
-47.9979
-43.0471
-37.6869
-33.1479
-30.9259
-30.637
-31.0742
-29.2596
-25.5528
-23.1924
-20.9212
-17.3149
-14.7442
-9.96238
6.51933
27.6453
46.181
59.9339
70.6758
77.2298
81.5904
83.9018
84.2307
85.8679
89.7065
92.5079
93.2432
92.8038
9667.39
6314.1
6257.68
6232.23
6202.02
6180.13
6175.32
6193.19
6233.02
6285.71
6193.04
12982.9
62948
68430.3
14058.3
123.2
134.881
74.8028
34.836
7.59532
-9.65192
-21.1808
-29.7471
-37.1799
-44.2116
-50.5815
-56.1087
-60.1244
-62.4638
-63.1457
-61.8924
-58.5143
-53.8768
-48.7313
-43.4059
-38.7826
-35.9451
-34.8806
-34.6859
-33.3372
-30.4429
-27.6556
-24.8365
-21.1636
-17.2652
-11.1935
2.40245
20.1192
36.0899
48.8179
58.7748
65.6848
70.3741
73.2653
74.8664
76.8902
79.7966
82.1017
83.0726
83.0777
9723.29
6364.36
6239.55
6220.74
6191.64
6168.04
6157.83
6166.48
6192.35
6225.85
6179.04
10105.9
41307.9
46730.8
4512.8
98.5647
106.365
51.6036
18.1006
-3.99663
-17.8529
-27.1175
-34.4579
-41.4429
-48.5836
-55.4955
-61.6309
-66.2561
-68.9996
-69.7665
-68.4322
-65.0366
-60.2605
-54.8588
-49.3683
-44.5451
-41.1955
-39.4536
-38.6768
-37.434
-34.9741
-32.0059
-28.7127
-24.7008
-20.0573
-13.259
-1.70172
12.756
26.5482
38.2001
47.5458
54.4867
59.4273
62.7945
65.1365
67.4077
69.8825
71.8786
72.9404
73.2087
10607.8
6425.98
6231.8
6215.38
6185.07
6159.42
6144.98
6146.51
6162.6
6190.23
6170.69
8132.1
25921.2
29285.5
1722.79
64.8753
66.8568
26.7341
-0.0528029
-17.2823
-27.4668
-34.0084
-39.6264
-45.8504
-52.9615
-60.4187
-67.2652
-72.628
-75.9243
-76.916
-75.5766
-72.1126
-67.1499
-61.4552
-55.6932
-50.5789
-46.7554
-44.4027
-43.062
-41.6592
-39.3801
-36.3367
-32.7143
-28.4261
-23.3799
-16.4887
-6.43743
5.60995
17.544
28.1
36.8354
43.633
48.7126
52.4203
55.2054
57.6427
59.9216
61.7376
62.8298
63.2479
11394.4
6636.37
6238.1
6218.37
6183.3
6154.94
6137.15
6133.36
6143.22
6164.09
6165.52
6841.8
15583.6
16647.3
496.79
29.1664
28.6519
2.67326
-17.7449
-30.7789
-37.6644
-41.4681
-45.1272
-50.3599
-57.3799
-65.3483
-73.0007
-79.1884
-83.1026
-84.4145
-83.1452
-79.6118
-74.4582
-68.4727
-62.4029
-56.9535
-52.6727
-49.753
-47.8739
-46.1836
-43.8776
-40.7661
-36.9769
-32.6213
-27.4637
-20.6773
-11.798
-1.50551
8.90014
18.4155
26.533
33.0993
38.2181
42.1294
45.173
47.7186
49.9113
51.6262
52.7247
53.227
13434.9
7243.13
6266.24
6229.87
6183.94
6153.52
6133.54
6125.66
6131.54
6145.91
6172.14
5600.57
8868.65
8173.47
79.3472
-7.1697
-3.71751
-19.0134
-33.7382
-43.3154
-47.6204
-49.0662
-50.8087
-54.9799
-61.8705
-70.3558
-78.8377
-85.8286
-90.3526
-92.0201
-90.8764
-87.315
-82.0162
-75.7883
-69.4377
-63.6502
-58.9325
-55.5125
-53.1328
-51.0844
-48.6224
-45.4459
-41.6878
-37.3447
-32.1201
-25.6278
-17.673
-8.69017
0.472481
9.04411
16.5658
22.8495
27.9121
31.9131
35.0964
37.7075
39.8608
41.5189
42.6156
43.1629
14021.8
8793.38
6304.69
6246.49
6185.3
6152.57
6132.29
6121.96
6124.02
6131.49
6210.04
4468.7
4623.45
3038.72
-7.74579
-29.0331
-28.3395
-37.4914
-47.5796
-54.3511
-56.8153
-56.5065
-56.6045
-59.8002
-66.5758
-75.5576
-84.7305
-92.3789
-97.4264
-99.4284
-98.4581
-94.9442
-89.5847
-83.2205
-76.6509
-70.5675
-65.488
-61.6341
-58.8036
-56.3809
-53.7083
-50.5301
-46.8054
-42.4437
-37.3022
-31.1566
-23.9505
-15.989
-7.845
-0.0908126
6.86975
12.8316
17.7676
21.7732
25.0129
27.6522
29.7824
31.4062
32.4978
33.0693
14382
8963.8
6678.32
6302.72
6183.11
6147.63
6131.4
6120.32
6116.86
6114.58
6126.85
3281.9
2083.44
283.562
-41.1574
-44.7209
-46.7868
-52.7897
-59.4761
-63.9974
-65.1906
-63.7836
-62.6596
-65.1234
-71.8086
-81.0359
-90.5692
-98.603
-104.004
-106.3
-105.55
-102.18
-96.8967
-90.5154
-83.8392
-77.5693
-72.2207
-68.0286
-64.8171
-62.0568
-59.2133
-55.9717
-52.2394
-47.914
-42.9291
-37.1405
-30.5614
-23.4149
-16.0997
-9.05722
-2.62846
2.99489
7.75784
11.7054
14.942
17.579
19.6876
21.2861
22.3711
22.955
14394.1
10824.3
7274.08
6107.81
6122.1
6129.46
6124.72
6118.83
6114.18
6109.02
6070.91
2209.45
508.66
-1091.19
-60.1746
-57.9472
-61.2952
-65.5774
-69.9284
-72.7199
-73.0392
-71.1732
-69.5053
-71.6035
-77.8976
-86.7619
-96.1231
-104.181
-109.753
-112.302
-111.827
-108.721
-103.654
-97.4111
-90.7793
-84.458
-78.9749
-74.5744
-71.1048
-68.0888
-65.041
-61.716
-57.9875
-53.7529
-48.9397
-43.496
-37.4448
-30.9594
-24.341
-17.9235
-11.9848
-6.69996
-2.14061
1.70469
4.89563
7.50477
9.5853
11.1602
12.2367
12.8277
12123.8
10842.1
6506.89
6172.48
6065.63
6099.6
6116.27
6112.37
6108.84
6112.07
6053.06
1165.5
-600.092
-1614.73
-73.4078
-69.7766
-73.5797
-76.6728
-79.429
-80.9608
-80.6504
-78.7946
-77.6316
-79.4875
-84.6518
-92.4143
-101.074
-108.827
-114.409
-117.175
-117.032
-114.304
-109.599
-103.655
-97.2329
-91.0328
-85.61
-81.2052
-77.5895
-74.3428
-71.1376
-67.7475
-64.0341
-59.9032
-55.2804
-50.1548
-44.5578
-38.6322
-32.6054
-26.7345
-21.2444
-16.2902
-11.9503
-8.23717
-5.12257
-2.56208
-0.518332
1.03026
2.09578
2.69118
8778.11
8384.34
6208.15
6016.57
6031.6
6079.11
6100.02
6095.74
6098.55
6123.92
6032.88
349.364
-1418.8
-1511.89
-96.3317
-81.8594
-84.939
-86.7674
-88.3458
-88.9773
-88.2133
-86.5189
-86.0079
-87.5197
-91.4243
-97.7277
-105.294
-112.451
-117.874
-120.796
-121.013
-118.752
-114.537
-109.048
-103.033
-97.221
-92.1383
-87.85
-84.1513
-80.7732
-77.4651
-74.0366
-70.3569
-66.3361
-61.9061
-57.0739
-51.8781
-46.434
-40.9162
-35.5252
-30.443
-25.8051
-21.6912
-18.1289
-15.1122
-12.6177
-10.6204
-9.1021
-8.05064
-7.45319
6811.6
6473.5
6009.97
6000.81
6020.4
6054.5
6069.05
6084.26
6086.61
6108.25
5886.6
110.886
-1986.97
-1142.04
-131.247
-96.6344
-96.1106
-96.3474
-96.9438
-96.9191
-95.8851
-94.3698
-94.1097
-95.3004
-98.2071
-102.981
-109.093
-115.305
-120.324
-123.269
-123.813
-122.065
-118.46
-113.637
-108.343
-103.212
-98.5637
-94.4545
-90.7736
-87.3459
-83.9919
-80.5591
-76.9302
-73.0224
-68.7842
-64.2276
-59.3897
-54.3643
-49.2889
-44.3211
-39.6087
-35.27
-31.3817
-27.9814
-25.0779
-22.6622
-20.7197
-19.2371
-18.2029
-17.6058
6772.61
6526
6036.8
6003.43
6009.09
6026.49
6036.33
6072.15
6069.55
6080.77
5234.94
67.2145
-2384.92
-810.998
-130.412
-111.813
-106.849
-105.646
-105.39
-104.864
-103.662
-102.313
-102.111
-102.981
-105.129
-108.656
-113.221
-118.123
-122.379
-125.124
-125.897
-124.694
-121.861
-117.949
-113.545
-109.116
-104.921
-101.043
-97.4502
-94.0428
-90.6954
-87.2888
-83.7266
-79.9419
-75.8978
-71.5945
-67.0779
-62.4209
-57.7327
-53.1397
-48.7631
-44.7054
-41.0389
-37.8061
-35.0253
-32.698
-30.8176
-29.3752
-28.3622
-27.7684
6616.53
6245.85
5964.63
5982.37
5984.56
5989.61
6030.44
6045.85
6057.93
6087.67
4314.76
-283.667
-2749.33
-618.721
-117.16
-120.984
-116.392
-114.607
-113.749
-112.848
-111.526
-110.301
-110.079
-110.669
-112.219
-114.804
-118.178
-121.858
-125.147
-127.443
-128.291
-127.578
-125.503
-122.445
-118.835
-115.031
-111.263
-107.643
-104.191
-100.856
-97.5556
-94.2041
-90.7294
-87.0775
-83.2196
-79.1574
-74.9304
-70.6002
-66.255
-61.9965
-57.9256
-54.1308
-50.6796
-47.6156
-44.9627
-42.7301
-40.9171
-39.5196
-38.5311
-37.9437
6737.91
6000.54
5890.7
5938.56
5948.17
5986.19
6005.52
6016.35
6036.98
6134.9
3311.99
-697.278
-3174.99
-465.714
-115.002
-127.277
-124.842
-123.19
-122.028
-120.877
-119.475
-118.329
-118.051
-118.398
-119.483
-121.352
-123.828
-126.559
-129.067
-130.881
-131.647
-131.225
-129.692
-127.281
-124.297
-121.016
-117.641
-114.29
-111.008
-107.781
-104.561
-101.294
-97.9249
-94.4127
-90.7366
-86.9001
-82.9361
-78.8991
-74.86
-70.9024
-67.1106
-63.5619
-60.3171
-57.4198
-54.8969
-52.7625
-51.0209
-49.6719
-48.7116
-48.1337
6005.41
5850.49
5877.01
5901.9
5935.66
5959.93
5979.59
5991.09
6003.33
5975.34
1975.73
-881.434
-3487.12
-342.534
-120.523
-134.262
-132.901
-131.522
-130.245
-128.945
-127.501
-126.402
-126.05
-126.188
-126.9
-128.214
-130.001
-132.004
-133.879
-135.269
-135.893
-135.607
-134.422
-132.473
-129.971
-127.125
-124.102
-121.013
-117.917
-114.823
-111.713
-108.552
-105.302
-101.935
-98.4358
-94.8126
-91.0891
-87.3172
-83.5542
-79.8692
-76.3335
-73.0139
-69.9657
-67.2306
-64.8374
-62.8031
-61.1357
-59.8381
-58.9086
-58.3432
5854.21
5836.58
5853.71
5884.32
5910.42
5933.15
5952.98
5966.59
5986.29
5904.33
1032.69
-1173.68
-3573.89
-225.807
-144.259
-143.176
-141.206
-139.777
-138.427
-137.046
-135.596
-134.522
-134.089
-134.05
-134.462
-135.339
-136.585
-138.017
-139.378
-140.399
-140.854
-140.61
-139.64
-138.019
-135.887
-133.397
-130.682
-127.841
-124.937
-121.994
-119.012
-115.972
-112.852
-109.632
-106.306
-102.882
-99.3833
-95.853
-92.3406
-88.9039
-85.6033
-82.4971
-79.6351
-77.0566
-74.791
-72.857
-71.2651
-70.0209
-69.1246
-68.5742
5847
5835.15
5843.05
5865.49
5888.13
5908.19
5926.69
5941.89
5970.22
5817.08
477.524
-1612.7
-3402.32
-174.54
-160.095
-152.338
-149.691
-148.041
-146.606
-145.188
-143.755
-142.695
-142.182
-141.992
-142.161
-142.693
-143.515
-144.49
-145.43
-146.129
-146.41
-146.151
-145.309
-143.917
-142.067
-139.864
-137.415
-134.803
-132.089
-129.305
-126.461
-123.553
-120.568
-117.498
-114.34
-111.105
-107.816
-104.507
-101.224
-98.0145
-94.9305
-92.0231
-89.3368
-86.9087
-84.7673
-82.9324
-81.4166
-80.2269
-79.3654
-78.8324
5828.83
5829.25
5833.9
5851.41
5867.33
5882.63
5898.89
5914.07
5929.66
4947.26
316.22
-2091.31
-2955.07
-169.68
-161.515
-160.152
-157.96
-156.281
-154.801
-153.377
-151.976
-150.925
-150.336
-150.017
-149.989
-150.246
-150.732
-151.345
-151.941
-152.365
-152.477
-152.171
-151.395
-150.161
-148.521
-146.549
-144.326
-141.921
-139.389
-136.763
-134.063
-131.292
-128.447
-125.526
-122.532
-119.477
-116.382
-113.279
-110.207
-107.206
-104.322
-101.6
-99.0791
-96.7945
-94.7733
-93.0356
-91.5952
-90.4605
-89.635
-89.1206
5810.89
5814.76
5819.67
5837.79
5848.39
5859.82
5873.02
5889.12
5959.22
3719.44
-111.605
-2613.62
-2100.62
-185.784
-166.259
-167.773
-166.087
-164.502
-163.027
-161.624
-160.263
-159.219
-158.563
-158.134
-157.943
-157.979
-158.198
-158.519
-158.836
-159.028
-158.984
-158.614
-157.866
-156.736
-155.253
-153.466
-151.433
-149.212
-146.849
-144.379
-141.823
-139.191
-136.487
-133.714
-130.878
-127.994
-125.082
-122.17
-119.292
-116.484
-113.786
-111.236
-108.871
-106.723
-104.817
-103.174
-101.808
-100.728
-99.9391
-99.4446
5797.36
5802.39
5804.81
5817.53
5826.56
5836.81
5848.86
5860.35
5835.32
2156.58
-435.895
-3116.74
-1155.46
-205.062
-178.473
-176.365
-174.382
-172.77
-171.308
-169.944
-168.622
-167.585
-166.87
-166.349
-166.023
-165.878
-165.881
-165.969
-166.057
-166.054
-165.871
-165.432
-164.688
-163.627
-162.26
-160.619
-158.747
-156.688
-154.482
-152.16
-149.746
-147.252
-144.687
-142.058
-139.377
-136.655
-133.914
-131.181
-128.483
-125.854
-123.328
-120.939
-118.721
-116.702
-114.907
-113.355
-112.061
-111.035
-110.283
-109.808
5786.02
5791.26
5793.32
5804.13
5806.11
5816
5826.96
5846.44
5738.28
1258.85
-901.745
-3630.66
-657.598
-184.851
-189.077
-185.152
-182.889
-181.151
-179.675
-178.342
-177.056
-176.03
-175.268
-174.669
-174.23
-173.938
-173.765
-173.662
-173.565
-173.399
-173.094
-172.587
-171.833
-170.815
-169.536
-168.012
-166.274
-164.357
-162.294
-160.112
-157.834
-155.475
-153.046
-150.559
-148.025
-145.458
-142.88
-140.312
-137.782
-135.319
-132.954
-130.715
-128.634
-126.738
-125.048
-123.584
-122.361
-121.387
-120.671
-120.217
5776.49
5781.41
5781.79
5787.77
5789.22
5798.13
5806.48
5816.47
5047.2
828.039
-1473.97
-4074.32
-405.922
-185.014
-196.448
-193.64
-191.458
-189.656
-188.151
-186.83
-185.573
-184.565
-183.765
-183.1
-182.569
-182.155
-181.838
-181.58
-181.33
-181.029
-180.619
-180.048
-179.278
-178.288
-177.073
-175.642
-174.019
-172.226
-170.292
-168.241
-166.093
-163.865
-161.568
-159.217
-156.824
-154.405
-151.979
-149.567
-147.195
-144.886
-142.67
-140.572
-138.621
-136.839
-135.25
-133.871
-132.715
-131.793
-131.111
-130.677
5768.05
5772.69
5773.28
5773.74
5777.7
5783.75
5789.44
5838.29
3490.91
338.192
-2082.93
-3936.92
-241.204
-210.519
-205.277
-202.313
-200.092
-198.273
-196.737
-195.42
-194.187
-193.199
-192.369
-191.649
-191.04
-190.526
-190.092
-189.707
-189.332
-188.919
-188.42
-187.792
-187.002
-186.028
-184.862
-183.508
-181.981
-180.298
-178.48
-176.55
-174.526
-172.422
-170.252
-168.032
-165.775
-163.496
-161.214
-158.948
-156.722
-154.558
-152.481
-150.515
-148.685
-147.013
-145.519
-144.22
-143.129
-142.256
-141.609
-141.194
5759.95
5764.39
5765.69
5761.21
5767.01
5767.13
5775.67
5705.28
2048.15
-178.64
-2803.82
-3182.74
-223.788
-216.757
-213.874
-211.019
-208.818
-206.995
-205.438
-204.129
-202.914
-201.942
-201.086
-200.319
-199.647
-199.049
-198.519
-198.032
-197.554
-197.048
-196.474
-195.796
-194.987
-194.024
-192.896
-191.605
-190.161
-188.574
-186.862
-185.044
-183.135
-181.149
-179.101
-177.005
-174.877
-172.732
-170.585
-168.457
-166.368
-164.338
-162.392
-160.549
-158.834
-157.265
-155.861
-154.638
-153.609
-152.785
-152.171
-151.774
5751.82
5756.4
5755.26
5751.79
5755.12
5750.55
5768.9
5109.87
1385.84
-851.772
-3563.7
-1714.61
-253.654
-223.674
-222.493
-219.782
-217.649
-215.831
-214.265
-212.969
-211.765
-210.802
-209.922
-209.112
-208.396
-207.724
-207.116
-206.545
-205.984
-205.401
-204.765
-204.046
-203.219
-202.262
-201.165
-199.928
-198.555
-197.054
-195.438
-193.723
-191.922
-190.048
-188.115
-186.139
-184.133
-182.114
-180.095
-178.096
-176.135
-174.232
-172.407
-170.68
-169.072
-167.6
-166.282
-165.132
-164.162
-163.384
-162.801
-162.423
5743.97
5748.05
5744.06
5743.26
5739.09
5740.56
5778.53
3405.28
844.447
-1614.38
-4220.51
-748.177
-230.991
-235
-231.265
-228.68
-226.585
-224.793
-223.234
-221.949
-220.75
-219.784
-218.882
-218.04
-217.265
-216.549
-215.879
-215.24
-214.612
-213.967
-213.281
-212.528
-211.685
-210.734
-209.664
-208.473
-207.164
-205.739
-204.211
-202.59
-200.89
-199.121
-197.298
-195.435
-193.546
-191.646
-189.748
-187.87
-186.029
-184.244
-182.533
-180.915
-179.408
-178.027
-176.79
-175.709
-174.796
-174.061
-173.509
-173.148
5735.09
5741.3
5733.07
5733.63
5730.88
5740.01
5544.29
2353.52
168.654
-2455.93
-4618.78
-350.256
-238.738
-242.664
-239.802
-237.552
-235.604
-233.881
-232.351
-231.07
-229.872
-228.893
-227.968
-227.097
-226.285
-225.523
-224.804
-224.112
-223.43
-222.737
-222.011
-221.23
-220.375
-219.43
-218.384
-217.235
-215.981
-214.627
-213.178
-211.645
-210.039
-208.369
-206.65
-204.894
-203.115
-201.327
-199.543
-197.779
-196.051
-194.377
-192.774
-191.257
-189.844
-188.55
-187.389
-186.373
-185.515
-184.821
-184.298
-183.954
5724.43
5732.51
5725.51
5724.32
5727.96
5752.61
4258.24
1695.67
-710.417
-3361.38
-3689.55
-260.808
-254.167
-251.261
-248.569
-246.488
-244.709
-243.095
-241.616
-240.33
-239.131
-238.131
-237.185
-236.291
-235.447
-234.65
-233.891
-233.158
-232.434
-231.703
-230.947
-230.145
-229.281
-228.343
-227.321
-226.209
-225.007
-223.716
-222.341
-220.889
-219.371
-217.795
-216.173
-214.518
-212.844
-211.162
-209.485
-207.828
-206.207
-204.637
-203.134
-201.713
-200.389
-199.176
-198.087
-197.133
-196.325
-195.671
-195.176
-194.847
5713.39
5717.17
5718.12
5718.15
5727.03
5527.37
2986.53
903.176
-1711.28
-4306.07
-1686.81
-283.074
-260.554
-259.556
-257.314
-255.507
-253.915
-252.43
-251.014
-249.721
-248.523
-247.501
-246.536
-245.62
-244.752
-243.928
-243.139
-242.375
-241.62
-240.861
-240.081
-239.264
-238.397
-237.468
-236.468
-235.392
-234.237
-233.005
-231.698
-230.323
-228.886
-227.398
-225.869
-224.311
-222.735
-221.153
-219.578
-218.022
-216.5
-215.028
-213.619
-212.288
-211.047
-209.911
-208.889
-207.994
-207.234
-206.618
-206.149
-205.835
5700.98
5707.1
5709.88
5711.5
5720.09
4232.65
2274.45
-182.378
-2796.33
-5078.32
-562.425
-264.252
-271.334
-268.356
-266.295
-264.658
-263.229
-261.874
-260.531
-259.231
-258.041
-257.001
-256.02
-255.088
-254.202
-253.359
-252.549
-251.762
-250.985
-250.205
-249.409
-248.584
-247.717
-246.8
-245.823
-244.78
-243.67
-242.493
-241.25
-239.945
-238.586
-237.181
-235.74
-234.272
-232.789
-231.302
-229.822
-228.362
-226.934
-225.554
-224.234
-222.987
-221.825
-220.76
-219.802
-218.962
-218.247
-217.666
-217.222
-216.924
5688.79
5695.86
5700.06
5713.77
5184.86
3310.45
1215.62
-1455.39
-3949.46
-4340.54
-296.848
-283.552
-280.262
-277.364
-275.405
-273.914
-272.638
-271.413
-270.151
-268.857
-267.669
-266.626
-265.635
-264.693
-263.797
-262.941
-262.118
-261.316
-260.523
-259.73
-258.926
-258.098
-257.236
-256.332
-255.378
-254.368
-253.302
-252.177
-250.993
-249.755
-248.469
-247.143
-245.784
-244.402
-243.008
-241.61
-240.22
-238.849
-237.511
-236.217
-234.981
-233.813
-232.724
-231.727
-230.829
-230.04
-229.369
-228.821
-228.401
-228.117
5661.2
5676.7
5690.58
5472.03
3982.43
2318.53
-242.212
-2781.04
-5080.56
-1651.64
-305.37
-292.299
-289.062
-286.411
-284.59
-283.251
-282.128
-281.042
-279.869
-278.604
-277.431
-276.38
-275.384
-274.438
-273.539
-272.678
-271.847
-271.036
-270.235
-269.436
-268.629
-267.805
-266.952
-266.064
-265.134
-264.158
-263.133
-262.057
-260.93
-259.755
-258.539
-257.287
-256.007
-254.706
-253.395
-252.082
-250.777
-249.491
-248.236
-247.024
-245.866
-244.773
-243.754
-242.82
-241.978
-241.239
-240.608
-240.092
-239.694
-239.425
5608.39
5659.21
5535.17
4267.1
2980.32
678.345
-1859.96
-4113.18
-5507.33
-426.262
-293.803
-300.785
-297.62
-295.386
-293.79
-292.636
-291.679
-290.758
-289.723
-288.45
-287.31
-286.258
-285.265
-284.322
-283.425
-282.564
-281.733
-280.92
-280.119
-279.321
-278.518
-277.701
-276.86
-275.992
-275.088
-274.145
-273.161
-272.132
-271.058
-269.944
-268.794
-267.613
-266.407
-265.184
-263.952
-262.719
-261.494
-260.289
-259.113
-257.978
-256.895
-255.871
-254.918
-254.043
-253.255
-252.561
-251.968
-251.482
-251.106
-250.851
3069.54
5173.26
4725.82
3530.59
1395
-988.248
-3193.4
-5280.67
-3222.9
-330.648
-311.034
-309.384
-306.557
-304.59
-303.223
-302.217
-301.356
-300.532
-299.671
-298.408
-297.295
-296.255
-295.273
-294.342
-293.454
-292.601
-291.776
-290.969
-290.174
-289.383
-288.589
-287.783
-286.96
-286.113
-285.237
-284.328
-283.383
-282.4
-281.379
-280.322
-279.235
-278.122
-276.986
-275.837
-274.68
-273.523
-272.375
-271.245
-270.145
-269.083
-268.069
-267.112
-266.22
-265.402
-264.664
-264.014
-263.457
-262.998
-262.642
-262.401
118128
123225
123210
123194
123173
123131
123053
122921
122715
122415
121995
121425
120666
119661
118330
116537
114037
110316
103940
91514.1
107937
113024
113008
112992
112972
112935
112860
112729
112520
112208
111766
111158
110336
109235
107751
105717
102829
98501
91541.5
80219.5
97765.2
102842
102826
102813
102800
102771
102706
102582
102377
102066
101617
100994
100148
99007.6
97472.4
95385.3
92497.5
88418.4
82597.9
74590.5
87613.4
92680.7
92666.4
92660.3
92658.6
92642.6
92590.3
92479.1
92285.4
91983.4
91542.8
90926.6
90087
88959.5
87454.1
85443.9
82751.1
79143.2
74374.6
68364.3
77482
82539.7
82530.8
82537.5
82550.8
82549.7
82511.6
82414.6
82235.4
81948.8
81526
80932.1
80123.5
79043.6
77618.5
75751.9
73324.3
70204.5
66293
61622.4
67371.4
72420.3
72424
72448.6
72476.9
72488.1
72461.8
72377.4
72212.7
71943.9
71544
70981.5
70217.9
69205.5
67885.2
66186
64028.8
61340.4
58084.3
54314.1
57283.1
62327.6
62353.9
62395
62432.4
62450.2
62430.9
62355.2
62202.5
61950.3
61574.3
61046.5
60333.8
59396.8
58188.8
56657.5
54750.1
52425.1
49672.5
46541.4
47223.5
52274.6
52323.2
52372.5
52412.1
52430.8
52413.3
52341.3
52195.6
51955.8
51600.6
51105.9
50444.2
49583
48485.1
47111.3
45425.5
43403.5
41045.8
38392.1
37207.4
42268.5
42327.5
42378.3
42416.4
42432.5
42411.8
42336.9
42190.6
41955.8
41614.8
41148
40533.1
39743.6
38748.9
37518.1
36025.8
34257
32215.8
29934.7
27247.2
32305.3
32362.9
32412.1
32449.4
32462
32433.1
32347.1
32190
31950.2
31614.8
31167.8
30593.3
29870.2
28970.2
27867.1
26543
24987.2
23202.4
21219.5
17393.3
22372.3
22412.5
22468.6
22517.1
22529.4
22486.7
22378.9
22197
21940.5
21601.4
21163.4
20622.2
19963.3
19151.9
18161.8
16985.8
15614.2
14038.8
12291.8
8281.93
12354.9
12403.6
12531.1
12630.9
12648
12576.7
12429.4
12193.9
11903.7
11555.5
11102.7
10583.5
10005.8
9275.65
8361.45
7300.69
6124.59
4603.98
2839.14
-997.62
1897.54
2442.9
2815.62
3010.71
2973.4
2807.81
2624.7
2309.3
1996.22
1685.6
1181.55
664.21
141.593
-370.175
-1001.31
-1536.47
-1897.23
-2075.95
-1721.72
-430.972
-429.236
-425.14
-426.635
-428.231
-430.524
-432.787
-434.702
-437.688
-440.233
-441.687
-445.613
-448.977
-449.405
-452.587
-457.16
-459.942
-460.442
-458.51
-422.051
-447.931
-438.164
-434.61
-433.942
-433.928
-434.148
-434.389
-434.62
-434.929
-435.187
-435.38
-435.735
-436.019
-436.085
-436.354
-436.797
-437.106
-437.202
-436.759
-437.167
-452.775
-448.117
-445.874
-444.88
-444.498
-444.416
-444.459
-444.557
-444.702
-444.863
-445.044
-445.29
-445.552
-445.801
-446.122
-446.502
-446.833
-447.04
-447.048
-447.025
-461.721
-457.008
-455.976
-455.269
-454.86
-454.665
-454.601
-454.616
-454.684
-454.786
-454.917
-455.08
-455.263
-455.457
-455.676
-455.912
-456.13
-456.297
-456.409
-456.539
-471.217
-466.088
-465.643
-465.224
-464.918
-464.729
-464.634
-464.608
-464.631
-464.691
-464.78
-464.894
-465.025
-465.17
-465.329
-465.496
-465.657
-465.801
-465.927
-466.056
-480.89
-475.433
-475.236
-474.997
-474.796
-474.653
-474.566
-474.529
-474.532
-474.565
-474.623
-474.702
-474.796
-474.902
-475.018
-475.139
-475.262
-475.381
-475.495
-475.61
-490.649
-484.948
-484.849
-484.71
-484.587
-484.492
-484.429
-484.398
-484.394
-484.414
-484.452
-484.507
-484.574
-484.651
-484.736
-484.827
-484.92
-485.016
-485.111
-485.207
-500.476
-494.563
-494.495
-494.412
-494.341
-494.286
-494.249
-494.231
-494.229
-494.243
-494.27
-494.308
-494.356
-494.413
-494.476
-494.544
-494.616
-494.69
-494.766
-494.843
-510.403
-504.235
-504.162
-504.118
-504.086
-504.062
-504.047
-504.042
-504.046
-504.058
-504.078
-504.106
-504.141
-504.183
-504.231
-504.283
-504.338
-504.395
-504.454
-504.512
-520.521
-513.928
-513.845
-513.841
-513.838
-513.837
-513.837
-513.84
-513.848
-513.86
-513.877
-513.899
-513.927
-513.96
-513.997
-514.038
-514.081
-514.126
-514.17
-514.213
-531.818
-523.653
-523.541
-523.591
-523.614
-523.629
-523.64
-523.649
-523.66
-523.673
-523.689
-523.707
-523.73
-523.755
-523.783
-523.813
-523.844
-523.875
-523.904
-523.93
38500.7
41651.9
51749.7
61948.6
68832.5
73213.7
75504.6
76632.7
76860.1
76265.6
74778
72166.5
67889
60496
45364.3
60700.7
46867.8
48129.3
53752.4
58611.8
61898.3
63827.8
64714.2
64692.4
63786.5
61901.9
58800.8
54015.5
46674.6
35484.3
64066.4
53844
50209.4
50680.1
52325.5
53784.7
54648.2
54816.7
54244.8
52867
50565
47146.3
42327.9
35765
27289.6
61346.9
54326.2
49856.6
47830.6
47156.3
46943.5
46661.5
46030.3
44882.5
43089.7
40525
37049.7
32524.4
26868.8
20216.2
56359.9
50930.4
46665.3
43755.3
41847.6
40478.9
39263.7
37924.3
36262.7
34129.1
31400.6
27977.2
23796.9
18880.2
13404.5
50119.9
45654
41737.5
38570.2
36066.4
34006.3
32147.8
30276
28214.5
25822.7
22991.5
19644.9
15755.8
11375.6
6650.06
43069.2
39274.2
35718.7
32565
29824
27400.9
25153.6
22930.5
20592.2
18021.6
15128.6
11854.6
8170.47
4055.13
-435.318
35449
32169.3
28962.9
25953.7
23183.7
20621.7
18185.7
15770.2
13271
10600.3
7672.06
4373.81
648.592
-2566.08
-1965.56
27405.6
24550.3
21676.5
18877.3
16201
13658.4
11195.3
8724.05
6133.64
3315.56
302.976
-1994.37
-1308.76
-475.689
-384.247
19034
16553.5
13999.4
11446.7
8931.4
6513.57
4085.31
1521.59
-955.744
-2188.59
-913.613
-471.098
-391.013
-392.628
-398.001
10411.6
8285.84
5986.37
3624.57
1048.61
-980.804
-2410.44
-1826.51
-739.812
-449.819
-397.831
-400.194
-405.129
-405.977
-406.071
1198.84
-373.409
-2126.52
-2857.04
-1898.39
-915.288
-483.572
-419.019
-403.083
-412.544
-414.052
-414.068
-413.944
-414.168
-414.459
-1308.55
-944.059
-623.448
-463.986
-413.089
-414.564
-417.242
-420.753
-422.056
-422.669
-422.56
-422.584
-422.765
-422.987
-423.194
-417.243
-420.207
-419.69
-427.586
-430.05
-431.628
-431.155
-430.95
-430.882
-431.163
-431.377
-431.557
-431.743
-431.929
-432.096
-439.142
-439.529
-438.852
-438.977
-439.053
-439.518
-439.662
-439.825
-439.988