/*--------------------------------*- C++ -*----------------------------------*\
| =========                 |                                                 |
| \\      /  F ield         | OpenFOAM: The Open Source CFD Toolbox           |
|  \\    /   O peration     | Version:  v1912                                 |
|   \\  /    A nd           | Website:  www.openfoam.com                      |
|    \\/     M anipulation  |                                                 |
\*---------------------------------------------------------------------------*/
FoamFile
{
    version     2.0;
    format      ascii;
    class       volScalarField;
    location    "10";
    object      p_rgh;
}
// * * * * * * * * * * * * * * * * * * * * * * * * * * * * * * * * * * * * * //

dimensions      [1 -1 -2 0 0 0 0];


internalField   nonuniform List<scalar> 
20320
(
428966
429039
429063
429112
429175
429249
429338
429436
429542
429652
429765
429886
430025
430190
430376
430562
430708
430771
430758
430734
428875
428963
428997
429047
429113
429192
429284
429390
429504
429623
429741
429864
430005
430167
430341
430506
430633
430698
430714
430767
428684
428807
428843
428897
428966
429049
429149
429260
429374
429487
429601
429720
429849
429987
430130
430265
430378
430465
430551
430696
428416
428577
428614
428669
428741
428828
428931
429039
429147
429251
429357
429466
429581
429700
429820
429937
430045
430150
430272
430452
428078
428273
428311
428367
428440
428530
428630
428732
428830
428927
429024
429123
429225
429329
429435
429540
429647
429761
429900
430093
427677
427903
427941
427997
428070
428158
428253
428347
428437
428525
428613
428703
428794
428887
428983
429082
429187
429306
429455
429656
427222
427473
427511
427566
427637
427722
427810
427895
427977
428057
428137
428217
428299
428383
428471
428565
428669
428792
428949
429157
426720
426993
427029
427082
427150
427230
427311
427387
427461
427532
427602
427673
427745
427821
427902
427992
428096
428222
428385
428603
426181
426471
426504
426554
426618
426692
426765
426832
426896
426958
427018
427078
427140
427206
427280
427364
427467
427596
427767
427996
425615
425916
425946
425992
426052
426119
426182
426239
426292
426342
426389
426436
426485
426539
426603
426681
426781
426912
427091
427333
425030
425338
425365
425405
425461
425518
425570
425617
425656
425691
425722
425752
425784
425821
425871
425938
426032
426164
426351
426610
424436
424745
424768
424804
424852
424900
424940
424972
424995
425011
425021
425028
425036
425050
425078
425128
425211
425341
425537
425816
423840
424147
424166
424197
424237
424272
424299
424314
424317
424309
424291
424268
424243
424223
424219
424241
424304
424426
424630
424936
423252
423552
423566
423591
423621
423645
423656
423651
423630
423593
423540
423475
423405
423337
423285
423262
423290
423394
423603
423942
422678
422968
422977
422995
423015
423025
423019
422993
422944
422871
422774
422657
422526
422390
422265
422172
422139
422203
422410
422789
422124
422401
422405
422416
422426
422422
422399
422349
422269
422155
422006
421824
421614
421384
421154
420949
420810
420793
420972
421397
421594
421857
421856
421860
421859
421843
421802
421729
421616
421458
421251
420992
420683
420330
419950
419572
419250
419066
419150
419607
421094
421340
421334
421331
421322
421295
421239
421143
420999
420797
420527
420183
419759
419253
418673
418040
417409
416889
416693
417056
420625
420853
420844
420835
420819
420783
420715
420601
420429
420185
419856
419425
418878
418198
417371
416390
415274
414104
413134
412813
420189
420399
420386
420373
420352
420312
420236
420110
419916
419639
419258
418749
418084
417228
416134
414736
412950
410667
407777
404437
103397
37233.2
16707.5
13032.9
12575.4
12677
12240.3
11065
10254.8
19433.8
109825
305600
375800
313064
200968
100728
44818.2
23171.9
15424.6
13570.7
13413.3
13634.2
13732.8
13546.8
13114.8
12883.7
12794.1
12732.8
12704.5
12491.8
11754.1
10875.9
10581.6
10309.1
10181.7
10191.8
10274.8
10301.5
10364.8
9072.35
8620.63
9487.64
10857.1
11707.5
12426.3
11034.4
10470.6
10215.5
8849.29
6682.62
4141.5
1150.03
304.918
1409.79
1668.86
1019.99
157.682
156.627
141.435
134.74
66172.7
28010.4
11946.8
10025
9536.94
10014.2
10990.7
10811.7
9476.82
5682.93
24105.8
172510
283102
260889
173960
88586.1
41136.4
22899.2
15974.7
14295
14087.9
14182.6
14119.6
13875
13422.5
13133
12989.1
12821.4
12578.1
12269.2
11870.6
10947.5
10665.9
10487.4
10362.9
10290.7
10229.2
10199.6
10362.6
10639.7
10535.4
11617.2
11715.1
11861.2
12557.6
12842.2
12066.5
10610.1
8544.84
4305.44
122.817
122.28
144.862
133.565
119.454
104.876
141.18
147.244
139.193
133.699
39738.8
6691.23
6382.93
6264.98
6224.6
6221.41
6252.18
6320.61
6473.94
6762.91
9692.42
110476
214789
212067
144055
68348.2
28213.2
17020.9
13370.7
13135.4
13789.6
14110.8
14218
14154.8
13459.8
13183
13103.9
12861.4
12632.1
12003.9
11009.6
1472.08
1396.87
768.625
127
-2.92081
-5.02154
-4.69152
161.744
577.095
1147.36
5076.88
3507.46
7622.99
13343.2
13179.8
5312.06
264.226
79.6333
98.3684
119.4
120.286
129.355
131.322
117.396
112.732
133.733
138.72
135.209
131.436
33453.4
6336.4
6340.6
6276.48
6238.37
6228.69
6250.01
6310.81
6437.59
6667.66
8536.16
76796.7
172961
173106
116859
40825.3
10013.5
7655.26
3663.3
51.2424
122.664
186.588
107.941
3.26378
-16.6181
-19.0822
-24.4971
-25.8504
-28.2987
-30.1379
-29.2009
-24.982
-20.7787
-16.1508
-9.32917
-4.43046
-4.33924
-6.05288
-8.20793
-5.27384
1.08832
-0.454783
3.11351
11.0969
9.37229
2.60471
42.8007
62.7898
79.1164
96.2639
113.094
116.515
122.045
123.696
117.441
116.736
127.283
131.583
130.55
128.289
35063
6313.71
6326.02
6279.82
6243.32
6227.37
6238.27
6282.26
6368.14
6521.82
6720.51
33926.7
144982
142829
97679.7
7917.79
111.114
143.646
89.3852
45.778
24.9475
10.7252
0.977279
-6.68381
-13.1226
-18.4649
-23.2507
-26.3398
-28.7429
-29.7334
-28.7605
-24.673
-20.2209
-15.4397
-9.73131
-5.15609
-3.75215
-4.32457
-5.48524
-2.53942
2.36356
3.51106
5.07923
8.90641
10.4399
17.1647
37.9256
57.9721
77.9534
93.2171
105.778
111.25
115.444
117.22
115.252
116.187
122.068
125.574
125.755
124.594
39805.6
6447.04
6307.52
6273.78
6241
6221.41
6223.52
6253.05
6311.37
6397.03
6281.21
27318.6
119329
120193
73059.2
492.914
191.961
121.669
75.9647
43.6759
24.3682
11.3097
2.23222
-5.22536
-12.1049
-17.8798
-22.9487
-26.4849
-28.6194
-29.3976
-28.2766
-24.7428
-20.2021
-15.2513
-9.89112
-5.35144
-3.12991
-2.84112
-3.27831
-1.46378
2.24301
4.60341
6.87462
11.4079
13.7712
17.8335
34.3152
55.4412
73.9769
87.7298
98.4716
105.026
109.386
111.698
112.027
113.664
117.502
120.304
121.039
120.6
45292.1
6729.23
6291.23
6265.61
6235.42
6213.54
6208.79
6226.6
6266.41
6319.69
6226.46
21849.3
96336.9
101819
27863.7
156.589
168.269
108.192
68.2249
40.9843
23.737
12.2082
3.64185
-3.79099
-10.8226
-17.1925
-22.7198
-26.7354
-29.0749
-29.7568
-28.5035
-25.1254
-20.4878
-15.3424
-10.0168
-5.39367
-2.55619
-1.49166
-1.29693
0.0518116
3.17351
5.92807
8.59894
12.2253
16.1238
22.1954
35.7914
53.5082
69.4788
82.2069
92.1637
99.0738
103.763
106.654
108.255
110.279
113.186
115.491
116.462
116.467
50994.7
7994.16
6278.64
6259.83
6230.73
6207.13
6197.06
6205.56
6231.55
6272.7
6218.16
23218.8
80390.2
85813.1
10990.1
137.647
145.448
90.6858
57.1828
35.0856
21.2294
11.9648
4.62433
-2.36058
-9.50128
-16.4132
-22.5486
-27.1738
-29.9174
-30.6843
-29.35
-25.9544
-21.1782
-15.7765
-10.286
-5.46275
-2.11321
-0.371323
0.417019
1.71527
4.11326
7.07646
10.3696
14.3815
19.025
25.8233
37.3806
51.8383
65.6305
77.2824
86.628
93.569
98.5096
101.877
104.219
106.49
108.965
110.961
112.023
112.291
57627.3
7004.81
6278.27
6260.26
6229.94
6204.33
6189.86
6191.59
6208.49
6244.52
6215.57
24407.1
70798.9
74163.4
5396.76
109.753
111.735
71.6119
44.825
27.5954
17.411
10.8694
5.2514
-0.972576
-8.08362
-15.5409
-22.3873
-27.7502
-31.0465
-32.0382
-30.6988
-27.2349
-22.2721
-16.5773
-10.8153
-5.70109
-1.86558
0.505333
1.81584
3.21855
5.49772
8.54112
12.1635
16.4516
21.498
28.3891
38.4404
50.4877
62.4219
72.9778
81.7132
88.5108
93.5904
97.2981
100.083
102.52
104.799
106.615
107.708
108.126
64261.5
12295.8
6288.87
6269.15
6234.2
6205.97
6187.92
6184.16
6194.26
6225.5
6216.3
33537.1
66360.7
67424.5
1931.57
79.9435
79.4291
53.4504
33.0322
19.9983
13.1127
9.30908
5.64997
0.417221
-6.60274
-14.5711
-22.2235
-28.4112
-32.3255
-33.6374
-32.368
-28.8346
-23.6811
-17.6955
-11.6257
-6.14521
-1.84535
1.02411
2.90333
4.59359
6.89952
10.0111
13.8003
18.1559
23.3135
30.0998
38.9792
49.2717
59.6773
69.1927
77.3102
83.8764
88.9953
92.9066
95.9502
98.4958
100.688
102.403
103.502
104.004
72258.1
14266.3
6323.02
6326.08
6240.81
6210.48
6190.33
6182.47
6188.44
6214.53
6228.92
44203.9
65651
64955.8
308.75
49.6126
53.0648
37.769
23.0441
13.467
9.16188
7.71615
5.97356
1.80239
-5.0882
-13.5735
-22.0553
-29.0463
-33.5702
-35.2379
-34.0941
-30.5314
-25.2313
-19.0059
-12.6029
-6.80951
-2.15016
1.26977
3.64964
5.69796
8.15997
11.3365
15.0945
19.4377
24.6622
31.1546
39.1094
48.0922
57.2548
65.8264
73.3481
79.6317
84.6944
88.6954
91.8787
94.4898
96.6432
98.3012
99.3979
99.9452
53328.2
9041.04
8796.63
6314.12
6248.21
6215.47
6195.78
6185.03
6186.91
6201.53
6272.93
56200.9
67518.6
65933.9
55.1495
33.8621
34.5557
25.4038
15.3156
8.54412
6.07993
6.38869
6.2907
3.09508
-3.68056
-12.6624
-21.8353
-29.4837
-34.5312
-36.5332
-35.5544
-32.0429
-26.6881
-20.256
-13.7155
-7.67225
-2.59289
1.26113
4.09154
6.51435
9.1869
12.3651
16.0898
20.4514
25.593
31.7385
38.9447
46.9062
55.0502
62.8044
69.7649
75.7268
80.6627
84.6684
87.9081
90.5474
92.6777
94.3014
95.393
95.9645
84054
75584.8
6747.44
6371.84
6255.44
6246.46
6200.8
6190.65
6185.98
6193.5
6195.97
66703
71201.2
69093.5
27.9603
24.3968
22.3309
16.328
9.6416
5.1203
3.92705
5.33411
6.45811
3.99432
-2.6909
-11.9182
-21.4515
-29.4852
-34.8863
-37.1822
-36.4318
-33.0623
-27.7715
-21.3976
-14.7215
-8.45158
-3.1029
1.08909
4.30055
7.06092
9.9044
13.1459
16.8783
21.2037
26.1886
31.9772
38.5562
45.7028
53.018
60.0605
66.4893
72.1126
76.8755
80.8232
84.0598
86.6968
88.8053
90.4038
91.4888
92.0727
76673
23486.8
8130.52
17278.7
6282.04
6225.92
6205.51
6194.45
6189.63
6191.5
6146.36
75798
75960.4
70693.9
15.2771
17.5045
14.1566
9.87432
5.5233
2.7318
2.41263
4.27847
5.94645
3.8483
-2.44588
-11.3102
-20.6714
-28.7288
-34.3013
-36.8506
-36.3753
-33.2695
-28.2023
-21.9593
-15.3275
-9.00625
-3.52312
0.877338
4.347
7.36295
10.4108
13.7357
17.4643
21.699
26.512
31.9558
38.0069
44.4923
51.1107
57.5283
63.467
68.7518
73.3112
77.1564
80.3473
82.9565
85.0371
86.612
87.6884
88.2795
94444.8
85148.5
85292.8
8965.41
6973.18
6193.96
6198.17
6197.41
6202.53
6197.02
6134.96
82871.4
81299.3
69597.5
8.49158
12.1229
8.31973
5.22663
2.4704
0.938611
1.24898
3.10483
4.26782
2.41189
-2.75243
-10.515
-19.1743
-26.9279
-32.5091
-35.2755
-35.1325
-32.4046
-27.6996
-21.7553
-15.3335
-9.13343
-3.71061
0.694191
4.30989
7.55665
10.7618
14.1519
17.8653
21.9962
26.6189
31.7447
37.3416
43.2672
49.294
55.1648
60.655
65.6093
69.9491
73.6622
76.7768
79.3373
81.381
82.9297
83.9952
84.5906
97499.6
93892.4
31000.4
6105.09
6121.73
6167.63
6188.49
6198.66
6213.17
6212.38
6121.34
88812.1
87043.8
62661.4
-7.869
6.60323
3.52369
1.69528
0.116853
-0.514661
0.249343
1.94374
2.45475
0.942993
-2.96165
-9.26515
-16.8317
-23.9888
-29.4109
-32.3335
-32.5506
-30.289
-26.0739
-20.5856
-14.5706
-8.75833
-3.67562
0.612587
4.31143
7.68944
10.9975
14.4261
18.1057
22.1265
26.5565
31.3887
36.5845
42.0287
47.5465
52.9374
58.0196
62.6575
66.7715
70.3338
73.3504
75.845
77.8423
79.3605
80.412
81.0095
7452.07
38890.5
6105.13
6098.89
6125.9
6150.3
6193.93
6184.59
6207.72
6203.39
11841.5
95254.5
93156.6
55481.9
-36.1038
-1.49066
-0.967003
-1.20377
-1.80017
-1.77547
-0.7414
0.773821
1.03387
-0.156844
-3.06345
-7.83744
-13.9492
-20.1614
-25.1807
-28.1254
-28.6694
-26.9215
-23.3163
-18.4934
-13.1994
-8.06794
-3.42012
0.689132
4.37
7.79771
11.1517
14.5845
18.2135
22.1212
26.3594
30.916
35.754
40.7794
45.8547
50.8226
55.5349
59.8736
63.762
67.1622
70.0658
72.4814
74.4239
75.9066
76.9407
77.5378
7082.06
6627.96
6745.33
6178.7
6111.63
6175.59
6218.51
6174.09
6187.96
6182.72
37123
102012
99559.4
43755.7
-28.4678
-9.86839
-4.90509
-3.70136
-3.44547
-2.92002
-1.71728
-0.368409
-0.166353
-1.03639
-3.18476
-6.71191
-11.2764
-16.1787
-20.4345
-23.1799
-23.9524
-22.75
-19.9168
-16.0041
-11.6011
-7.17213
-2.97664
0.901532
4.49411
7.90159
11.2489
14.6556
18.2177
22.0025
26.0465
30.3498
34.8665
39.5233
44.2116
48.8046
53.1812
57.239
60.9054
64.1382
66.919
69.2463
71.1268
72.5691
73.5821
74.176
18434
32478.1
6076.66
6094.4
6449.78
6402.84
6139.31
6154.72
6172.32
6196.54
69272.4
108584
106118
28934.8
-8.29229
-12.117
-7.52509
-5.74013
-4.88161
-3.981
-2.65909
-1.43394
-1.21217
-1.80168
-3.35209
-5.93669
-9.31034
-12.9911
-16.2794
-18.5759
-19.4233
-18.7107
-16.6354
-13.5773
-9.96785
-6.16395
-2.39546
1.22396
4.67622
8.01114
11.3116
14.6632
18.1379
21.7898
25.6477
29.7099
33.937
38.2671
42.6123
46.8707
50.9417
54.7365
58.1877
61.2517
63.9046
66.1372
67.9502
69.3477
70.3361
70.9236
49268.3
11964.4
6009.98
6637.13
6419.69
6102.1
6122.68
6172.21
6152.9
6250.81
100496
115217
112739
16195.5
0.911931
-11.3627
-8.92834
-7.27664
-6.11386
-4.96362
-3.56104
-2.41561
-2.13712
-2.48375
-3.56876
-5.43791
-7.91388
-10.6452
-13.1533
-14.9672
-15.7336
-15.3111
-13.778
-11.3676
-8.38276
-5.10178
-1.72672
1.62383
4.90565
8.13318
11.3525
14.6198
17.9889
21.5012
25.1772
29.0138
32.9777
37.0147
41.0538
45.0115
48.8032
52.352
55.5967
58.4941
61.017
63.1514
64.893
66.2419
67.2023
67.7802
12103.8
5977.15
6647.65
6427.85
6058.96
6083.02
6104.11
6148.61
6126.42
6098.43
121227
122206
119600
6358.61
2.56394
-11.1743
-9.81336
-8.435
-7.15748
-5.85757
-4.41383
-3.31479
-2.9622
-3.10035
-3.81253
-5.12643
-6.91322
-8.91671
-10.7911
-12.1814
-12.8054
-12.5196
-11.3344
-9.38603
-6.88348
-4.03737
-1.01422
2.07414
5.17065
8.26398
11.374
14.5354
17.7851
21.1526
24.6516
28.2747
31.9983
35.7701
39.5332
43.2182
46.7539
50.0735
53.1217
55.8568
58.2499
60.2843
61.9517
63.2493
64.1788
64.7442
5991.91
6090.7
6005.81
6016.49
6042.69
6064.36
6083.5
6126.34
6116.67
6034.72
131422
129215
126815
1064.84
-13.8699
-12.7866
-10.8167
-9.3876
-8.03782
-6.65728
-5.20706
-4.13299
-3.70006
-3.66105
-4.07306
-4.94975
-6.19638
-7.62775
-8.98898
-10.0095
-10.4647
-10.2206
-9.25104
-7.63027
-5.49805
-3.0078
-0.292619
2.54803
5.45229
8.39455
11.3769
14.4169
17.5373
20.7569
24.0832
27.5073
31.0057
34.536
38.0484
41.4851
44.7857
47.8919
50.754
53.3324
55.598
57.5321
59.1239
60.3681
61.2644
61.8147
5992.4
5983.37
6053.11
6046.72
6025.96
6046.02
6064.65
6084.45
6108.04
6682.26
138300
136209
134420
-36.7178
-22.2731
-14.5157
-11.8687
-10.2187
-8.7839
-7.36538
-5.93292
-4.87282
-4.35963
-4.16967
-4.33921
-4.87091
-5.69249
-6.66772
-7.60776
-8.30734
-8.58767
-8.32876
-7.48654
-6.09535
-4.24459
-2.04229
0.407471
3.01925
5.73329
8.51725
11.3609
14.2694
17.2538
20.3241
23.4819
26.717
30.0065
33.3149
36.598
39.8076
42.8915
45.799
48.4853
50.9134
53.0548
54.8896
56.4054
57.5952
58.4566
58.9897
6057.19
6071.94
6040.44
5996.8
6037.19
6043.4
6090.7
6059.65
6075.05
68944.3
145704
143297
139069
-24.2919
-16.1273
-14.7635
-12.572
-10.8931
-9.41266
-7.98842
-6.58801
-5.53713
-4.94811
-4.62931
-4.60103
-4.85816
-5.34439
-5.95662
-6.55273
-6.97715
-7.0886
-6.7824
-6.00723
-4.77272
-3.1329
-1.16137
1.06232
3.46718
5.99956
8.6246
11.3248
14.0959
16.941
19.8619
22.856
25.9112
29.0059
32.109
35.1814
38.182
41.0658
43.7883
46.309
48.5936
50.6148
52.3524
53.7929
54.9276
55.7531
56.2674
5967.88
5993.42
5972.76
5990.88
6018.8
6022.81
6075
6042.21
6112.31
125513
152978
150476
113623
-32.6945
-13.1687
-14.6832
-12.9974
-11.4125
-9.93657
-8.53448
-7.17336
-6.12952
-5.47274
-5.04444
-4.85306
-4.88875
-5.10758
-5.42929
-5.7457
-5.9377
-5.89358
-5.52375
-4.77609
-3.64625
-2.16348
-0.375931
1.65698
3.87779
6.2405
8.71052
11.2665
13.8984
16.6029
19.3762
22.2114
25.0956
28.0079
30.9199
33.7978
36.6055
39.3038
41.8537
44.2187
46.3669
48.2726
49.9157
51.2819
52.3619
53.1508
53.6453
5962.29
5963.32
5965.74
6243.57
6000.66
6003.44
6051.48
6021.28
5996.25
160803
160494
157813
78822.6
-44.1325
-17.5432
-15.4356
-13.4523
-11.8407
-10.3786
-9.01457
-7.69192
-6.65536
-5.94081
-5.4196
-5.09297
-4.94849
-4.95163
-5.03889
-5.12732
-5.12434
-4.94125
-4.50225
-3.75826
-2.69695
-1.33075
0.31038
2.1827
4.24145
6.44781
8.76951
11.1839
13.6778
16.2429
18.8713
21.5531
24.2745
27.0151
29.749
32.4466
35.0756
37.6017
39.9906
42.2091
44.228
46.023
47.5747
48.8686
49.8946
50.6471
51.1213
5959
5960.17
5962.4
5991.63
6047.68
5993.1
6018.32
6015.35
5907.18
170168
168008
165279
35464.3
-15.9414
-20.1674
-16.2425
-13.9795
-12.2409
-10.7655
-9.43251
-8.14587
-7.12051
-6.35848
-5.75905
-5.32046
-5.0284
-4.85576
-4.75271
-4.65494
-4.4891
-4.18429
-3.67705
-2.92318
-1.90583
-0.626162
0.898015
2.63547
4.55218
6.61598
8.79782
11.0756
13.4344
15.8632
18.3507
20.8849
23.4512
26.03
28.5974
31.1271
33.5901
35.956
38.1943
40.2753
42.1718
43.8613
45.3252
46.5489
47.5221
48.2387
48.6927
5957.64
5958.44
5959.35
6346.13
5994.13
6017.94
5989.06
5993.5
82732.8
177861
175559
172959
8213.53
-7.98033
-19.4147
-16.6062
-14.4243
-12.6229
-11.1175
-9.79682
-8.53969
-7.53149
-6.73162
-6.06701
-5.53555
-5.12176
-4.80513
-4.54718
-4.29711
-3.99576
-3.58594
-3.0151
-2.24449
-1.25454
-0.0394214
1.39095
3.0146
4.80683
6.74131
8.79262
10.9401
13.1687
15.4653
17.8165
20.2091
22.6279
25.054
27.4657
29.8387
32.147
34.3636
36.4611
38.4127
40.1938
41.7829
43.1625
44.3186
45.2406
45.9219
46.3561
5957.54
5966.31
5958.58
6358.07
5963
6002.34
5983.8
6023.59
165679
185641
183220
181366
271.382
-25.2165
-19.9746
-17.0102
-14.7888
-12.9704
-11.4339
-10.1178
-8.88444
-7.89611
-7.06592
-6.34655
-5.73765
-5.22312
-4.78885
-4.40481
-4.02979
-3.61617
-3.11692
-2.4891
-1.69914
-0.725797
0.440341
1.79441
3.32162
5.00449
6.82217
8.75228
10.7767
12.8809
15.0504
17.2708
19.528
21.8066
24.0887
26.3541
28.5808
30.7447
32.8218
34.7876
36.6178
38.2897
39.7836
41.0828
42.1738
43.0462
43.6934
44.1084
5968.25
5966.59
5959.41
6094.67
5960.73
6102.79
5969.39
5899
195768
193542
190916
190537
-30.0679
-23.0369
-20.1537
-17.2991
-15.0975
-13.2745
-11.7175
-10.4089
-9.19371
-8.22204
-7.36561
-6.59839
-5.92656
-5.32869
-4.79865
-4.31175
-3.83429
-3.32779
-2.75358
-2.07624
-1.2669
-0.303692
0.824211
2.11506
3.55967
5.14621
6.85805
8.67646
10.5855
12.5713
14.6195
16.7149
18.8428
20.9883
23.1347
25.2631
27.3526
29.3817
31.3284
33.1707
34.8866
36.4557
37.8594
39.082
40.1108
40.9354
41.5496
41.9459
5958.93
5960.13
5957.55
6025.29
5957.41
6107.8
5971.19
81836.8
203674
201437
198725
122714
-51.3657
-21.386
-20.2052
-17.4937
-15.3612
-13.5432
-11.977
-10.6804
-9.47678
-8.51355
-7.63333
-6.82337
-6.10739
-5.43526
-4.82731
-4.25658
-3.69536
-3.11277
-2.47658
-1.75762
-0.930291
0.0261124
1.12296
2.36033
3.73321
5.23408
6.85008
8.56546
10.3665
12.2406
14.1734
16.1497
18.1548
20.1744
22.1927
24.1921
26.1533
28.0563
29.8811
31.6077
33.2163
34.6882
36.0065
37.1565
38.1258
38.9046
39.4868
39.8652
5972.25
5965.44
6294.51
5954.27
6207.64
5959.1
5989.54
194125
211855
209396
206790
47341.5
-19.9804
-23.9895
-20.2543
-17.6687
-15.5738
-13.7823
-12.2236
-10.9379
-9.73956
-8.77337
-7.8707
-7.02887
-6.25462
-5.53771
-4.86792
-4.22962
-3.60087
-2.95664
-2.27039
-1.51716
-0.674273
0.276806
1.34671
2.53757
3.84732
5.27152
6.80016
8.42052
10.1209
11.8897
13.7131
15.5762
17.4649
19.3653
21.263
23.1412
24.9818
26.7666
28.4773
30.0955
31.6032
32.9837
34.2213
35.3021
36.2147
36.9498
37.5015
37.8627
5962.89
5961.19
6242.82
5953.52
6120.28
5959.9
5764.18
222242
220058
217433
215270
3637.88
-18.8488
-22.7754
-19.9135
-17.6627
-15.7146
-13.9919
-12.4625
-11.1811
-9.98317
-9.00362
-8.07893
-7.20791
-6.39596
-5.63437
-4.91503
-4.22321
-3.54097
-2.84791
-2.122
-1.34125
-0.485928
0.459402
1.50484
2.65427
3.90759
5.2622
6.71093
8.24352
9.85
11.5196
13.2395
14.9954
16.7739
18.562
20.3458
22.11
23.8375
25.5116
27.1152
28.6316
30.0447
31.339
32.5002
33.5155
34.3743
35.0678
35.5905
35.9353
5957.94
5970.82
5995.5
6036.79
5958.05
5981.53
187611
230622
228216
225565
225237
-31.8814
-25.2404
-22.335
-19.6428
-17.5619
-15.7822
-14.1691
-12.6891
-11.4035
-10.2042
-9.20493
-8.25884
-7.36484
-6.52037
-5.72317
-4.96453
-4.23116
-3.50752
-2.77681
-2.02019
-1.21816
-0.354434
0.583645
1.60591
2.71766
3.91966
5.21062
6.58572
8.03699
9.55558
11.1319
12.7538
14.4081
16.0824
17.7643
19.4411
21.098
22.7192
24.2893
25.7925
27.2134
28.5375
29.7506
30.8398
31.7932
32.6011
33.2552
33.7503
34.0794
5956.18
6534.23
5956.88
5969.32
5965.16
5765.5
241113
239029
236415
233820
129004
-44.9481
-22.4276
-21.4298
-19.1873
-17.3804
-15.7885
-14.3037
-12.8873
-11.5943
-10.3964
-9.37513
-8.41008
-7.49413
-6.62598
-5.80149
-5.013
-4.24835
-3.49378
-2.73479
-1.95502
-1.13808
-0.270477
0.65834
1.65802
2.7347
3.88922
5.12119
6.42814
7.80366
9.23991
10.728
12.2573
13.8157
15.3914
16.9732
18.5488
20.1046
21.6261
23.0984
24.5072
25.8385
27.0789
28.2158
29.2371
30.1322
30.8919
31.5088
31.9776
32.2914
6043.13
6024.05
5963.95
5959.05
5967.58
218346
249766
247309
244695
242413
27737.4
-16.7611
-23.8424
-20.8641
-18.8032
-17.1666
-15.738
-14.3821
-13.0391
-11.7397
-10.5494
-9.50987
-8.52885
-7.59649
-6.71097
-5.86719
-5.05741
-4.27035
-3.49342
-2.71382
-1.91801
-1.09255
-0.22583
0.691529
1.66887
2.71178
3.8215
4.99844
6.24184
7.54652
8.9053
10.3102
11.7519
13.2195
14.7021
16.1892
17.6694
19.13
20.5574
21.9377
23.2578
24.5048
25.6667
26.7319
27.6895
28.5297
29.244
29.8254
30.2693
30.568
5968.92
6064.93
5957.24
5970.8
81123.7
260334
258239
255568
253074
252683
-39.8242
-26.5291
-23.2387
-20.3411
-18.3812
-16.8904
-15.6143
-14.3894
-13.1277
-11.8339
-10.6452
-9.60288
-8.61179
-7.66952
-6.77367
-5.91792
-5.09434
-4.2922
-3.50001
-2.70687
-1.90222
-1.07439
-0.212867
0.690939
1.64516
2.65491
3.72165
4.84671
6.03047
7.26849
8.55411
9.88044
11.2393
12.6209
14.0154
15.4131
16.8032
18.174
19.5127
20.8064
22.0429
23.2107
24.2989
25.2968
26.1945
26.983
27.6544
28.2023
28.6223
28.9061
5952.69
6060.6
5957.31
16381.7
270710
269046
266485
263946
261647
132951
-38.643
-25.5713
-22.3342
-19.6831
-17.8621
-16.5236
-15.4009
-14.3143
-13.1416
-11.876
-10.7036
-9.65212
-8.65659
-7.7111
-6.8114
-5.95011
-5.1192
-4.30854
-3.50796
-2.70866
-1.90195
-1.07721
-0.224582
0.663183
1.59291
2.56934
3.59438
4.67027
5.79765
6.97245
8.18867
9.44052
10.7209
12.0212
13.3324
14.6453
15.9503
17.2363
18.4911
19.703
20.8609
21.9543
22.9731
23.9077
24.749
25.4888
26.1197
26.6358
27.033
27.3023
5970.65
5946.8
13287.1
280872
279585
277284
274745
272492
271098
10781.8
-17.1982
-24.1801
-21.0147
-18.781
-17.1845
-16.0313
-15.0733
-14.1533
-13.1175
-11.8445
-10.7046
-9.65277
-8.65953
-7.71732
-6.81992
-5.95924
-5.12748
-4.31522
-3.51363
-2.71546
-1.91265
-1.09535
-0.255205
0.613576
1.51711
2.45991
3.44438
4.47323
5.54678
6.6612
7.81133
8.99236
10.1984
11.4215
12.6536
13.8864
15.1108
16.3164
17.4919
18.6267
19.7105
20.7338
21.6873
22.5622
23.3504
24.0442
24.6369
25.1231
25.4989
25.7542
68645.9
58406.8
291385
290190
288054
285671
283466
281379
242150
-43.9889
-24.3742
-22.7248
-19.8972
-17.9308
-16.5631
-15.5579
-14.6961
-13.8722
-13.0111
-11.7486
-10.6352
-9.59562
-8.61372
-7.68256
-6.79458
-5.94174
-5.11645
-4.30998
-3.51454
-2.72364
-1.92967
-1.12392
-0.300114
0.546657
1.42227
2.33117
3.27599
4.25929
5.28092
6.33723
7.42407
8.53777
9.67308
10.8229
11.9799
13.1367
14.2846
15.414
16.5146
17.5763
18.5902
19.5472
20.4391
21.2578
21.9957
22.646
23.2028
23.6611
24.0176
24.2583
419786
419978
419963
419947
419925
419884
419806
419674
419468
419167
418747
418178
417418
416414
415082
413289
410790
407069
400692
388267
419404
419587
419570
419554
419535
419497
419423
419292
419082
418770
418328
417720
416899
415797
414314
412279
409392
405063
398104
386782
419043
419215
419198
419185
419173
419144
419078
418954
418750
418438
417990
417367
416520
415380
413845
411758
408870
404791
398970
390963
418701
418863
418849
418843
418841
418825
418773
418662
418468
418166
417725
417109
416270
415142
413637
411626
408934
405326
400557
394547
418380
418532
418523
418530
418543
418542
418504
418407
418228
417941
417518
416925
416116
415036
413611
411744
409317
406197
402286
397615
418079
418223
418227
418251
418279
418291
418264
418180
418015
417746
417346
416784
416020
415008
413688
411988
409831
407143
403887
400117
417801
417940
417966
418008
418045
418063
418043
417968
417815
417563
417187
416659
415946
415009
413801
412270
410363
408038
405285
402154
417551
417697
417746
417795
417835
417853
417836
417764
417618
417378
417023
416528
415867
415005
413907
412533
410848
408826
406468
403815
417345
417501
417560
417611
417649
417665
417644
417569
417423
417188
416847
416380
415765
414976
413981
412750
411258
409489
407448
405167
417195
417348
417405
417455
417492
417504
417476
417390
417232
416993
416657
416210
415636
414912
414013
412910
411585
410030
408245
406262
417151
417225
417265
417321
417370
417382
417339
417231
417050
416793
416454
416016
415475
414816
414004
413014
411838
410467
408891
407144
417849
417017
417066
417194
417293
417311
417239
417092
416856
416566
416218
415765
415246
414668
413938
413024
411963
410787
409266
407502
14698.4
372531
406901
417288
417483
417446
417280
417097
416782
416469
416158
415654
415137
414614
413948
411982
407111
396539
371986
326177
-1.78414
-4.95339
-0.857646
-2.35229
-3.94822
-6.24144
-8.50445
-10.4196
-13.4052
-15.9509
-17.4049
-21.3301
-24.6943
-25.1222
-28.3041
-32.8776
-35.6595
-36.1597
-34.2273
2.2314
-8.93361
-4.07182
-0.517042
0.150665
0.1644
-0.0559749
-0.296314
-0.527521
-0.836445
-1.09481
-1.28747
-1.64294
-1.92602
-1.99295
-2.26135
-2.70437
-3.01398
-3.10995
-2.66654
-3.07401
-3.96753
-4.21452
-1.97122
-0.977657
-0.59521
-0.513386
-0.556454
-0.654929
-0.79954
-0.960817
-1.14162
-1.38732
-1.64973
-1.89871
-2.21909
-2.59947
-2.93036
-3.13764
-3.14595
-3.12268
-3.10373
-3.29516
-2.2636
-1.55662
-1.14704
-0.952216
-0.888717
-0.903642
-0.971046
-1.07346
-1.2049
-1.36792
-1.55024
-1.74426
-1.9631
-2.19966
-2.4173
-2.58462
-2.69609
-2.82662
-2.78961
-2.56559
-2.12014
-1.70116
-1.39527
-1.20652
-1.11189
-1.08552
-1.10842
-1.1682
-1.25744
-1.37121
-1.50282
-1.64793
-1.80667
-1.97359
-2.1348
-2.27833
-2.40419
-2.53386
-2.653
-2.10053
-1.90308
-1.66449
-1.46397
-1.32016
-1.23392
-1.1969
-1.19906
-1.23219
-1.2906
-1.36942
-1.46362
-1.56953
-1.68505
-1.80688
-1.9297
-2.04861
-2.16263
-2.27724
-2.60166
-1.80508
-1.70652
-1.56792
-1.44484
-1.34915
-1.28639
-1.25541
-1.25196
-1.27134
-1.30985
-1.36436
-1.4317
-1.50894
-1.59378
-1.68419
-1.77799
-1.87309
-1.96837
-2.0644
-2.61849
-1.6106
-1.54206
-1.45912
-1.38872
-1.33334
-1.29633
-1.27804
-1.2769
-1.29066
-1.31737
-1.35554
-1.4037
-1.46021
-1.52334
-1.59146
-1.66321
-1.73748
-1.8134
-1.8902
-2.73547
-1.4722
-1.39986
-1.35555
-1.32353
-1.29978
-1.285
-1.27954
-1.28322
-1.29547
-1.3157
-1.34354
-1.37865
-1.42047
-1.46805
-1.52014
-1.57543
-1.63276
-1.69114
-1.7496
-3.04306
-1.35524
-1.27244
-1.26818
-1.26587
-1.26433
-1.26459
-1.26795
-1.27538
-1.28749
-1.30461
-1.32692
-1.3545
-1.3872
-1.42448
-1.4654
-1.50874
-1.55317
-1.59742
-1.64039
-4.53055
-1.27066
-1.15897
-1.20888
-1.23156
-1.24617
-1.25702
-1.26698
-1.27781
-1.29065
-1.30623
-1.32497
-1.34703
-1.37227
-1.40028
-1.4303
-1.4613
-1.49206
-1.52128
-1.54764
335253
338404
348502
358701
365585
369966
372257
373385
373613
373018
371531
368919
364642
357249
342117
367263
353430
354692
360315
365174
368461
370390
371277
371255
370349
368464
365363
360578
353237
342047
380439
370216
366582
367053
368698
370157
371021
371189
370617
369239
366937
363519
358700
352137
343662
387529
380509
376039
374013
373339
373126
372844
372213
371065
369272
366708
363232
358707
353051
346399
392352
386923
382658
379748
377840
376471
375256
373917
372255
370122
367393
363970
359789
354873
349397
395922
391457
387540
384373
381869
379809
377950
376078
374017
371625
368794
365447
361558
357178
352453
398682
394887
391331
388177
385436
383013
380766
378543
376205
373634
370741
367467
363783
359668
355177
400871
397592
394385
391376
388606
386044
383608
381193
378694
376023
373095
369796
366071
362856
276367
402638
399783
396909
394110
391433
388891
386428
383957
381366
378548
375535
373238
264128
-100.457
-9.01405
404076
401596
399042
396489
393974
391556
389128
386564
384087
375638
210872
-86.0557
-5.97084
-7.58552
-12.9582
405264
403138
400839
398477
395901
393872
392442
337224
92407.1
-54.9667
-2.97838
-5.341
-10.2762
-11.1244
-11.2187
405861
404289
402536
397150
325863
137624
-78.9096
-14.3562
1.57994
-7.88136
-9.38929
-9.40584
-9.2816
-9.50536
-9.79661
239436
125177
8513.77
-49.5139
1.38373
-0.0910352
-2.76992
-6.2805
-7.58347
-8.19615
-8.08731
-8.11139
-8.29227
-8.51444
-8.72182
7.03993
4.07516
4.59249
-3.30382
-5.7679
-7.34556
-6.87202
-6.66796
-6.59927
-6.88043
-7.09438
-7.27426
-7.46023
-7.6467
-7.81313
-5.04924
-5.43645
-4.75937
-4.88429
-4.96046
-5.42598
-5.56945
-5.73276
-5.89599
-6.11401
-6.32619
-6.52337
-6.70759
-6.87377
-7.01191
-3.53112
-3.85305
-3.88497
-4.04928
-4.29365
-4.60475
-4.83746
-5.04426
-5.24248
-5.45132
-5.65681
-5.84724
-6.01714
-6.16226
-6.27559
-3.05282
-3.27131
-3.41687
-3.57884
-3.77923
-4.012
-4.23497
-4.44651
-4.65044
-4.85087
-5.04181
-5.21491
-5.36501
-5.48769
-5.57672
-2.68944
-2.85764
-3.00891
-3.1642
-3.33832
-3.52985
-3.72492
-3.91762
-4.106
-4.28757
-4.45657
-4.60694
-4.73395
-4.83256
-4.8976
-2.40073
-2.53648
-2.66974
-2.80652
-2.95333
-3.1102
-3.27231
-3.43562
-3.59628
-3.74938
-3.8897
-4.0127
-4.11375
-4.18755
-4.22996
-2.16448
-2.27357
-2.38278
-2.49455
-2.61165
-2.73438
-2.86097
-2.98868
-3.11364
-3.23145
-3.33809
-3.42984
-3.5023
-3.55069
-3.5717
-1.96917
-2.0539
-2.13788
-2.22223
-2.3082
-2.39609
-2.48507
-2.57316
-2.65769
-2.73584
-2.80478
-2.8613
-2.90175
-2.92273
-2.9222
-1.80873
-1.87056
-1.92975
-1.98651
-2.0412
-2.09388
-2.14399
-2.19032
-2.23156
-2.2664
-2.29321
-2.30981
-2.31401
-2.30433
-2.28052
-1.68229
-1.72353
-1.75954
-1.78978
-1.81395
-1.83172
-1.8426
-1.8461
-1.84191
-1.82989
-1.80983
-1.78136
-1.74421
-1.69884
-1.64682
-1.56914
-1.58652
-1.59608
-1.59643
-1.58682
-1.56675
-1.53598
-1.4947
-1.44356
-1.38359
-1.31624
-1.24319
-1.16624
-1.08736
-1.00882
306492
304541
301629
298516
295775
293311
291197