/*--------------------------------*- C++ -*----------------------------------*\
| =========                 |                                                 |
| \\      /  F ield         | OpenFOAM: The Open Source CFD Toolbox           |
|  \\    /   O peration     | Version:  v1912                                 |
|   \\  /    A nd           | Website:  www.openfoam.com                      |
|    \\/     M anipulation  |                                                 |
\*---------------------------------------------------------------------------*/
FoamFile
{
    version     2.0;
    format      ascii;
    class       surfaceScalarField;
    location    "10";
    object      phi;
}
// * * * * * * * * * * * * * * * * * * * * * * * * * * * * * * * * * * * * * //

dimensions      [0 3 -1 0 0 0 0];
oriented        oriented;


internalField   nonuniform List<scalar> 
40282
(
0.00305854
0.00214965
1.9507
-1.95814
1.95387
0.00427264
-1.94699
1.93758
0.00940992
-1.9257
1.91166
0.0140323
-1.89574
1.87775
0.0179872
-1.85749
1.8357
0.0217872
-1.81311
1.78926
0.0238542
-1.76397
1.73818
0.0257876
-1.71264
1.68736
0.025281
-1.66245
1.63847
0.0239799
-1.61544
1.59196
0.0234812
-1.56554
1.53347
0.0320646
-1.49338
1.44326
0.0501245
-1.38142
1.30648
0.0749411
-1.21734
1.11329
0.104041
-0.994123
0.859956
0.134167
-0.711937
0.554026
0.157911
-0.394016
0.242279
0.151737
-0.109734
0.00745673
0.102277
0.0539442
-0.0624037
0.00845957
-0.00347041
0.00465757
1.88465
-1.881
1.87533
-0.0114201
0.0170865
-1.86747
1.85736
-0.0204596
0.03057
-1.84501
1.83051
-0.02888
0.0433797
-1.81391
1.7954
-0.0367793
0.0552889
-1.77521
1.75313
-0.0436116
0.0656971
-1.72915
1.70395
-0.0490687
0.0742732
-1.67766
1.64984
-0.0525885
0.080407
-1.62036
1.58887
-0.0540215
0.0855111
-1.55405
1.51415
-0.0563818
0.0962868
-1.46782
1.41494
-0.0647415
0.11762
-1.35636
1.29317
-0.0841123
0.147301
-1.22628
1.15633
-0.114434
0.184382
-1.08382
1.00918
-0.15263
0.227267
-0.9329
0.855586
-0.19448
0.271794
-0.778025
0.701176
-0.23328
0.310129
-0.625956
0.552789
-0.256489
0.329656
-0.481279
0.410268
-0.244557
0.315567
-0.338102
0.262713
-0.185848
0.261237
-0.182257
0.0951455
-0.0823269
0.169439
-0.0058812
0.00707765
1.81708
-1.81348
1.8075
-0.0231345
0.029115
-1.79932
1.78901
-0.0411902
0.0515009
-1.77633
1.76139
-0.0583865
0.073334
-1.74444
1.72529
-0.0743809
0.0935335
-1.70402
1.68121
-0.0887731
0.111588
-1.65657
1.6296
-0.100305
0.127276
-1.6004
1.56831
-0.110435
0.142525
-1.53155
1.48893
-0.122977
0.165595
-1.44067
1.38767
-0.145755
0.198759
-1.3308
1.27078
-0.176968
0.236995
-1.20818
1.14359
-0.213595
0.278189
-1.07758
1.01076
-0.254834
0.321651
-0.943755
0.877163
-0.299169
0.365761
-0.811546
0.747374
-0.342543
0.406715
-0.68496
0.624368
-0.377522
0.438114
-0.565304
0.507021
-0.39354
0.451824
-0.448306
0.387603
-0.380375
0.441079
-0.323219
0.253566
-0.334851
0.404503
-0.177327
0.0933962
-0.259134
0.343065
-0.00830054
0.0094943
1.75195
-1.74846
1.74276
-0.0350163
0.0407162
-1.73447
1.72381
-0.0622229
0.0728811
-1.71114
1.69613
-0.0885149
0.103517
-1.67879
1.65955
-0.11327
0.132513
-1.63812
1.61412
-0.135217
0.159213
-1.58783
1.55855
-0.155788
0.185068
-1.52449
1.4847
-0.179188
0.218982
-1.43965
1.39038
-0.213537
0.262799
-1.33785
1.28272
-0.254617
0.309742
-1.22552
1.16668
-0.297972
0.356814
-1.10659
1.04566
-0.342291
0.403226
-0.984286
0.922892
-0.386868
0.448262
-0.861875
0.801598
-0.430034
0.490311
-0.742346
0.684286
-0.468392
0.526452
-0.627426
0.57157
-0.49676
0.552616
-0.516297
0.460954
-0.509195
0.564538
-0.404708
0.346627
-0.501351
0.559433
-0.285776
0.221329
-0.472732
0.53718
-0.152625
0.0791143
-0.423119
0.49663
-0.0105958
0.0117454
1.68919
-1.68572
1.67973
-0.0467766
0.0527643
-1.67177
1.66157
-0.083389
0.0935874
-1.64871
1.6337
-0.118958
0.133964
-1.61669
1.59715
-0.152227
0.171769
-1.57529
1.55089
-0.18385
0.208248
-1.52224
1.48796
-0.217225
0.251499
-1.4483
1.4043
-0.262306
0.306297
-1.35702
1.30721
-0.313706
0.363523
-1.25538
1.20193
-0.365265
0.418713
-1.14719
1.09145
-0.415244
0.470979
-1.03501
0.978135
-0.463174
0.520049
-0.921102
0.864168
-0.508368
0.565303
-0.80756
0.751462
-0.549358
0.605456
-0.69599
0.641172
-0.583719
0.638537
-0.586934
0.533087
-0.608339
0.662186
-0.479328
0.425254
-0.620211
0.674285
-0.370396
0.314256
-0.617574
0.673714
-0.256357
0.196285
-0.600446
0.660518
-0.13371
0.0683547
-0.566968
0.632323
-0.0129307
0.0141142
1.6287
-1.62514
1.61977
-0.058524
0.0639022
-1.61185
1.60142
-0.104208
0.11464
-1.58924
1.57498
-0.148811
0.163074
-1.5581
1.539
-0.191562
0.210662
-1.51686
1.48974
-0.234162
0.261287
-1.45692
1.41923
-0.288588
0.326278
-1.37785
1.33368
-0.351529
0.395693
-1.28735
1.23927
-0.413533
0.461614
-1.18975
1.13904
-0.471808
0.522514
-1.08738
1.03497
-0.526031
0.578437
-0.982027
0.92873
-0.576077
0.629374
-0.875262
0.821783
-0.621419
0.674898
-0.768422
0.715271
-0.660974
0.714124
-0.662379
0.609735
-0.693176
0.74582
-0.557272
0.504863
-0.716261
0.768671
-0.452325
0.399432
-0.728754
0.781647
-0.345933
0.291572
-0.729955
0.784316
-0.236108
0.179339
-0.719884
0.776653
-0.121106
0.0612905
-0.69577
0.755586
-0.0151643
0.0161198
1.5703
-1.56734
1.56177
-0.0694193
0.0749925
-1.55406
1.54491
-0.124718
0.133867
-1.53354
1.51952
-0.177512
0.191534
-1.50338
1.484
-0.230008
0.249384
-1.45942
1.42928
-0.290663
0.320804
-1.39461
1.3566
-0.365133
0.403149
-1.31607
1.27355
-0.439975
0.482492
-1.22939
1.18383
-0.509351
0.554906
-1.13709
1.08934
-0.572657
0.62041
-1.04074
0.991453
-0.630191
0.679478
-0.941621
0.891378
-0.682042
0.732285
-0.840845
0.790125
-0.72789
0.77861
-0.7393
0.688423
-0.767034
0.817911
-0.637519
0.586583
-0.798524
0.84946
-0.535573
0.484417
-0.82139
0.872546
-0.433019
0.381261
-0.834925
0.886683
-0.329017
0.276162
-0.838873
0.891728
-0.222582
0.168187
-0.833157
0.887552
-0.112917
0.0567517
-0.814448
0.870613
-0.0170186
0.0179698
1.51412
-1.51116
1.50609
-0.0805909
0.0856609
-1.49977
1.49121
-0.142688
0.151252
-1.48002
1.46698
-0.205406
0.218446
-1.45092
1.42972
-0.269956
0.291154
-1.40306
1.37203
-0.352225
0.383253
-1.33782
1.30124
-0.44128
0.477867
-1.26274
1.22264
-0.52462
0.564725
-1.18113
1.13838
-0.599885
0.642635
-1.09453
1.04971
-0.667535
0.712356
-1.00404
0.957624
-0.728173
0.774584
-0.910579
0.862996
-0.782048
0.829631
-0.814962
0.766549
-0.829034
0.877448
-0.717814
0.6688
-0.868725
0.917739
-0.619529
0.570007
-0.900572
0.950094
-0.520221
0.470143
-0.92406
0.974138
-0.419731
0.368937
-0.938864
0.989658
-0.31771
0.266002
-0.944914
0.996622
-0.213772
0.160999
-0.942026
0.994799
-0.107681
0.0538686
-0.926465
0.980277
-0.0189556
0.0199668
1.45977
-1.45701
1.45312
-0.0901863
0.0940767
-1.4472
1.43876
-0.160016
0.168462
-1.4288
1.41639
-0.231249
0.243657
-1.39916
1.37653
-0.313629
0.336266
-1.34955
1.31946
-0.414554
0.444647
-1.28705
1.25278
-0.514027
0.5483
-1.2169
1.1796
-0.604177
0.641483
-1.14098
1.10117
-0.684686
0.724498
-1.06026
1.01832
-0.756523
0.798454
-0.975464
0.931756
-0.820453
0.864162
-0.887275
0.842091
-0.876837
0.92202
-0.79627
0.749865
-0.925694
0.972099
-0.702924
0.655485
-0.966817
1.01426
-0.607577
0.559219
-0.999899
1.04826
-0.510422
0.461189
-1.02467
1.0739
-0.411523
0.361419
-1.04099
1.09109
-0.310877
0.259901
-1.04885
1.09982
-0.208501
0.156702
-1.04796
1.09976
-0.104548
0.0521381
-1.03425
1.08666
-0.0208901
0.0216914
1.40776
-1.40567
1.40217
-0.0977187
0.101217
-1.3963
1.38913
-0.176549
0.183717
-1.38034
1.36739
-0.256472
0.269422
-1.34917
1.32655
-0.359503
0.382121
-1.3008
1.27275
-0.474356
0.502398
-1.24288
1.21143
-0.58182
0.613276
-1.17852
1.14426
-0.677955
0.71222
-1.1087
1.07192
-0.763513
0.800293
-1.03398
0.994919
-0.839696
0.878754
-0.954807
0.913695
-0.907345
0.948457
-0.871634
0.828675
-0.966886
1.00985
-0.784865
0.740247
-1.01842
1.06304
-0.694862
0.648748
-1.06186
1.10798
-0.601939
0.554467
-1.09702
1.14449
-0.506364
0.457661
-1.12372
1.17243
-0.408389
0.358584
-1.14191
1.19172
-0.308284
0.257534
-1.15155
1.2023
-0.206388
0.154909
-1.15227
1.20375
-0.103183
0.0513519
-1.13965
1.19148
-0.0223078
0.0227667
1.35759
-1.35589
1.35239
-0.104809
0.108317
-1.34751
1.34187
-0.190178
0.195824
-1.3332
1.31963
-0.282998
0.29656
-1.30161
1.28038
-0.404596
0.425825
-1.25688
1.23159
-0.529626
0.554916
-1.20475
1.17648
-0.643731
0.672002
-1.14683
1.11584
-0.745481
0.776474
-1.08353
1.04992
-0.836155
0.869757
-1.01506
0.978947
-0.917045
0.953154
-0.941625
0.903119
-0.989009
1.02752
-0.863457
0.822669
-1.05249
1.09328
-0.780784
0.737836
-1.10762
1.15057
-0.693855
0.648879
-1.15434
1.19932
-0.602945
0.556096
-1.19248
1.23933
-0.508379
0.459848
-1.22189
1.27042
-0.410562
0.36059
-1.24246
1.29243
-0.310009
0.258904
-1.25409
1.30519
-0.207371
0.155518
-1.25628
1.30813
-0.103476
0.0514381
-1.2443
1.29633
-0.0230814
0.0233053
1.30918
-1.30743
1.30443
-0.111719
0.11472
-1.30106
1.29617
-0.201087
0.205975
-1.28729
1.27402
-0.310366
0.32364
-1.25743
1.23855
-0.446347
0.465225
-1.21796
1.1959
-0.579081
0.601141
-1.17247
1.1477
-0.699052
0.723823
-1.12158
1.09412
-0.80628
0.833748
-1.06528
1.03507
-0.902285
0.932494
-1.00348
0.9705
-0.988368
1.02135
-0.936126
0.900358
-1.06536
1.10113
-0.863199
0.824653
-1.1337
1.17224
-0.784729
0.743441
-1.19348
1.23476
-0.700808
0.656856
-1.24459
1.28855
-0.611621
0.565149
-1.28683
1.3333
-0.517499
0.468741
-1.31991
1.36867
-0.418961
0.368262
-1.34362
1.39432
-0.316759
0.264584
-1.35769
1.40986
-0.211885
0.158826
-1.36146
1.41452
-0.105598
0.0524818
-1.34985
1.40297
-0.0234665
0.0235974
1.26253
-1.26097
1.25899
-0.117293
0.119275
-1.25678
1.25216
-0.210801
0.215426
-1.2436
1.23166
-0.336603
0.348544
-1.21739
1.20149
-0.483001
0.498905
-1.18425
1.16578
-0.621825
0.6403
-1.14607
1.1251
-0.747158
0.768131
-1.10281
1.07917
-0.859821
0.883469
-1.05411
1.02759
-0.961428
0.987943
-0.999577
0.970022
-1.05325
1.0828
-0.938888
0.906139
-1.13607
1.16882
-0.871744
0.835672
-1.21029
1.24636
-0.797902
0.758417
-1.27593
1.31542
-0.717211
0.674288
-1.3328
1.37572
-0.629668
0.583387
-1.38052
1.4268
-0.535504
0.486098
-1.41861
1.46802
-0.435277
0.383172
-1.44658
1.49868
-0.329946
0.275787
-1.46389
1.51805
-0.22091
0.16556
-1.46959
1.52494
-0.110024
0.0547838
-1.45827
1.51351
-0.0237052
0.0237956
1.21714
-1.21617
1.21525
-0.120731
0.121644
-1.21376
1.20953
-0.219982
0.224213
-1.20208
1.19227
-0.359702
0.369509
-1.18091
1.16838
-0.513423
0.525947
-1.15483
1.14024
-0.657174
0.671766
-1.12455
1.10769
-0.78744
0.8043
-1.08957
1.0701
-0.905476
0.924941
-1.04921
1.02681
-1.01292
1.03532
-1.00282
0.977157
-1.11099
1.13665
-0.949748
0.920512
-1.20047
1.2297
-0.889374
0.856259
-1.28167
1.31479
-0.821096
0.783824
-1.35458
1.39185
-0.74439
0.702753
-1.41884
1.46048
-0.658894
0.612816
-1.47385
1.51993
-0.564551
0.514168
-1.5188
1.56919
-0.461776
0.407531
-1.55275
1.60699
-0.351639
0.294358
-1.57465
1.63193
-0.236
0.176934
-1.58305
1.64212
-0.117633
0.0591041
-1.57216
1.63068
-0.0238592
0.0238897
1.17365
-1.1732
1.17314
-0.122109
0.122171
-1.17218
1.16878
-0.228161
0.231566
-1.16308
1.1559
-0.378204
0.385384
-1.14776
1.13887
-0.536879
0.545778
-1.12922
1.11874
-0.684556
0.69503
-1.10734
1.0949
-0.819261
0.831705
-1.08129
1.06641
-0.942482
0.95736
-1.05015
1.03237
-1.05585
1.07362
-1.01297
0.991832
-1.16058
1.18172
-0.968824
0.943824
-1.25743
1.28243
-0.9167
0.88732
-1.34673
1.37611
-0.85555
0.82126
-1.42842
1.46271
-0.784321
0.744619
-1.50201
1.54172
-0.702053
0.656549
-1.56665
1.61215
-0.60807
0.556622
-1.62106
1.6725
-0.502274
0.445165
-1.66362
1.72072
-0.385526
0.323685
-1.6924
1.75424
-0.260085
0.195302
-1.70502
1.7698
-0.130205
0.06714
-1.69522
1.75828
-0.0238764
0.0238119
1.13171
-1.13159
1.13216
-0.121892
0.121328
-1.1318
1.12963
-0.234448
0.236617
-1.12608
1.12176
-0.391253
0.395567
-1.117
1.11184
-0.552943
0.558101
-1.10622
1.10003
-0.703533
0.709725
-1.09313
1.08538
-0.842022
0.849774
-1.07663
1.06676
-0.970017
0.97989
-1.05562
1.04305
-1.08915
1.10171
-1.02893
1.01308
-1.20066
1.21651
-0.995339
0.97554
-1.30538
1.32518
-0.953492
0.928995
-1.40372
1.42822
-0.90184
0.871805
-1.49567
1.5257
-0.838661
0.802174
-1.58073
1.61722
-0.762115
0.718266
-1.65785
1.7017
-0.670437
0.618482
-1.7253
1.77725
-0.562325
0.501986
-1.78054
1.84088
-0.437625
0.369579
-1.82025
1.88829
-0.298418
0.225046
-1.84016
1.91353
-0.151153
0.0821939
-1.83334
1.90229
-0.0236935
0.0235155
1.09129
-1.09181
1.09286
-0.120493
0.119441
-1.09324
1.09254
-0.238093
0.238786
-1.09127
1.08984
-0.39848
0.399901
-1.08843
1.087
-0.561449
0.562882
-1.08543
1.08358
-0.713821
0.715668
-1.0813
1.07844
-0.855201
0.858067
-1.07483
1.07033
-0.987254
0.991757
-1.06477
1.058
-1.11163
1.1184
-1.04985
1.04013
-1.22964
1.23936
-1.02865
1.0152
-1.34227
1.35572
-0.999536
0.981412
-1.45014
1.46826
-0.960538
0.936601
-1.55347
1.5774
-0.909253
0.878116
-1.652
1.68313
-0.842781
0.802813
-1.74477
1.78474
-0.757763
0.707187
-1.82984
1.88042
-0.650673
0.587892
-1.90385
1.96663
-0.518669
0.443088
-1.96154
2.03712
-0.361656
0.275628
-1.99536
2.08139
-0.188276
0.111375
-1.99662
2.07352
-0.0232848
0.0229966
1.05219
-1.05307
1.05453
-0.118154
0.116694
-1.05569
1.05652
-0.238712
0.237884
-1.05746
1.05879
-0.399919
0.398589
-1.06056
1.06271
-0.562494
0.560351
-1.06508
1.06751
-0.715351
0.712915
-1.06985
1.07195
-0.858461
0.856369
-1.07363
1.07475
-0.993502
0.992382
-1.07515
1.07466
-1.12215
1.12263
-1.07312
1.07033
-1.24583
1.24861
-1.06609
1.06019
-1.36573
1.37163
-1.05237
1.04235
-1.48282
1.49284
-1.0298
1.01434
-1.59779
1.61325
-0.995547
0.972916
-1.71098
1.73361
-0.945861
0.913708
-1.8221
1.85425
-0.87568
0.830894
-1.92977
1.97456
-0.778369
0.717057
-2.03071
2.09202
-0.645917
0.564076
-2.11823
2.20007
-0.471147
0.368053
-2.18023
2.28333
-0.260214
0.171046
-2.20434
2.29351
-0.0226654
0.0222856
1.01458
-1.01591
1.01771
-0.115023
0.11322
-1.01964
1.02187
-0.236305
0.23408
-1.02478
1.02858
-0.395933
0.392135
-1.03325
1.03869
-0.556448
0.55101
-1.04475
1.05126
-0.708324
0.701812
-1.05807
1.06503
-0.851739
0.84478
-1.07198
1.07879
-0.988341
0.981532
-1.08531
1.09138
-1.11981
1.11373
-1.09687
1.10159
-1.24768
1.24296
-1.10539
1.10805
-1.37339
1.37072
-1.10937
1.10908
-1.49828
1.49857
-1.1069
1.10247
-1.62369
1.62812
-1.09538
1.08511
-1.75088
1.76115
-1.07103
1.05238
-1.88094
1.89959
-1.02818
0.997192
-2.01444
2.04543
-0.957866
0.908239
-2.15051
2.20014
-0.84588
0.767881
-2.28466
2.36266
-0.671036
0.553057
-2.40386
2.52184
-0.419325
0.310079
-2.49457
2.60382
-0.0218769
0.0214315
0.978448
-0.979779
0.98185
-0.111236
0.109165
-0.984412
0.98778
-0.231195
0.227826
-0.992327
0.998196
-0.387157
0.381287
-1.00536
1.01369
-0.543942
0.535609
-1.02305
1.03328
-0.693233
0.682998
-1.04425
1.05579
-0.835312
0.823764
-1.0678
1.08012
-0.971752
0.959423
-1.09266
1.10528
-1.10419
1.09157
-1.11788
1.13033
-1.23421
1.22176
-1.14251
1.15429
-1.3634
1.35161
-1.16554
1.1761
-1.49343
1.48287
-1.18579
1.1944
-1.62618
1.61757
-1.20168
1.20733
-1.76388
1.75824
-1.21094
1.21203
-1.90927
1.90818
-1.20992
1.2037
-2.06585
2.07208
-1.19207
1.17317
-2.23816
2.25706
-1.14425
1.10119
-2.43174
2.4748
-1.03752
0.943465
-2.6522
2.74626
-0.813408
0.730921
-2.93227
3.01475
-1.9311
3.62789
-1.69678
3.28788
-3.81076
0.52288
4.00933
-4.0776
0.0682707
4.10491
-4.10844
0.00352742
4.1082
-4.11014
0.0019447
4.1136
-4.11656
0.0029572
4.12502
-4.14607
0.0210503
4.18984
-4.26394
0.0741096
4.37153
-4.51266
0.141138
4.67919
-4.84131
0.16212
4.82732
-4.3562
-0.471125
3.14427
-1.43037
-1.7139
-0.258228
1.71342
-1.45519
-2.96394
4.0512
-1.08726
-4.97658
5.71954
-0.742961
-6.25948
6.60639
-0.346916
-6.79552
6.87289
-0.0773723
-6.88117
6.84462
0.0365557
-6.78625
6.71413
0.0721163
-6.63514
6.55701
0.0781369
-6.48417
6.41716
0.0670145
-6.35511
6.29894
0.0561755
-6.25142
6.21379
0.037621
-6.18278
6.15235
0.0304387
-6.11876
6.08383
0.0349324
-6.05153
6.02324
0.0282887
-5.99765
5.97327
0.0243702
-5.951
5.93486
0.0161389
-5.93014
5.93894
-0.00880132
-5.95866
5.98031
-0.0216492
-5.99271
5.98904
0.00367142
-5.97283
5.95388
0.0189482
-5.93931
5.93065
0.00865651
-5.92519
5.92041
0.00478289
-5.91569
5.91146
0.004233
-5.90851
5.90816
0.000350635
-5.90938
5.91018
-0.000798583
-5.91236
5.91757
-0.00521907
-5.9305
5.95002
-0.0195141
-5.96521
5.94679
0.0184191
-5.89617
5.81791
0.0782597
-5.7226
5.63455
0.0880458
-5.56279
5.51076
0.0520238
-5.486
5.488
-0.00200001
-5.50512
5.52239
-0.0172648
-5.52041
5.48546
0.0349506
-5.42061
5.35201
0.0686036
-5.30102
5.26052
0.0404947
-5.21598
5.15037
0.0656159
-5.05102
4.93119
0.119833
-4.8351
4.84895
-0.013843
-4.91957
5.27174
-0.352176
-5.34561
4.7197
0.625911
-4.59479
4.62578
-0.0309952
-4.71875
4.8627
-0.143947
-5.05208
5.21887
-0.166794
-4.20811
2.51933
1.68878
-1.46943
0.974737
0.494696
-0.707458
0.527548
0.179909
-0.388197
0.267546
0.120652
-5.00802
5.89926
-0.891244
2.44837
-3.32167
-1.2201
2.0934
3.91656
-4.14348
-0.213685
0.440607
4.22353
-4.25451
-0.0219375
0.0529127
4.26441
-4.26608
-0.00263986
0.00430272
4.26446
-4.25951
0.000105284
-0.00505082
4.24985
-4.23591
-0.0130541
-0.000882532
4.21435
-4.1807
-0.0652892
0.031642
4.12695
-4.04148
-0.122216
0.0367465
3.90985
-3.71072
-0.108549
-0.0905884
3.44622
-3.10671
0.796082
-1.13559
2.52716
-1.52433
2.992
-3.99483
0.246885
1.02534
2.81578
-4.08801
-2.19744
3.24919
2.1515
-3.20324
-4.1687
4.9298
1.49466
-2.25575
-5.50787
5.90286
0.725516
-1.12051
-6.14041
6.26212
0.176743
-0.298446
-6.31726
6.33783
-0.0439977
0.0234288
-6.3395
6.32953
-0.112971
0.12294
-6.31419
6.29924
-0.121663
0.13661
-6.28656
6.27618
-0.10157
0.111956
-6.26759
6.2604
-0.0829168
0.0901062
-6.255
6.25294
-0.0533205
0.0553797
-6.2548
6.25769
-0.0404215
0.0375352
-6.2565
6.24937
-0.0526923
0.0598239
-6.23993
6.23119
-0.0443081
0.0530447
-6.22379
6.21738
-0.0371831
0.0435944
-6.21158
6.20721
-0.0244785
0.0288472
-6.20652
6.21113
0.015656
-0.0202678
-6.22262
6.24016
0.0417274
-0.0592588
-6.25836
6.26829
0.000750716
-0.0106772
-6.26444
6.25393
-0.0316657
0.0421765
-6.24395
6.23581
-0.017426
0.0255694
-6.22924
6.22345
-0.0105408
0.0163351
-6.21823
6.21406
-0.00834519
0.0125135
-6.21138
6.21011
-0.000945345
0.00221635
-6.21018
6.21133
0.00157048
-0.00271853
-6.2133
6.21631
0.0139041
-0.0169055
-6.21925
6.21925
0.02709
-0.0270881
-6.20855
6.17422
-0.0493559
0.0836863
-6.11658
6.05506
-0.143773
0.205291
-6.00441
5.95647
-0.146977
0.194921
-5.9035
5.84969
-0.108899
0.162702
-5.80565
5.78337
-0.00882013
0.0310994
-5.77707
5.77402
0.0141163
-0.0110647
-5.7628
5.74326
-0.0628788
0.0824216
-5.7135
5.67286
-0.111734
0.152376
-5.62625
5.57466
-0.093777
0.145364
-5.51765
5.47575
-0.147386
0.189283
-5.45784
5.40877
-0.204696
0.253768
-5.24703
4.92374
0.0358464
0.287439
-4.67626
4.63552
0.134542
-0.0938026
-4.60614
4.59295
-0.534688
0.547873
-4.28678
3.91423
0.0921249
0.280418
-3.40669
2.70358
0.310614
0.392497
-1.83802
1.14163
-1.06046
1.75685
-1.02069
1.10609
-2.31822
2.23283
-1.01693
0.835319
-0.773715
0.955327
-0.66051
0.511372
-0.345274
0.494413
-0.382924
0.26754
-0.238993
0.354377
-6.39475
6.65539
-0.260638
0.778203
-1.18188
-3.03907
3.44274
2.58778
-3.55683
-0.838197
1.80725
3.98831
-4.19699
-0.11913
0.327806
4.30188
-4.35124
-0.011389
0.0607484
4.37598
-4.3917
0.00732431
0.00839366
4.40298
-4.40706
0.0113512
-0.00727515
4.39912
-4.37399
0.00170933
-0.0268389
4.32908
-4.25803
0.0519817
-0.12304
4.13453
-3.74207
0.422728
-0.815184
3.04708
-2.43626
1.53886
-2.14968
1.85619
-1.1007
4.80583
-5.56133
0.208848
0.768365
5.21817
-6.19538
-1.76099
2.70876
4.20671
-5.15448
-3.57462
4.31286
3.00382
-3.74207
-4.88072
5.27903
1.51698
-1.91529
-5.54415
5.71578
0.442013
-0.613648
-5.83691
5.92902
0.0295451
-0.121658
-6.00366
6.06251
-0.0999532
0.0410967
-6.1096
6.14923
-0.124243
0.0846066
-6.18206
6.20944
-0.10186
0.0744759
-6.23272
6.25253
-0.0821438
0.0623327
-6.26889
6.28289
-0.0478756
0.0338728
-6.29747
6.31438
-0.0257482
0.00883844
-6.33065
6.33871
-0.0588227
0.0507612
-6.34022
6.33991
-0.0566593
0.0569625
-6.33952
6.33992
-0.0457382
0.0453372
-6.34074
6.34148
-0.0303294
0.0295976
-6.34247
6.34428
0.0232541
-0.0250634
-6.34745
6.3549
0.0724269
-0.0798718
-6.36813
6.38312
0.0243493
-0.039342
-6.38367
6.3726
-0.0510555
0.0621201
-6.364
6.35601
-0.0331381
0.0411321
-6.34877
6.34139
-0.0223198
0.0297013
-6.33431
6.32902
-0.016963
0.0222582
-6.32549
6.32323
-0.0039936
0.00625445
-6.32295
6.32534
0.00422409
-0.00662033
-6.32884
6.32868
0.0171046
-0.0169414
-6.31989
6.30368
0.0202805
-0.00407039
-6.28287
6.2494
-0.116311
0.14978
-6.19223
6.139
-0.266648
0.319882
-6.10895
6.07669
-0.231678
0.263936
-6.03561
5.98682
-0.212462
0.261252
-5.94706
5.92168
-0.0571329
0.0825091
-5.90455
5.89048
0.00265604
0.0114103
-5.87921
5.87099
-0.0948489
0.103074
-5.85897
5.8193
-0.192548
0.232221
-5.75224
5.68637
-0.194492
0.26037
-5.59218
5.42154
-0.286912
0.457548
-5.00969
4.48365
-0.380837
0.906876
-4.10525
3.78267
-0.614285
0.936871
-3.38354
2.90192
-0.411725
0.893348
-2.37197
1.94139
-0.8495
1.28008
-1.5142
1.11962
-0.848019
1.2426
-0.771363
0.469844
-0.977465
1.27898
-0.312747
0.35515
-1.91018
1.86778
-0.593027
0.759236
-2.02806
1.86185
-0.767579
0.689564
-1.07316
1.15118
-0.581353
0.469054
-0.623439
0.735738
-0.360908
0.258315
-0.462895
0.565488
-6.7724
6.78157
-0.00917016
0.37663
-0.899711
-4.04729
4.57037
1.37359
-2.06269
-2.78348
3.47259
2.74508
-3.27579
-0.746693
1.2774
3.67938
-3.99627
-0.273211
0.590104
4.25174
-4.46132
-0.146232
0.355814
4.63452
-4.77686
-0.102898
0.245241
4.89237
-4.98382
-0.0800091
0.17146
5.05171
-5.09134
0.0109211
0.0287143
5.06742
-4.86783
1.01919
-1.21879
3.8102
-2.40724
3.76019
-5.16315
1.18908
-0.612429
6.35561
-6.93226
-0.0521484
0.786494
7.02322
-7.75757
-1.55689
2.34153
6.01739
-6.80203
-3.0963
3.76213
4.44314
-5.10897
-4.27594
4.64661
2.30091
-2.67157
-4.94572
5.22955
0.823941
-1.10777
-5.4782
5.66886
0.261031
-0.451691
-5.81834
5.94563
0.0548527
-0.182137
-6.07164
6.16332
-0.0198116
-0.0718674
-6.21945
6.26082
-0.0360966
-0.00527493
-6.29463
6.32412
-0.0354935
0.00599729
-6.34898
6.3674
-0.0166631
-0.00175931
-6.37962
6.39071
0.00768317
-0.0187792
-6.404
6.42034
-0.0390554
0.022715
-6.43237
6.4345
-0.0558522
0.0537168
-6.43432
6.43433
-0.0441097
0.0441013
-6.43029
6.41146
-0.027917
0.0467476
-6.38632
6.36408
0.0263011
-0.00406138
-6.34074
6.31565
0.0792594
-0.0541645
-6.29107
6.26948
0.0481787
-0.0265846
-6.25433
6.23716
-0.0606097
0.0777805
-6.21208
6.18061
-0.0509696
0.0824439
-6.14428
6.10156
-0.0482206
0.0909399
-6.05104
5.99685
-0.0925811
0.146776
-5.94389
5.89701
-0.0662727
0.113156
-5.86193
5.84291
0.00105333
0.017969
-5.84003
5.84944
0.0708099
-0.080227
-5.86312
5.87319
0.0525235
-0.0625924
-5.86795
5.85472
-0.179445
0.192672
-5.85834
5.87339
-0.349095
0.334044
-5.89031
5.94
-0.300385
0.250687
-6.02387
6.0808
-0.296292
0.23936
-6.07879
6.04141
-0.11329
0.150678
-5.99351
5.95387
-0.0365543
0.0761959
-5.92571
5.85261
-0.115141
0.188237
-5.53326
5.06518
-0.28412
0.752203
-4.66551
4.31225
-0.676176
1.02944
-3.93543
3.51928
-0.864095
1.28024
-3.12957
2.75981
-1.26027
1.63003
-2.35313
1.91198
-1.33836
1.77951
-1.48579
1.13797
-1.41007
1.75789
-0.90333
0.762346
-1.56616
1.70715
-0.653474
0.548369
-1.43992
1.54502
-0.444793
0.360231
-1.42727
1.51183
-0.336573
0.398171
-1.79456
1.73296
-0.513171
0.59515
-1.74386
1.66188
-0.609935
0.57124
-1.20411
1.24281
-0.501744
0.418423
-0.831408
0.914729
-0.330854
0.243222
-0.659673
0.747305
-6.69373
6.57381
0.119918
0.0480646
-0.3623
-4.94415
5.25838
0.725511
-1.21416
-4.04298
4.53162
1.81211
-2.38626
-1.84609
2.42025
2.88166
-3.29258
-0.96596
1.37688
3.62675
-3.88935
-0.600324
0.862916
4.08307
-4.20682
-0.384047
0.5078
4.2571
-4.22854
-0.206989
0.178431
4.11194
-3.8946
0.0762021
-0.29354
3.58607
-3.29687
1.54695
-1.83614
3.08623
-2.78387
6.52719
-6.82955
1.36952
-0.300284
7.50616
-8.5754
-0.316648
0.866647
8.38886
-8.93886
-1.44864
2.06485
7.49326
-8.10947
-2.67952
3.23222
5.71527
-6.26796
-3.67058
3.96588
3.01209
-3.30738
-4.13666
4.71544
1.51905
-2.09783
-5.24492
5.60393
0.68508
-1.0441
-5.84149
5.9988
0.288757
-0.446072
-6.09784
6.16973
0.201293
-0.273186
-6.2355
6.27553
0.0556069
-0.0956338
-6.29799
6.31012
0.0213151
-0.0334446
-6.31643
6.31789
0.00929672
-0.0107606
-6.31435
6.30875
0.0135866
-0.00799341
-6.30369
6.3075
-0.0156276
0.0118166
-6.31485
6.32144
-0.0478279
0.0412391
-6.32411
6.3217
-0.0471669
0.0495766
-6.31483
6.3049
-0.057864
0.0677944
-6.28717
6.25799
-0.0235508
0.0527342
-6.2191
6.17102
0.0151541
0.0329219
-6.11579
6.05938
-0.0171498
0.0735659
-6.00878
5.95874
-0.112125
0.162171
-5.90304
5.84041
-0.130576
0.193199
-5.7728
5.70361
-0.148263
0.217451
-5.63807
5.58063
-0.198752
0.256189
-5.52895
5.47828
-0.158289
0.208963
-5.42893
5.38426
-0.0495127
0.0941854
-5.3431
5.2993
0.059528
-0.0157278
-5.25126
5.2068
0.0387102
0.00574732
-5.17622
5.16429
-0.199781
0.211717
-5.16803
5.16767
-0.322432
0.322787
-5.1528
5.12754
-0.241137
0.266394
-5.09038
5.0431
-0.236003
0.283287
-4.97526
4.87147
-0.2174
0.321188
-4.72867
4.54705
-0.198612
0.380237
-4.32504
4.06583
-0.440073
0.699284
-3.81381
3.53906
-1.02951
1.30427
-3.19099
2.80861
-1.3849
1.76729
-2.40768
1.99185
-1.69582
2.11165
-1.60382
1.28576
-2.02346
2.34151
-1.053
0.892626
-2.09467
2.25505
-0.780256
0.69762
-1.93218
2.01482
-0.638139
0.593742
-1.7767
1.8211
-0.548587
0.497626
-1.61162
1.66258
-0.444838
0.404515
-1.56661
1.60693
-0.394025
0.421942
-1.6897
1.66178
-0.469092
0.504566
-1.60712
1.57164
-0.509025
0.482474
-1.27296
1.29951
-0.432992
0.369751
-0.986268
1.04951
-0.298932
0.225384
-0.826886
0.900434
-6.43363
6.27343
0.160201
-0.117246
0.00974497
-5.48644
5.59395
0.171165
-0.545766
-4.95097
5.32557
1.02254
-1.53038
-2.96339
3.47123
2.00537
-2.41815
-1.7931
2.20589
2.7578
-3.01913
-1.12624
1.38756
3.19752
-3.28696
-0.611664
0.701105
3.28029
-3.16869
-0.0984396
-0.0131677
2.94317
-2.59728
0.58707
-0.932965
2.13195
-1.63651
2.17289
-2.66833
1.40279
-0.956193
7.22957
-7.67616
0.320017
0.10477
9.60839
-10.0332
-0.533097
0.945215
9.40488
-9.817
-1.38092
1.8519
8.6454
-9.11638
-2.35109
2.84875
6.76687
-7.26454
-3.46103
3.86896
4.01219
-4.42012
-4.69417
5.08988
2.44323
-2.83894
-5.35027
5.60783
1.37642
-1.63398
-5.81793
5.97121
0.605384
-0.758662
-6.05614
6.097
0.317405
-0.358265
-6.12152
6.13474
0.120765
-0.133989
-6.13694
6.13053
0.0336966
-0.0272854
-6.12006
6.1098
0.00461835
0.00563331
-6.10133
6.0946
0.00120994
0.00552725
-6.0916
6.09389
-0.00991256
0.00762708
-6.10069
6.10904
-0.0341391
0.0257927
-6.11561
6.11775
-0.0500009
0.0478591
-6.11515
6.10747
-0.0766518
0.0843272
-6.09092
6.06173
-0.0819579
0.11114
-6.01949
5.96511
-0.0849506
0.139325
-5.901
5.83195
-0.137049
0.206101
-5.762
5.68983
-0.224132
0.296301
-5.61271
5.53008
-0.266323
0.34895
-5.44392
5.35804
-0.295031
0.380911
-5.27692
5.20294
-0.321037
0.395023
-5.13369
5.06533
-0.267407
0.335766
-4.99647
4.92725
-0.150997
0.22021
-4.85645
4.78184
-0.0448632
0.119468
-4.7057
4.63594
-0.0633993
0.133155
-4.57993
4.53867
-0.235996
0.277251
-4.50459
4.46273
-0.341619
0.383483
-4.4015
4.31708
-0.322312
0.406733
-4.21249
4.09277
-0.369814
0.489533
-3.9555
3.79151
-0.457013
0.621003
-3.5929
3.3524
-0.585505
0.826
-3.06745
2.75654
-0.97614
1.28705
-2.43945
2.10811
-1.616
1.94735
-1.75732
1.41446
-2.13942
2.48228
-1.11678
0.898639
-2.46095
2.67909
-0.770278
0.708804
-2.51362
2.5751
-0.680786
0.661509
-2.31629
2.33556
-0.639303
0.612787
-2.05747
2.08399
-0.584003
0.553503
-1.85612
1.88662
-0.520142
0.484126
-1.70459
1.7406
-0.44938
0.423073
-1.63862
1.66492
-0.412945
0.419822
-1.64636
1.63948
-0.435141
0.445173
-1.55116
1.54113
-0.439859
0.416489
-1.32368
1.34705
-0.377356
0.326939
-1.10559
1.156
-0.268878
0.206829
-0.967455
1.0295
-6.11125
5.9515
0.159749
-0.198489
0.205235
-5.61626
5.60951
-0.214935
0.0142108
-5.62578
5.8265
0.324689
-0.724994
-3.92571
4.32601
1.12932
-1.49957
-2.59731
2.96756
1.8135
-2.05755
-1.63836
1.88242
2.22215
-2.29903
-0.780553
0.857437
2.28042
-2.15833
0.135883
-0.257975
1.92522
-1.57766
1.29126
-1.63883
1.11903
-0.596716
3.21086
-3.73317
0.247993
-0.0466792
7.95437
-8.15568
-0.2025
0.458192
10.3438
-10.5995
-0.731337
1.02032
10.1652
-10.4542
-1.34269
1.70242
9.52435
-9.88408
-2.13631
2.76132
7.81443
-8.43944
-3.67687
4.21661
4.67962
-5.21936
-4.56973
4.89076
3.28713
-3.60815
-5.14013
5.34029
1.85058
-2.05073
-5.50417
5.63426
0.897942
-1.02804
-5.72037
5.76659
0.400404
-0.446629
-5.78732
5.79314
0.140811
-0.146631
-5.78965
5.78042
0.0179424
-0.00871308
-5.76924
5.75971
-0.0168182
0.0263466
-5.75383
5.75211
-0.0106508
0.0123705
-5.75516
5.76334
-0.00327804
-0.00490381
-5.77562
5.78966
-0.0153184
0.00128771
-5.80243
5.81113
-0.0427139
0.0340132
-5.81414
5.80988
-0.0903964
0.0946594
-5.79552
5.76835
-0.139252
0.166423
-5.72741
5.67315
-0.193603
0.247854
-5.60754
5.53387
-0.277548
0.351216
-5.45482
5.37085
-0.374788
0.458758
-5.28159
5.18724
-0.437444
0.531793
-5.09005
4.99293
-0.472221
0.569334
-4.89883
4.80885
-0.476643
0.566621
-4.72196
4.63543
-0.412876
0.499409
-4.54773
4.45812
-0.299507
0.389124
-4.36573
4.2704
-0.20439
0.299715
-4.17436
4.08191
-0.213439
0.305889
-3.99628
3.91629
-0.336882
0.416871
-3.83561
3.74399
-0.449597
0.54122
-3.63292
3.49857
-0.515587
0.649943
-3.34234
3.16661
-0.635914
0.811645
-2.96839
2.74076
-0.815319
1.04295
-2.47861
2.18148
-1.09721
1.39434
-1.85687
1.52086
-1.61168
1.94769
-1.19628
0.912614
-2.27553
2.5592
-0.705195
0.589786
-2.72775
2.84316
-0.546624
0.543065
-2.76242
2.76598
-0.55548
0.570182
-2.58021
2.56551
-0.581213
0.583313
-2.33919
2.33709
-0.576239
0.561153
-2.10283
2.11791
-0.541307
0.518095
-1.91319
1.9364
-0.492866
0.466287
-1.77127
1.79785
-0.440976
0.421104
-1.68725
1.70712
-0.409272
0.405356
-1.63891
1.64282
-0.405234
0.401427
-1.53866
1.54247
-0.389417
0.366483
-1.36989
1.39282
-0.332907
0.290604
-1.20166
1.24396
-0.241947
0.189288
-1.0861
1.13876
-5.76246
5.55192
0.210544
-0.241199
0.295028
-5.57183
5.51801
-0.376502
0.395445
-5.92385
5.90491
-0.261272
0.00987821
-4.65214
4.90354
0.29535
-0.605323
-3.30569
3.61566
0.884479
-1.1123
-2.11543
2.34325
1.27383
-1.3596
-0.935802
1.02158
1.36188
-1.27373
0.36631
-0.454461
1.08956
-0.808678
1.95468
-2.23556
0.44351
-0.0307235
4.19387
-4.60666
-0.32892
0.48147
8.35774
-8.51029
-0.639259
0.772807
10.7984
-10.932
-0.923472
1.10693
10.6836
-10.8671
-1.32976
1.60394
10.1977
-10.4719
-1.97289
2.46388
9.01476
-9.50574