/*--------------------------------*- C++ -*----------------------------------*\
| =========                 |                                                 |
| \\      /  F ield         | OpenFOAM: The Open Source CFD Toolbox           |
|  \\    /   O peration     | Version:  v1912                                 |
|   \\  /    A nd           | Website:  www.openfoam.com                      |
|    \\/     M anipulation  |                                                 |
\*---------------------------------------------------------------------------*/
FoamFile
{
    version     2.0;
    format      ascii;
    class       volVectorField;
    location    "10";
    object      U;
}
// * * * * * * * * * * * * * * * * * * * * * * * * * * * * * * * * * * * * * //

dimensions      [0 1 -1 0 0 0 0];


internalField   nonuniform List<vector> 
20320
(
(1.88547 0.00539756 0)
(1.88572 -0.0063575 0)
(1.87473 0.00100125 0)
(1.84903 0.00796551 0)
(1.81859 0.0123942 0)
(1.78102 0.0186359 0)
(1.73611 0.020701 0)
(1.68819 0.0239559 0)
(1.6376 0.0225577 0)
(1.58952 0.02091 0)
(1.54508 0.021874 0)
(1.49466 0.0348041 0)
(1.41827 0.0587464 0)
(1.29977 0.092097 0)
(1.12854 0.134465 0)
(0.899097 0.184716 0)
(0.612244 0.23562 0)
(0.301671 0.227122 0)
(0.046291 0.130403 0)
(-0.0741706 -0.0546913 0)
(1.88562 0.00938087 0)
(1.87851 0.0282402 0)
(1.86247 0.0524173 0)
(1.83727 0.0761338 0)
(1.80428 0.0978372 0)
(1.76438 0.116743 0)
(1.71665 0.132941 0)
(1.66399 0.142739 0)
(1.60491 0.149444 0)
(1.5349 0.161746 0)
(1.44205 0.198507 0)
(1.32518 0.256424 0)
(1.1916 0.332915 0)
(1.04676 0.42464 0)
(0.894347 0.522873 0)
(0.739347 0.610669 0)
(0.588769 0.658335 0)
(0.445144 0.627055 0)
(0.299923 0.497697 0)
(0.139008 0.27675 0)
(1.88564 0.0143286 0)
(1.87819 0.0575137 0)
(1.86104 0.102159 0)
(1.834 0.145268 0)
(1.79914 0.185001 0)
(1.75591 0.221418 0)
(1.70466 0.250672 0)
(1.64382 0.277751 0)
(1.56726 0.316302 0)
(1.46716 0.380371 0)
(1.34928 0.458986 0)
(1.21953 0.546477 0)
(1.0827 0.641375 0)
(0.943796 0.74022 0)
(0.807768 0.834195 0)
(0.678342 0.907747 0)
(0.55576 0.940148 0)
(0.433746 0.91314 0)
(0.299811 0.822255 0)
(0.142763 0.67074 0)
(1.88556 0.0198485 0)
(1.87813 0.0841074 0)
(1.86022 0.150337 0)
(1.83247 0.213312 0)
(1.79514 0.273214 0)
(1.75028 0.326913 0)
(1.69294 0.377517 0)
(1.61946 0.440055 0)
(1.52247 0.528013 0)
(1.40951 0.626649 0)
(1.28652 0.727666 0)
(1.15731 0.828873 0)
(1.02534 0.928677 0)
(0.894129 1.02338 0)
(0.766707 1.10594 0)
(0.644407 1.16614 0)
(0.525479 1.1929 0)
(0.404395 1.17862 0)
(0.273312 1.12277 0)
(0.126752 1.02353 0)
(1.88569 0.0247727 0)
(1.87775 0.110742 0)
(1.85977 0.19653 0)
(1.83072 0.281187 0)
(1.7932 0.359813 0)
(1.74472 0.435108 0)
(1.68031 0.519014 0)
(1.59167 0.630857 0)
(1.4862 0.752244 0)
(1.37061 0.87122 0)
(1.24853 0.98505 0)
(1.12264 1.09295 0)
(0.995431 1.19346 0)
(0.869173 1.2835 0)
(0.745442 1.35821 0)
(0.624452 1.41159 0)
(0.504512 1.43811 0)
(0.38208 1.43472 0)
(0.252815 1.4015 0)
(0.114443 1.33362 0)
(1.88554 0.0300701 0)
(1.87787 0.136025 0)
(1.85943 0.243191 0)
(1.83064 0.346441 0)
(1.79246 0.446878 0)
(1.74092 0.549149 0)
(1.66473 0.682324 0)
(1.5689 0.830071 0)
(1.46173 0.972522 0)
(1.34717 1.10509 0)
(1.22766 1.22755 0)
(1.10517 1.33976 0)
(0.981478 1.44065 0)
(0.85803 1.52805 0)
(0.735662 1.59888 0)
(0.614283 1.64977 0)
(0.492719 1.67803 0)
(0.3689 1.68244 0)
(0.24051 1.66302 0)
(0.107009 1.61323 0)
(1.88554 0.0347682 0)
(1.87819 0.160234 0)
(1.85965 0.287507 0)
(1.83191 0.409952 0)
(1.79369 0.532012 0)
(1.73444 0.678499 0)
(1.65105 0.853457 0)
(1.5538 1.02511 0)
(1.44785 1.18279 0)
(1.3357 1.32596 0)
(1.21911 1.45552 0)
(1.09955 1.57175 0)
(0.978309 1.67407 0)
(0.856364 1.76111 0)
(0.734231 1.83102 0)
(0.611837 1.88197 0)
(0.488505 1.91268 0)
(0.363116 1.92274 0)
(0.234509 1.91191 0)
(0.103152 1.87256 0)
(1.88576 0.0387864 0)
(1.87767 0.184848 0)
(1.86175 0.326304 0)
(1.83379 0.471015 0)
(1.79415 0.622612 0)
(1.72748 0.816897 0)
(1.64226 1.02143 0)
(1.54648 1.2107 0)
(1.4432 1.38094 0)
(1.33409 1.53356 0)
(1.22045 1.67003 0)
(1.10339 1.79097 0)
(0.983874 1.8962 0)
(0.862612 1.98494 0)
(0.740014 2.05616 0)
(0.61613 2.10888 0)
(0.490684 2.14254 0)
(0.363183 2.15702 0)
(0.233182 2.15187 0)
(0.101815 2.11862 0)
(1.88566 0.0431925 0)
(1.87843 0.204748 0)
(1.86295 0.364871 0)
(1.83725 0.527399 0)
(1.79297 0.721603 0)
(1.72305 0.954774 0)
(1.63936 1.18072 0)
(1.54676 1.38449 0)
(1.44711 1.56618 0)
(1.3415 1.72812 0)
(1.23088 1.87208 0)
(1.11607 1.99891 0)
(0.997808 2.10872 0)
(0.876653 2.20112 0)
(0.753 2.27554 0)
(0.627048 2.33146 0)
(0.498848 2.36864 0)
(0.368365 2.38706 0)
(0.235667 2.38605 0)
(0.102416 2.35639 0)
(1.88543 0.0473248 0)
(1.87993 0.220754 0)
(1.86409 0.400492 0)
(1.8408 0.583844 0)
(1.79194 0.823959 0)
(1.72281 1.08565 0)
(1.64284 1.32838 0)
(1.55476 1.54515 0)
(1.4596 1.73804 0)
(1.35802 1.90979 0)
(1.25066 2.0623 0)
(1.13807 2.19654 0)
(1.02081 2.31277 0)
(0.899325 2.41082 0)
(0.774029 2.49031 0)
(0.645268 2.55091 0)
(0.513374 2.59246 0)
(0.378703 2.6149 0)
(0.24177 2.61732 0)
(0.104751 2.58975 0)
(1.88545 0.0500859 0)
(1.88062 0.236549 0)
(1.86692 0.428964 0)
(1.84339 0.643645 0)
(1.79308 0.922963 0)
(1.72772 1.2056 0)
(1.6532 1.46255 0)
(1.57088 1.69167 0)
(1.48118 1.89601 0)
(1.38438 2.07846 0)
(1.28076 2.24092 0)
(1.17065 2.38438 0)
(1.05437 2.50913 0)
(0.932264 2.61503 0)
(0.804737 2.7017 0)
(0.672258 2.76877 0)
(0.535419 2.81595 0)
(0.39496 2.84298 0)
(0.251864 2.84867 0)
(0.108915 2.82228 0)
(1.88566 0.0514942 0)
(1.88075 0.251529 0)
(1.87081 0.452164 0)
(1.84579 0.704463 0)
(1.79772 1.01337 0)
(1.73835 1.31205 0)
(1.67087 1.58171 0)
(1.59566 1.82297 0)
(1.51263 2.0393 0)
(1.42165 2.23358 0)
(1.32266 2.40764 0)
(1.21564 2.56241 0)
(1.10067 2.6981 0)
(0.977894 2.81445 0)
(0.847624 2.91088 0)
(0.710395 2.98674 0)
(0.567032 3.04139 0)
(0.418682 3.07418 0)
(0.266896 3.08348 0)
(0.115265 3.05774 0)
(1.88582 0.0522139 0)
(1.88125 0.262874 0)
(1.87456 0.473441 0)
(1.84935 0.761573 0)
(1.80652 1.09169 0)
(1.75501 1.40318 0)
(1.69615 1.68451 0)
(1.62959 1.93784 0)
(1.55475 2.16676 0)
(1.47109 2.37408 0)
(1.3781 2.56155 0)
(1.27538 2.72998 0)
(1.16258 2.87942 0)
(1.03952 3.00936 0)
(0.906258 3.11884 0)
(0.763252 3.20667 0)
(0.611466 3.27156 0)
(0.452476 3.31211 0)
(0.288573 3.32601 0)
(0.124498 3.30074 0)
(1.88584 0.0526958 0)
(1.8824 0.269306 0)
(1.87793 0.493528 0)
(1.85499 0.810741 0)
(1.81963 1.15567 0)
(1.77762 1.47753 0)
(1.72902 1.76959 0)
(1.67289 2.03479 0)
(1.60817 2.27677 0)
(1.53386 2.49827 0)
(1.44896 2.70094 0)
(1.3525 2.88552 0)
(1.24359 3.05191 0)
(1.12144 3.19926 0)
(0.985578 3.32607 0)
(0.836073 3.43034 0)
(0.67378 3.50966 0)
(0.500622 3.56135 0)
(0.319854 3.58182 0)
(0.138001 3.55746 0)
(1.88577 0.0529833 0)
(1.88392 0.271377 0)
(1.88122 0.510941 0)
(1.86294 0.84907 0)
(1.83669 1.20385 0)
(1.80567 1.5339 0)
(1.76903 1.83552 0)
(1.72533 2.11209 0)
(1.67306 2.36723 0)
(1.61075 2.60366 0)
(1.53683 2.82308 0)
(1.4497 3.02625 0)
(1.34764 3.21298 0)
(1.22897 3.3822 0)
(1.09222 3.53182 0)
(0.936476 3.65878 0)
(0.761869 3.75902 0)
(0.570243 3.82766 0)
(0.365944 3.85859 0)
(0.158413 3.83653 0)
(1.88568 0.0529296 0)
(1.88548 0.27018 0)
(1.8848 0.523663 0)
(1.87291 0.874954 0)
(1.85696 1.23544 0)
(1.83822 1.57139 0)
(1.81521 1.881 0)
(1.78608 2.16787 0)
(1.74893 2.43566 0)
(1.70185 2.68714 0)
(1.64274 2.92421 0)
(1.56927 3.14786 0)
(1.47877 3.35815 0)
(1.36832 3.55402 0)
(1.23481 3.73309 0)
(1.07541 3.89126 0)
(0.888244 4.02242 0)
(0.673708 4.11817 0)
(0.436613 4.16753 0)
(0.190812 4.15113 0)
(1.88561 0.0524077 0)
(1.8869 0.266533 0)
(1.88872 0.530195 0)
(1.88428 0.887819 0)
(1.87934 1.25023 0)
(1.8739 1.58947 0)
(1.86601 1.90494 0)
(1.85354 2.20036 0)
(1.83434 2.47939 0)
(1.80616 2.74502 0)
(1.76649 2.99953 0)
(1.71237 3.24443 0)
(1.64024 3.48045 0)
(1.54572 3.70721 0)
(1.4236 3.92276 0)
(1.26789 4.12284 0)
(1.07254 4.29962 0)
(0.833215 4.44028 0)
(0.551853 4.52517 0)
(0.246269 4.52356 0)
(1.88558 0.0513852 0)
(1.88812 0.260898 0)
(1.89283 0.529898 0)
(1.89616 0.887934 0)
(1.90249 1.24856 0)
(1.91096 1.58812 0)
(1.91935 1.90673 0)
(1.92538 2.2081 0)
(1.9268 2.49596 0)
(1.92126 2.77355 0)
(1.90608 3.04366 0)
(1.87805 3.30862 0)
(1.83305 3.57031 0)
(1.76568 3.82989 0)
(1.66868 4.08729 0)
(1.53233 4.34012 0)
(1.34396 4.58156 0)
(1.0887 4.79637 0)
(0.755452 4.95372 0)
(0.354055 4.99606 0)
(1.88557 0.0499142 0)
(1.88912 0.253577 0)
(1.89679 0.522973 0)
(1.90764 0.876271 0)
(1.92498 1.2314 0)
(1.94746 1.56795 0)
(1.97277 1.88639 0)
(1.99862 2.19035 0)
(2.02283 2.48358 0)
(2.04321 2.76953 0)
(2.05731 3.05148 0)
(2.0622 3.33267 0)
(2.05409 3.61639 0)
(2.02772 3.90602 0)
(1.9754 4.2049 0)
(1.88539 4.51572 0)
(1.73911 4.83871 0)
(1.50693 5.1665 0)
(1.14597 5.46924 0)
(0.609433 5.6496 0)
(1.88556 0.0480959 0)
(1.88991 0.244875 0)
(1.90025 0.510289 0)
(1.91784 0.854372 0)
(1.94541 1.2003 0)
(1.98147 1.5302 0)
(2.02372 1.84473 0)
(2.06999 2.14734 0)
(2.11831 2.44162 0)
(2.16686 2.73108 0)
(2.21383 3.01931 0)
(2.2572 3.31013 0)
(2.29456 3.60797 0)
(2.32264 3.91819 0)
(2.33661 4.24765 0)
(2.32851 4.60571 0)
(2.2837 5.00563 0)
(2.1723 5.46658 0)
(1.92505 6.01396 0)
(1.37488 6.58489 0)
(-7.50906 5.51658 0)
(-14.2197 0.510851 0)
(-15.5952 0.0423666 0)
(-15.8362 -0.0148594 6.78832e-21)
(-15.8347 -0.00688459 0)
(-15.8501 -0.00294206 0)
(-15.9329 0.0389431 0)
(-16.3203 0.151074 0)
(-17.2406 0.256742 0)
(-18.7978 0.249896 -6.23842e-20)
(-17.6093 -1.04203 0)
(-7.55704 -2.8603 0)
(4.73478 -2.19478 -8.83206e-20)
(14.1007 -1.62494 -2.4858e-19)
(21.0226 -1.12782 0)
(25.1675 -0.554784 1.84182e-19)
(26.6111 -0.165254 -8.19177e-20)
(26.5144 0.00774554 5.9018e-20)
(26.0174 0.0673762 0)
(25.3766 0.0905334 1.10921e-21)
(24.8129 0.0841028 6.1535e-22)
(24.3358 0.0736011 1.50339e-21)
(23.9777 0.0473154 -1.17535e-22)
(23.7414 0.0392058 -6.00729e-22)
(23.4836 0.0428661 0)
(23.2379 0.0322732 -1.71889e-22)
(23.0422 0.0274059 0)
(22.874 0.0156511 8.87577e-23)
(22.8456 -0.0200032 5.22688e-22)
(22.9999 -0.0367555 0)
(23.0846 0.00352691 2.07923e-21)
(22.9592 0.0197852 -1.24165e-21)
(22.8499 -0.00319381 2.30296e-22)
(22.8089 -0.00484172 -2.30298e-22)
(22.7688 0.00516246 0)
(22.7456 0.00325246 0)
(22.755 -0.00238 1.86241e-23)
(22.7718 -0.000302097 0)
(22.8816 -0.0699676 3.87687e-22)
(22.9983 -0.0643594 0)
(22.5673 0.122092 0)
(21.8307 0.205761 -2.11052e-21)
(21.3015 0.0695154 0)
(21.0905 -0.00858217 0)
(21.1884 -0.0845083 -2.18237e-22)
(21.1805 0.0265126 -1.89351e-21)
(20.629 0.156877 0)
(20.2101 0.0364488 4.7158e-22)
(19.8691 0.0754113 -9.53333e-22)
(19.1817 0.315247 1.47145e-21)
(18.7492 -0.778522 0)
(19.4843 -3.54631 -3.64436e-21)
(18.5804 2.25728 0)
(17.8772 0.585646 -1.96623e-22)
(18.7417 -1.45754 0)
(19.6764 -3.42547 0)
(13.3534 0.558247 -3.55577e-23)
(4.45998 0.521808 5.10076e-24)
(2.36738 0.181623 0)
(1.32989 0.12169 0)
(-8.1644 10.7965 0)
(-12.4537 2.87027 0)
(-15.6244 0.437889 -8.0634e-20)
(-16.0884 0.0441014 0)
(-16.1438 0.00248891 0)
(-16.1248 -0.00769707 -1.86807e-21)
(-16.0647 0.0145676 8.24937e-22)
(-15.9401 0.104494 0)
(-15.555 0.167743 5.22664e-23)
(-14.5433 0.0583653 7.91111e-21)
(-11.7234 -1.9729 -5.70961e-22)
(-5.04948 -7.11614 -3.35708e-19)
(4.27276 -6.94082 -3.33454e-20)
(12.4725 -5.3568 0)
(18.7655 -3.74173 0)
(22.4321 -1.83545 -1.42065e-19)
(23.7344 -0.458492 0)
(23.9389 0.0828146 0)
(23.891 0.252177 6.00064e-24)
(23.7679 0.271339 0)
(23.6891 0.22277 0)
(23.6394 0.179588 0)
(23.6208 0.112743 1.29994e-23)
(23.6454 0.0816752 -3.29515e-22)
(23.6263 0.115834 6.8598e-22)
(23.5609 0.0991245 1.39298e-22)
(23.5106 0.0819783 0)
(23.4749 0.0539266 0)
(23.4933 -0.0372696 5.60134e-22)
(23.5979 -0.104124 8.42917e-25)
(23.7093 -0.0101155 0)
(23.6645 0.076526 3.02579e-24)
(23.5953 0.0440056 -3.89287e-22)
(23.5493 0.0272845 0)
(23.5114 0.0214426 0)
(23.4946 0.00381393 -1.6229e-22)
(23.4969 -0.00501807 0)
(23.517 -0.0313379 0)
(23.5464 -0.0578195 0)
(23.4241 0.132445 -9.87697e-23)
(22.9641 0.342464 1.7255e-22)
(22.5722 0.353787 -1.21173e-21)
(22.1859 0.283047 -1.85801e-23)
(21.8983 0.0385111 0)
(21.8583 -0.0338598 -6.24305e-22)
(21.754 0.142618 0)
(21.5023 0.271561 -1.39427e-21)
(21.1267 0.243079 8.36011e-22)
(20.6006 0.292145 1.16685e-21)
(20.2432 0.474743 -1.45426e-21)
(19.7094 -0.251842 -6.5571e-22)
(17.4394 -1.94972 -1.40366e-20)
(17.4755 1.27949 -9.30624e-21)
(15.4872 -0.152423 0)
(11.5573 -0.773294 0)
(5.34379 2.8923 0)
(3.64564 4.57684 0)
(3.45228 1.72829 7.83941e-22)
(2.20532 0.837164 -1.46295e-21)
(1.28896 0.590858 0)
(-7.47303 13.159 0)
(-7.25831 6.29797 -1.89758e-18)
(-13.4214 2.39425 0)
(-15.4775 0.343726 -1.53228e-19)
(-16.1213 0.0204681 7.4292e-21)
(-16.2863 -0.0267522 7.17322e-20)
(-16.3653 -0.042632 0)
(-16.3166 -0.030993 2.12959e-19)
(-15.9509 -0.104033 0)
(-14.9019 -0.709513 0)
(-8.60238 -3.28709 0)
(-1.45443 -10.1535 0)
(5.47584 -11.3689 0)
(11.9718 -9.30868 0)
(17.3301 -6.69776 0)
(20.2894 -3.40394 0)
(21.3811 -1.04756 0)
(21.9423 -0.14717 -1.87664e-20)
(22.3879 0.137903 0)
(22.7221 0.200334 0)
(22.9751 0.17105 0)
(23.1594 0.14054 0)
(23.3017 0.0792568 0)
(23.4255 0.0320797 0)
(23.5185 0.109521 0)
(23.5317 0.113684 0)
(23.5356 0.0922182 0)
(23.5507 0.0619186 0)
(23.5868 -0.0431021 1.08168e-21)
(23.6366 -0.144887 0)
(23.7032 -0.053607 -1.51956e-21)
(23.6949 0.0992101 0)
(23.6219 0.06474 0)
(23.572 0.0421887 0)
(23.5244 0.0305267 0)
(23.503 0.00708074 0)
(23.5036 -0.00580176 1.82233e-20)
(23.5339 -0.0314889 0)
(23.4732 -0.0507331 0)
(23.2738 0.195784 0)
(22.8012 0.541996 -2.65155e-21)
(22.5756 0.465825 3.06819e-22)
(22.2804 0.446312 -9.76071e-22)
(22.026 0.130533 0)
(21.9142 0.00649117 2.10465e-22)
(21.8025 0.194338 0)
(21.6669 0.367505 0)
(21.2208 0.333565 0)
(20.4959 0.519585 0)
(17.3392 1.29854 8.6097e-21)
(14.5313 1.51976 0)
(11.667 0.643342 4.54803e-21)
(7.84601 2.07298 0)
(4.65158 2.12975 0)
(2.03857 2.33546 -3.93015e-21)
(0.989676 3.7702 -3.75517e-21)
(2.46066 3.84848 6.72842e-21)
(2.66236 2.206 1.34138e-22)
(1.93689 1.34745 0)
(1.20014 1.01893 1.09371e-22)
(-6.86928 13.4633 0)
(-5.78188 8.57582 0)
(-9.11672 6.31415 0)
(-12.0499 1.96867 0)
(-14.4525 0.813348 5.68421e-20)
(-16.157 0.46813 0)
(-17.3604 0.337191 0)
(-18.1754 0.276676 -4.93325e-22)
(-18.63 0.128255 0)
(-17.4927 -2.12036 3.06834e-21)
(-4.67896 -9.6625 8.78408e-18)
(2.38963 -13.223 0)
(7.27774 -14.6212 0)
(12.0527 -12.6847 -3.06785e-22)
(16.2234 -9.44679 2.09588e-22)
(18.2091 -4.94306 -2.40909e-22)
(19.3082 -1.86698 -1.44154e-20)
(20.6094 -0.607576 0)
(21.5425 -0.139912 -2.41068e-20)
(22.3452 0.0830707 0)
(22.7578 0.101265 2.15179e-22)
(23.0098 0.0922733 -1.40452e-22)
(23.205 0.0495371 1.05222e-22)
(23.3137 -0.00519204 -3.72809e-20)
(23.3912 0.0831389 4.09844e-20)
(23.4596 0.112358 0)
(23.4684 0.0893078 0)
(23.4566 0.0577877 1.82016e-23)
(23.2891 -0.0621471 -3.55262e-23)
(23.1508 -0.175238 0)
(22.9584 -0.120484 -7.16762e-21)
(22.7695 0.155154 0)
(22.595 0.142373 0)
(22.3282 0.150999 0)
(21.9494 0.256143 2.32407e-20)
(21.564 0.181266 0)
(21.354 0.0117303 0)
(21.3507 -0.168156 -2.22341e-21)
(21.467 -0.131627 -2.76452e-21)
(21.3142 0.510413 3.2877e-21)
(21.2647 0.836573 -1.03612e-22)
(21.4018 0.703898 0)
(22.0832 0.571145 1.75407e-20)
(22.1179 0.21046 0)
(21.7902 0.0564913 4.838e-21)
(21.54 0.201191 -1.34919e-20)
(18.9891 0.941578 0)
(16.2161 1.84092 -9.74973e-21)
(13.3957 2.11979 0)
(10.5209 2.81532 9.39747e-21)
(7.51488 3.10685 4.79859e-21)
(4.44629 3.20969 -1.23236e-21)
(2.76758 3.26473 2.60832e-21)
(1.98855 2.954 -2.03433e-21)
(1.28535 2.89379 0)
(1.19954 3.46449 -1.9103e-21)
(1.95014 3.35266 -2.06676e-21)
(2.11116 2.4136 1.0858e-22)
(1.6614 1.72248 0)
(1.09009 1.38748 0)
(-6.42663 13.0464 -1.28684e-20)
(-5.27561 10.0642 -7.39488e-19)
(-7.255 8.43685 0)
(-9.57518 4.19222 -1.49584e-19)
(-12.2089 2.29004 8.39953e-20)
(-14.1958 1.43256 0)
(-15.3274 0.884365 0)
(-15.4688 0.405224 -4.69635e-22)
(-14.3285 -0.322814 9.63908e-22)
(-10.4642 -3.32398 1.11671e-21)
(-8.25825 -12.7647 -4.46798e-18)
(4.59711 -15.4752 1.93825e-21)
(8.78167 -17.0441 2.14193e-20)
(12.2564 -15.3535 0)
(15.1822 -11.7741 1.51158e-22)
(16.0074 -6.28422 -3.53391e-19)
(16.8932 -3.54748 0)
(20.2963 -2.10425 -4.12241e-20)
(21.6761 -1.03341 -3.95369e-20)
(22.184 -0.548464 0)
(22.5252 -0.199633 2.39098e-20)
(22.6494 -0.0962756 4.2153e-23)
(22.6744 -0.0295227 0)
(22.6415 -0.0134572 0)
(22.6029 0.0287594 8.85218e-21)
(22.6391 0.0872684 -4.50708e-24)
(22.6556 0.0944295 0)
(22.6035 0.125236 0)
(22.4877 0.0764671 -4.11644e-24)
(22.2234 0.0168741 0)
(21.8116 0.0866603 1.02666e-20)
(21.4028 0.261358 9.93466e-25)
(20.9942 0.310868 -8.0689e-21)
(20.5026 0.353215 1.86575e-20)
(20.0197 0.443462 -1.96524e-20)
(19.6653 0.357583 -9.39049e-21)
(19.3614 0.135005 0)
(19.1028 -0.0838137 9.04117e-24)
(18.7552 -0.040077 0)
(18.4636 0.390043 -4.47378e-21)
(18.444 0.615997 -2.78586e-21)
(18.3668 0.469993 -1.03341e-21)
(18.1202 0.488001 -3.60721e-21)
(17.622 0.514876 2.94449e-21)
(16.595 0.541595 -1.85917e-21)
(14.9317 1.14192 -8.67822e-21)
(12.9742 2.28272 4.08866e-20)
(10.4555 3.05958 1.22636e-23)
(7.51696 3.72921 -7.95024e-21)
(4.71501 4.32125 7.27082e-21)
(3.06046 4.31325 -4.13543e-21)
(2.33372 3.89025 0)
(1.97075 3.53298 -1.55839e-21)
(1.68651 3.21172 -5.94056e-22)
(1.36308 3.1106 0)
(1.33836 3.28349 -1.08748e-21)
(1.66455 3.11822 -1.30712e-21)
(1.72841 2.52584 5.82007e-24)
(1.41851 1.9989 0)
(0.976292 1.69578 -9.65854e-23)
(-5.91326 12.4035 -6.91213e-21)
(-4.9914 10.859 0)
(-5.9229 10.0787 -2.91983e-22)
(-7.49598 6.30879 0)
(-9.6749 3.91301 0)
(-11.3714 2.45846 -4.47838e-20)
(-12.082 1.28691 0)
(-11.4971 0.0912577 -7.10681e-20)
(-9.23103 -1.46988 9.36758e-20)
(-4.45207 -4.67728 -5.55382e-20)
(-1.84331 -14.5755 8.17667e-19)
(7.78946 -19.283 5.47202e-19)
(10.004 -18.8157 -5.44109e-20)
(12.4445 -17.3818 3.30487e-20)
(14.2084 -13.7242 0)
(15.1122 -8.71553 3.57993e-18)
(19.2161 -5.18759 0)
(20.3995 -2.94501 0)
(21.2895 -1.32016 1.28188e-19)
(21.6615 -0.653736 0)
(21.6873 -0.250001 0)
(21.6393 -0.0590853 -1.61892e-20)
(21.5471 0.000589361 -2.25724e-20)
(21.4839 0.00428261 0)
(21.4592 0.0178488 -9.19028e-21)
(21.4946 0.0594381 0)
(21.53 0.09711 7.03807e-21)
(21.4976 0.158025 0)
(21.3726 0.188894 5.65286e-21)
(21.0691 0.218763 0)
(20.5915 0.333557 4.10541e-21)
(20.0594 0.505043 -7.06711e-21)
(19.4983 0.597899 0)
(18.8831 0.65758 8.85844e-21)
(18.3103 0.695842 -8.90672e-21)
(17.8489 0.585096 5.77198e-21)
(17.4138 0.357587 7.55378e-24)
(16.9537 0.15526 -3.89709e-23)
(16.4145 0.187016 9.34998e-22)
(15.9712 0.493594 -8.33541e-24)
(15.6975 0.697372 0)
(15.2688 0.700209 1.95607e-21)
(14.5266 0.823917 3.23638e-21)
(13.528 1.03823 0)
(12.0898 1.3639 1.77436e-23)
(10.0083 2.19254 1.04532e-20)
(7.64435 3.4815 -1.97869e-20)
(5.08826 4.54209 -2.07111e-20)
(2.95565 5.08375 1.55438e-20)
(2.10768 5.00732 6.08705e-21)
(1.98248 4.55411 -4.07827e-21)
(1.90712 4.04707 -2.34002e-21)
(1.76454 3.65608 1.51959e-21)
(1.57635 3.36502 0)
(1.37939 3.22571 -9.78264e-23)
(1.34352 3.20766 0)
(1.46528 3.02004 -8.99175e-22)
(1.45518 2.60967 0)
(1.21675 2.20996 0)
(0.868902 1.95143 0)
(-5.55825 11.7034 3.70532e-21)
(-4.76466 10.9403 0)
(-4.75736 11.1859 0)
(-5.60216 8.05487 1.22562e-19)
(-7.11303 5.42468 0)
(-8.32988 3.42852 0)
(-8.61611 1.59209 0)
(-7.60155 -0.388889 0)
(-4.92072 -2.8647 0)
(-0.0996259 -6.75935 0)
(4.40826 -15.6831 0)
(9.71789 -20.3918 3.44583e-19)
(10.9498 -20.0802 0)
(12.6391 -18.8977 0)
(13.7338 -15.8157 4.29698e-19)
(20.3266 -8.81974 0)
(18.7681 -6.74009 1.27058e-22)
(19.5355 -3.80439 0)
(19.966 -1.87896 -8.03375e-23)
(20.191 -0.822819 0)
(20.1464 -0.279361 0)
(20.0375 -0.02537 -1.49667e-20)
(19.9384 0.0434151 -1.12138e-20)
(19.9026 0.0245724 1.03467e-20)
(19.9314 0.000628 -9.69997e-21)
(20.0111 0.0180364 0)
(20.0828 0.0763285 -2.33338e-24)
(20.0764 0.18098 4.41819e-24)
(19.9471 0.297957 0)
(19.6321 0.42988 -4.75916e-24)
(19.1373 0.611249 0)
(18.5478 0.8092 6.57438e-21)
(17.9051 0.941177 6.00799e-24)
(17.2246 1.01124 8.78398e-21)
(16.582 1.01186 0)
(16.0138 0.883715 -6.44799e-21)
(15.457 0.665825 3.58206e-21)
(14.8561 0.486307 1.40389e-21)
(14.1929 0.499922 9.60478e-22)
(13.5674 0.724016 2.38767e-21)
(12.9762 0.951971 0)
(12.186 1.1224 -2.64994e-21)
(11.0766 1.39573 -3.3897e-21)
(9.65796 1.79498 1.3761e-23)
(7.76999 2.41551 0)
(5.42758 3.46491 -1.0084e-20)
(3.0683 4.74322 1.71281e-20)
(1.57783 5.4785 -1.77769e-20)
(1.32636 5.3989 0)
(1.49438 5.00832 -5.60017e-21)
(1.64456 4.54776 0)
(1.66848 4.10456 0)
(1.59127 3.74315 0)
(1.46264 3.47029 0)
(1.3337 3.29973 0)
(1.28701 3.18981 0)
(1.30756 2.99586 0)
(1.25147 2.6868 3.74114e-22)
(1.05257 2.37869 3.35013e-23)
(0.772752 2.16392 2.74154e-23)
(-4.91621 10.9259 0)
(-4.4858 10.7269 -2.73264e-25)
(-3.86454 11.4913 1.05126e-19)
(-3.86754 9.28923 1.04112e-19)
(-4.66815 6.71486 0)
(-5.41748 4.31968 0)
(-5.39062 1.89007 0)
(-4.20151 -0.807236 -1.82575e-20)
(-1.55368 -4.07943 0)
(2.71312 -8.55533 0)
(7.23391 -16.3185 0)
(11.1319 -21.0557 1.74624e-19)
(11.7037 -20.8791 0)
(12.7974 -20.0288 0)
(13.7423 -17.9553 -5.38303e-19)
(18.3298 -12.1814 0)
(17.0602 -7.74528 0)
(17.5227 -4.52457 0)
(17.8115 -2.35541 -4.99966e-20)
(17.9794 -1.02025 -3.20413e-20)
(17.9631 -0.313113 0)
(17.8889 -0.00130238 -1.30607e-20)
(17.8568 0.0635021 -1.03657e-20)
(17.9118 0.00994553 -1.0036e-20)
(18.0413 -0.0524412 -1.02123e-20)
(18.2034 -0.0540276 0)
(18.3303 0.0271226 0)
(18.354 0.187674 0)
(18.2271 0.39564 0)
(17.9112 0.632706 0)
(17.4185 0.894085 0)
(16.813 1.14023 -6.34466e-21)
(16.1418 1.31241 0)
(15.4381 1.39533 0)
(14.7561 1.37761 8.67634e-21)
(14.1137 1.24281 6.98306e-21)
(13.4654 1.04079 4.03256e-24)
(12.7612 0.885713 0)
(11.982 0.899344 0)
(11.1605 1.1048 0)
(10.2566 1.39741 0)
(9.124 1.72972 0)
(7.68707 2.16818 0)
(5.92017 2.76698 0)
(3.78727 3.61259 0)
(1.65138 4.6691 0)
(0.540288 5.40817 0)
(0.584951 5.50909 0)
(0.940857 5.26234 0)
(1.23025 4.90282 -1.03174e-20)
(1.40214 4.50945 0)
(1.45728 4.12937 0)
(1.42527 3.80259 0)
(1.3447 3.54341 0)
(1.25565 3.35493 -9.79925e-22)
(1.20275 3.20243 0)
(1.17341 3.0107 0)
(1.09252 2.7627 0)
(0.91908 2.51916 0)
(0.688985 2.34208 3.62229e-24)
(-4.98461 10.1254 -4.45387e-21)
(-4.4007 10.4579 0)
(-2.90959 11.0522 8.4318e-20)
(-2.15145 9.88402 0)
(-2.37417 7.747 0)
(-2.7873 5.15166 0)
(-2.58433 2.25139 -3.06076e-20)
(-1.39581 -1.03737 0)
(0.968327 -4.9468 -6.25259e-20)
(4.66685 -9.84361 0)
(9.11245 -16.8405 1.28972e-19)
(11.9934 -21.3377 -9.12347e-20)
(12.2285 -21.3169 0)
(12.8638 -20.8224 0)
(13.481 -19.4749 9.88133e-19)
(15.5119 -14.1971 -5.48938e-19)
(14.4763 -8.79841 3.21547e-19)
(14.8887 -5.28396 -1.26629e-19)
(15.1606 -2.86013 -4.27543e-20)
(15.3161 -1.27835 0)
(15.3405 -0.398032 1.57935e-20)
(15.3334 -0.0232543 -1.0298e-20)
(15.4032 0.0296726 0)
(15.5868 -0.0659934 9.67839e-21)
(15.8475 -0.164495 0)
(16.1131 -0.17277 -1.12363e-20)
(16.3037 -0.0565821 1.02551e-20)
(16.3569 0.173493 0)
(16.2365 0.478247 0)
(15.9274 0.82007 0)
(15.4514 1.16696 -3.06416e-21)
(14.8607 1.47248 -6.2822e-21)
(14.2008 1.68773 1.66206e-20)
(13.5081 1.79023 0)
(12.8186 1.77226 -8.95422e-21)
(12.1373 1.6439 1.50612e-20)
(11.4267 1.46586 5.3737e-21)
(10.6381 1.3454 -6.85766e-21)
(9.73584 1.39009 2.83899e-21)
(8.70956 1.6338 4.01516e-21)
(7.52349 2.02077 -2.84488e-21)
(6.10579 2.50344 1.00522e-23)
(4.41642 3.10457 4.22057e-21)
(2.49396 3.85825 5.03667e-21)
(0.735207 4.65847 6.35792e-21)
(-0.0558174 5.1716 -9.22013e-21)
(0.0253347 5.34688 0)
(0.39157 5.29457 -1.25984e-20)
(0.75147 5.0857 -2.30976e-23)
(1.02268 4.79065 0)
(1.19361 4.45971 0)
(1.26986 4.13197 0)
(1.27063 3.83857 0)
(1.22348 3.5945 2.85848e-21)
(1.16038 3.39957 0)
(1.10708 3.22979 0)
(1.05479 3.04528 9.71678e-22)
(0.963368 2.83728 3.31653e-22)
(0.809396 2.63953 7.69321e-23)
(0.616895 2.49291 1.90708e-24)
(-4.04662 9.39807 0)
(-3.18055 9.38653 0)
(-1.54852 10.5932 0)
(-0.303752 9.89515 0)
(-0.203513 8.55156 0)
(-0.49461 5.9722 0)
(-0.258888 2.72476 0)
(0.823817 -1.02882 0)
(2.8894 -5.43248 0)
(6.04259 -10.7574 0)
(10.5195 -17.4997 0)
(12.5176 -21.4099 0)
(12.554 -21.5113 0)
(12.8706 -21.3061 0)
(13.1605 -20.485 0)
(13.0677 -15.374 0)
(12.2302 -9.81941 0)
(12.3673 -6.0592 0)
(12.4912 -3.38702 0)
(12.5498 -1.57451 0)
(12.5421 -0.526548 0)
(12.5635 -0.0941185 0)
(12.7237 -0.0679107 0)
(13.0393 -0.216111 0)
(13.4335 -0.346416 0)
(13.7981 -0.34465 0)
(14.0436 -0.176057 1.18989e-20)
(14.1196 0.13666 0)
(14.009 0.541779 0)
(13.7176 0.984973 0)
(13.2748 1.4167 0)
(12.725 1.7857 0)
(12.1078 2.04711 0)
(11.4538 2.17758 0)
(10.7836 2.17586 0)
(10.0912 2.0694 0)
(9.33907 1.92938 0)
(8.47092 1.86406 0)
(7.4393 1.97488 0)
(6.22193 2.29768 0)
(4.8115 2.79058 0)
(3.20753 3.40039 0)
(1.49447 4.09279 0)
(0.126316 4.70018 0)
(-0.367793 4.99961 0)
(-0.298525 5.11889 0)
(-0.0305192 5.158 0)
(0.297074 5.09402 0)
(0.605865 4.92453 1.00553e-20)
(0.850843 4.68168 8.65626e-21)
(1.01633 4.40259 0)
(1.10323 4.11946 0)
(1.12463 3.8575 0)
(1.10199 3.62979 0)
(1.05811 3.43647 1.24914e-21)
(1.00832 3.26316 -5.473e-22)
(0.947727 3.08869 4.58066e-22)
(0.85489 2.90912 0)
(0.717794 2.74442 8.84239e-23)
(0.554861 2.62175 0)
(-4.46901 8.44407 5.40316e-21)
(-3.14645 8.79798 0)
(1.9681 8.84067 -8.46041e-19)
(1.4956 9.47492 7.67961e-20)
(1.75095 9.17816 0)
(1.3996 6.84579 0)
(1.55366 3.34551 0)
(2.5004 -0.794376 3.68799e-21)
(4.35304 -5.59193 -2.25968e-20)
(7.03159 -11.2468 0)
(11.5909 -18.4045 -9.36872e-20)
(12.8001 -21.3417 0)
(12.7344 -21.547 0)
(12.8425 -21.5547 2.30165e-20)
(12.9524 -21.1483 3.37888e-19)
(11.6043 -15.9965 2.94797e-20)
(10.6371 -10.645 -3.66065e-22)
(10.3357 -6.72384 0)
(10.1558 -3.84933 -5.42573e-20)
(9.98737 -1.83845 3.20582e-20)
(9.82788 -0.646121 7.04976e-23)
(9.78544 -0.181644 -6.76762e-21)
(9.9794 -0.213888 4.55186e-21)
(10.3914 -0.433429 8.55952e-21)
(10.8857 -0.592079 0)
(11.3164 -0.563299 -9.53084e-24)
(11.593 -0.326562 1.35907e-20)
(11.6835 0.0765685 0)
(11.5899 0.580396 6.16324e-21)
(11.3324 1.11813 1.3828e-21)
(10.9422 1.63031 3.05392e-21)
(10.456 2.06316 -6.65445e-21)
(9.90483 2.37411 0)
(9.30951 2.54206 0)
(8.67707 2.57267 0)
(7.99073 2.50636 0)
(7.20389 2.42564 -7.03489e-21)
(6.2566 2.44148 5.22027e-21)
(5.10019 2.64836 -7.88749e-24)
(3.73379 3.06887 4.65448e-21)
(2.21667 3.64784 6.09368e-21)
(0.714881 4.27934 0)
(-0.304449 4.74 -4.40188e-21)
(-0.571714 4.90152 0)
(-0.489492 4.95149 0)
(-0.301416 4.98688 0)
(-0.0532302 4.98896 0)
(0.224135 4.92319 0)
(0.488123 4.78096 0)
(0.705707 4.57884 -7.87703e-21)
(0.860975 4.34244 0)
(0.952117 4.09727 -2.67789e-21)
(0.988109 3.86369 -2.10374e-21)
(0.983815 3.65296 1.64472e-21)
(0.954755 3.46678 1.32124e-21)
(0.910837 3.29761 0)
(0.850047 3.13461 4.42318e-22)
(0.76135 2.97669 3.18563e-22)
(0.639923 2.83655 0)
(0.501217 2.73254 5.48562e-24)
(-3.38884 8.05948 4.08786e-21)
(-0.747616 6.1958 0)
(0.236348 7.83439 0)
(2.13601 8.65299 -9.13477e-20)
(3.32546 9.51627 0)
(2.72688 7.8041 7.08738e-20)
(2.77874 4.11927 3.57966e-20)
(3.63624 -0.374172 0)
(5.44492 -5.55593 -1.22905e-20)
(7.89204 -11.2977 5.50686e-20)
(12.3839 -19.4402 2.79476e-19)
(12.9389 -21.1853 0)
(12.8224 -21.4822 0)
(12.8005 -21.6379 0)
(12.8369 -21.4739 -9.21057e-20)
(11.0244 -16.2454 -1.74892e-22)
(9.5888 -11.1734 0)
(8.82141 -7.19642 0)
(8.28885 -4.17393 3.98009e-20)
(7.82266 -1.99519 0)
(7.41071 -0.681745 -7.42574e-21)
(7.19283 -0.223385 0)
(7.32703 -0.365157 2.35853e-21)
(7.75752 -0.685959 8.2176e-21)
(8.2795 -0.874766 1.37032e-20)
(8.72128 -0.81013 1.61206e-20)
(9.00219 -0.500256 0)
(9.10523 -0.00911505 0)
(9.0423 0.585454 -6.66907e-21)
(8.83689 1.20854 0)
(8.51723 1.79552 -3.22314e-21)
(8.11128 2.29174 -6.97896e-21)
(7.64027 2.65667 0)
(7.11489 2.87259 -1.06314e-20)
(6.52863 2.95269 -1.05995e-20)
(5.85151 2.94857 -9.23298e-24)
(5.03204 2.95167 -7.84261e-21)
(4.01004 3.07341 -6.07046e-21)
(2.76336 3.38913 0)
(1.37105 3.88105 -5.25247e-21)
(0.0841298 4.41753 6.33361e-21)
(-0.64022 4.75462 -7.53261e-21)
(-0.749157 4.83731 4.39298e-21)
(-0.641449 4.84387 -5.10806e-21)
(-0.486436 4.8521 5.97648e-21)
(-0.298338 4.85963 6.99723e-21)
(-0.0774887 4.84245 0)
(0.159555 4.77705 8.18165e-21)
(0.386308 4.65461 -7.91171e-21)
(0.579001 4.48347 -7.18414e-21)
(0.72335 4.28164 0)
(0.816026 4.06844 0)
(0.862031 3.86016 0)
(0.871095 3.66673 0)
(0.853797 3.4911 0)
(0.816973 3.33028 5.48143e-22)
(0.760454 3.17935 4.25347e-22)
(0.679119 3.03888 0)
(0.572543 2.91756 3.75896e-24)
(0.4544 2.82816 6.78559e-24)
(-2.63753 6.5684 0)
(-1.45904 6.35056 0)
(-1.20147 6.5051 4.46167e-19)
(3.9366 6.91967 0)
(3.42034 9.61426 0)
(3.12717 8.81939 -4.59091e-20)
(3.28782 4.99927 7.276e-20)
(4.21028 0.17148 0)
(6.07482 -5.4582 0)
(8.72857 -11.4162 4.64295e-23)
(12.9877 -20.4555 0)
(13.01 -20.9928 0)
(12.8543 -21.3518 4.75782e-21)
(12.7561 -21.6051 1.5347e-21)
(12.7251 -21.5667 6.5699e-20)
(10.6036 -16.2484 -2.5852e-20)
(8.83991 -11.4121 -2.82652e-20)
(7.70728 -7.4679 -1.24377e-22)
(6.86783 -4.34602 -2.78665e-20)
(6.12169 -2.01197 0)
(5.43266 -0.574309 0)
(4.95779 -0.142266 4.54835e-21)
(4.91474 -0.449755 -1.65269e-21)
(5.23704 -0.911968 1.69863e-20)
(5.68331 -1.1495 1.50355e-20)
(6.08046 -1.06186 0)
(6.34891 -0.691778 -1.60481e-20)
(6.46881 -0.125492 1.20498e-20)
(6.44841 0.547926 -6.82341e-21)
(6.30729 1.2469 0)
(6.06745 1.90363 -3.47448e-21)
(5.74837 2.46331 7.35121e-21)
(5.36201 2.88771 0)
(4.90723 3.16372 -1.11954e-20)
(4.36536 3.31202 1.12399e-20)
(3.69814 3.39251 1.02881e-20)
(2.85127 3.50219 -1.72855e-20)
(1.78946 3.73939 0)
(0.586766 4.12579 -5.81624e-21)
(-0.451691 4.5324 0)
(-0.920913 4.74635 6.51164e-21)
(-0.922426 4.77909 9.15587e-24)
(-0.79245 4.76576 4.28744e-21)
(-0.6431 4.75465 -4.93815e-21)
(-0.483063 4.75006 0)
(-0.305341 4.74237 -6.39344e-21)
(-0.108835 4.7147 -6.99286e-21)
(0.0969111 4.65057 -8.14741e-24)
(0.29492 4.54235 7.07064e-21)
(0.467141 4.39518 0)
(0.601503 4.22137 0)
(0.693805 4.03509 0)
(0.746238 3.84946 2.03192e-21)
(0.765013 3.67312 -1.64627e-21)
(0.757292 3.50986 1.33592e-21)
(0.728024 3.3596 -5.44727e-22)
(0.678106 3.22076 4.25499e-22)
(0.605815 3.09496 0)
(0.513381 2.98857 9.45183e-23)
(0.413121 2.91075 0)
(-2.00178 5.5178 0)
(-1.04646 5.78391 0)
(0.63255 4.76481 1.4303e-19)
(0.796899 5.90966 0)
(1.26078 8.89072 6.08146e-20)
(1.98215 9.20544 -3.50465e-20)
(2.96803 5.75677 -1.10552e-20)
(4.21075 0.753215 -2.07139e-23)
(6.1703 -5.30094 0)
(9.00402 -11.7616 -2.4852e-20)
(13.0634 -20.4071 -2.2158e-19)