/*--------------------------------*- C++ -*----------------------------------*\
| =========                 |                                                 |
| \\      /  F ield         | OpenFOAM: The Open Source CFD Toolbox           |
|  \\    /   O peration     | Version:  v1912                                 |
|   \\  /    A nd           | Website:  www.openfoam.com                      |
|    \\/     M anipulation  |                                                 |
\*---------------------------------------------------------------------------*/
FoamFile
{
    version     2.0;
    format      ascii;
    class       surfaceScalarField;
    location    "6";
    object      alphaPhi0.water;
}
// * * * * * * * * * * * * * * * * * * * * * * * * * * * * * * * * * * * * * //

dimensions      [0 3 -1 0 0 0 0];
oriented        oriented;


internalField   nonuniform List<scalar> 
40282
(
0.00331079
0.00108117
2.0491
-2.05769
2.05593
0.00175994
-2.05303
2.04947
0.00355134
-2.04512
2.04002
0.00509924
-2.03398
2.02885
0.00513281
-2.02514
2.02136
0.00378482
-2.01788
2.01547
0.00241352
-2.01263
2.00659
0.00603706
-1.99471
1.97471
0.0200067
-1.94449
1.90227
0.0422221
-1.84659
1.77637
0.0702288
-1.69094
1.59019
0.100745
-1.47449
1.34473
0.129762
-1.20268
1.05139
0.15129
-0.895145
0.738937
0.156207
-0.587733
0.445906
0.141827
-0.317071
0.204155
0.112915
-0.10953
0.0350822
0.0744476
0.0178056
-0.0483642
0.0305585
0.0568131
-0.0422495
-0.0145636
-0.00212221
0.00283118
1.97922
-1.97674
1.9739
-0.00644021
0.00928459
-1.96919
1.96362
-0.00951066
0.015082
-1.9577
1.95039
-0.0114624
0.0187721
-1.94245
1.9336
-0.0126002
0.0214459
-1.92186
1.90499
-0.0129066
0.029778
-1.88058
1.8477
-0.0195882
0.0524738
-1.80683
1.75913
-0.037407
0.0851
-1.70573
1.6476
-0.066058
0.124188
-1.58552
1.52007
-0.102873
0.168316
-1.4518
1.3812
-0.144734
0.215332
-1.30875
1.23492
-0.187515
0.261349
-1.16018
1.08498
-0.225539
0.300737
-1.00966
0.934339
-0.251477
0.326797
-0.85893
0.783228
-0.257854
0.333556
-0.707066
0.630423
-0.241884
0.318527
-0.553457
0.476476
-0.206491
0.283471
-0.399917
0.324343
-0.156688
0.232262
-0.250487
0.179296
-0.0962559
0.167447
-0.111936
0.0502836
-0.0219331
0.0835858
-0.00371465
0.00481696
1.90789
-1.90543
1.90173
-0.0133321
0.0170284
-1.89683
1.88997
-0.0208281
0.0276899
-1.88194
1.87211
-0.0271417
0.0369634
-1.85714
1.83457
-0.0355899
0.0581585
-1.8044
1.76764
-0.0593495
0.0961007
-1.72541
1.67856
-0.0958591
0.142707
-1.62779
1.57367
-0.138818
0.19293
-1.51678
1.45767
-0.185323
0.244434
-1.39693
1.33514
-0.234002
0.295784
-1.27288
1.21066
-0.282945
0.345167
-1.14891
1.08797
-0.328799
0.389743
-1.02803
0.969148
-0.366782
0.425665
-0.911211
0.853949
-0.391454
0.448716
-0.796962
0.739766
-0.398211
0.455408
-0.681855
0.622768
-0.384989
0.444076
-0.562129
0.499671
-0.352733
0.415191
-0.435231
0.368704
-0.304072
0.370599
-0.299991
0.228937
-0.240912
0.311967
-0.155346
0.0790363
-0.158054
0.234364
-0.00544862
0.00608435
1.83998
-1.83758
1.83261
-0.0208079
0.0257702
-1.82669
1.81878
-0.0349366
0.042844
-1.80514
1.78391
-0.0522819
0.0735123
-1.75563
1.72156
-0.0885844
0.122658
-1.68281
1.64024
-0.137659
0.180224
-1.59452
1.54615
-0.19192
0.240289
-1.49558
1.44321
-0.247559
0.299928
-1.38942
1.33458
-0.302591
0.357434
-1.27905
1.2232
-0.355577
0.411431
-1.16735
1.1118
-0.404816
0.460364
-1.05679
1.00247
-0.447929
0.502245
-0.948924
0.896117
-0.481898
0.534705
-0.843924
0.792122
-0.503536
0.555338
-0.740411
0.688433
-0.510252
0.562229
-0.635804
0.582132
-0.500759
0.554431
-0.527044
0.470195
-0.475321
0.53217
-0.411275
0.350005
-0.435358
0.496628
-0.286138
0.219464
-0.382319
0.448993
-0.149799
0.07687
-0.311265
0.384194
-0.0072281
0.00853425
1.77336
-1.7706
1.76669
-0.0302497
0.0341572
-1.75807
1.74208
-0.0545074
0.0704957
-1.71899
1.69008
-0.0999812
0.128884
-1.65658
1.61939
-0.159612
0.196799
-1.5792
1.53651
-0.224035
0.266725
-1.49174
1.44525
-0.288799
0.335286
-1.39735
1.34831
-0.351619
0.400656
-1.2984
1.24786
-0.411022
0.461567
-1.19691
1.14577
-0.465745
0.516886
-1.09462
1.04362
-0.514403
0.565401
-0.99289
0.942491
-0.555345
0.605745
-0.89244
0.842699
-0.586721
0.636463
-0.79317
0.743703
-0.606727
0.656193
-0.694102
0.644133
-0.613967
0.663936
-0.593538
0.542047
-0.607799
0.65929
-0.489388
0.435301
-0.588482
0.642569
-0.379545
0.321908
-0.557041
0.614678
-0.262217
0.200339
-0.514381
0.576259
-0.136161
0.0694999
-0.455261
0.521923
-0.00939484
0.00985631
1.71074
-1.70774
1.69948
-0.0396902
0.0479542
-1.68381
1.66175
-0.0905154
0.11257
-1.63469
1.60368
-0.159871
0.190879
-1.56949
1.53269
-0.234744
0.271545
-1.4937
1.45287
-0.309395
0.350225
-1.41049
1.36681
-0.381252
0.424936
-1.32204
1.2764
-0.448846
0.494491
-1.23005
1.18318
-0.511097
0.557976
-1.13591
1.08839
-0.567013
0.614534
-1.04072
0.992994
-0.615554
0.663282
-0.945264
0.897562
-0.655595
0.703298
-0.849884
0.802195
-0.685997
0.733687
-0.754425
0.706476
-0.705744
0.753693
-0.658221
0.609513
-0.71414
0.762849
-0.560186
0.51007
-0.710978
0.761094
-0.458992
0.406786
-0.696625
0.74883
-0.353304
0.298417
-0.671877
0.726764
-0.242026
0.184059
-0.637149
0.695116
-0.124458
0.0631286
-0.586909
0.648238
-0.0104132
0.0117386
1.64832
-1.64315
1.62973
-0.0592945
0.0727072
-1.61031
1.5863
-0.136417
0.160434
-1.55868
1.52815
-0.222425
0.252957
-1.49519
1.46018
-0.308225
0.343238
-1.4234
1.38512
-0.390562
0.428849
-1.34552
1.30481
-0.467917
0.508631
-1.26314
1.22065
-0.53934
0.581829
-1.17747
1.13373
-0.604069
0.647813
-1.08951
1.04492
-0.661377
0.705974
-1.00001
0.954832
-0.710524
0.755697
-0.90943
0.863814
-0.750763
0.796379
-0.817978
0.771896
-0.781398
0.827481
-0.725522
0.678793
-0.801881
0.84861
-0.63163
0.583943
-0.811916
0.859603
-0.535632
0.486596
-0.811557
0.860593
-0.436734
0.385952
-0.801225
0.852007
-0.334168
0.281316
-0.781545
0.834397
-0.227349
0.172238
-0.752573
0.807684
-0.115966
0.058509
-0.70855
0.766007
-0.0142327
0.0182069
1.58669
-1.57849
1.56255
-0.0879603
0.103897
-1.54215
1.51833
-0.184977
0.208805
-1.49173
1.4628
-0.283322
0.312246
-1.43188
1.39923
-0.377734
0.410385
-1.36506
1.32953
-0.466443
0.501969
-1.29281
1.25503
-0.548587
0.586371
-1.2163
1.17673
-0.623579
0.663143
-1.13643
1.09546
-0.690907
0.731876
-1.0539
1.01181
-0.750069
0.79216
-0.96923
0.926207
-0.800562
0.843585
-0.882757
0.83889
-0.841904
0.885771
-0.794603
0.74988
-0.873687
0.918409
-0.704695
0.659011
-0.89564
0.941325
-0.612782
0.565958
-0.907701
0.954525
-0.518485
0.470308
-0.910058
0.958234
-0.421377
0.371646
-0.903134
0.952865
-0.32108
0.269655
-0.887415
0.93884
-0.217361
0.164202
-0.862703
0.915862
-0.110195
0.0553671
-0.823032
0.87786
-0.0234862
0.0301192
1.52703
-1.51644
1.4999
-0.120614
0.137153
-1.47999
1.4574
-0.232533
0.255122
-1.43257
1.40579
-0.340654
0.367432
-1.37729
1.34725
-0.442325
0.472363
-1.31582
1.28312
-0.536711
0.569413
-1.24926
1.21433
-0.623382
0.658308
-1.17843
1.14162
-0.70201
0.738816
-1.10398
1.06557
-0.772275
0.810691
-1.02642
0.986598
-0.833846
0.873671
-0.946123
0.905022
-0.886397
0.927497
-0.863314
0.821006
-0.92963
0.971938
-0.778098
0.734585
-0.96332
1.00683
-0.690454
0.645687
-0.987364
1.03213
-0.600263
0.554161
-1.00182
1.04792
-0.507356
0.459829
-1.00694
1.05446
-0.411563
0.362547
-1.0031
1.05212
-0.312781
0.262271
-0.99068
1.04119
-0.211036
0.159105
-0.969287
1.02122
-0.106523
0.0533589
-0.932734
0.985898
-0.0376147
0.0459973
1.47046
-1.45872
1.44268
-0.153848
0.169893
-1.42403
1.40323
-0.277269
0.298073
-1.38054
1.35618
-0.393499
0.417868
-1.33027
1.30294
-0.501582
0.528912
-1.27429
1.24439
-0.601282
0.631173
-1.21334
1.18119
-0.692455
0.724607
-1.148
1.11382
-0.774947
0.809121
-1.07871
1.0427
-0.848576
0.884585
-1.00583
0.968124
-0.913138
0.950844
-0.929607
0.890296
-0.968431
1.00774
-0.850203
0.809335
-1.01428
1.05515
-0.767697
0.725285
-1.05058
1.09299
-0.682099
0.638134
-1.0773
1.12127
-0.593386
0.547851
-1.09457
1.1401
-0.501529
0.454425
-1.10262
1.14973
-0.406547
0.357913
-1.1018
1.15043
-0.308546
0.258479
-1.09235
1.14241
-0.207755
0.156426
-1.07372
1.12505
-0.104562
0.0522652
-1.0395
1.0918
-0.0546855
0.063769
1.41672
-1.40476
1.38987
-0.185707
0.200594
-1.37295
1.35424
-0.318221
0.336927
-1.33392
1.3121
-0.441401
0.463226
-1.28885
1.26427
-0.55535
0.579938
-1.23839
1.21129
-0.660193
0.687299
-1.18299
1.15356
-0.755961
0.785394
-1.12302
1.09142
-0.842612
0.874219
-1.05877
1.02511
-0.920059
0.95372
-0.990454
0.954823
-0.988188
1.02382
-0.918228
0.880678
-1.04688
1.08443
-0.842178
0.802732
-1.09605
1.13549
-0.762341
0.721005
-1.13563
1.17697
-0.678725
0.635505
-1.16566
1.20888
-0.591349
0.546268
-1.18623
1.23131
-0.500276
0.453397
-1.19756
1.24444
-0.405659
0.357101
-1.19988
1.24844
-0.30777
0.257723
-1.19334
1.24338
-0.207027
0.155758
-1.17723
1.2285
-0.10401
0.0519167
-1.14487
1.19697
-0.0726859
0.0815937
1.36583
-1.35419
1.34088
-0.214993
0.228305
-1.32594
1.3095
-0.354838
0.371277
-1.29164
1.2724
-0.484138
0.503375
-1.25183
1.22997
-0.603589
0.625455
-1.20684
1.18247
-0.713505
0.737871
-1.1569
1.13014
-0.814005
0.840762
-1.10222
1.07316
-0.905113
0.934174
-1.04297
1.01167
-0.986807
1.01811
-0.979259
0.945746
-1.05904
1.09255
-0.911129
0.875407
-1.12176
1.15748
-0.838573
0.800623
-1.17492
1.21287
-0.761549
0.721346
-1.21851
1.25871
-0.680011
0.637546
-1.25252
1.29498
-0.593957
0.549259
-1.27703
1.32172
-0.503476
0.456642
-1.29214
1.33897
-0.408803
0.360016
-1.29797
1.34676
-0.310352
0.259894
-1.29451
1.34497
-0.208736
0.156986
-1.28089
1.33264
-0.104767
0.0522484
-1.25016
1.30268
-0.0899975
0.0980956
1.31756
-1.30697
1.29548
-0.240957
0.25245
-1.28266
1.26854
-0.38684
0.400959
-1.25313
1.23644
-0.521661
0.538347
-1.21849
1.19927
-0.646365
0.665581
-1.17881
1.15712
-0.761319
0.783013
-1.1342
1.11009
-0.866667
0.890785
-1.08477
1.05827
-0.962474
0.988974
-1.03059
1.00172
-1.04877
1.07764
-0.971652
0.940385
-1.12557
1.15684
-0.9079
0.874177
-1.19288
1.2266
-0.839196
0.802932
-1.2507
1.28697
-0.765363
0.726465
-1.29902
1.33792
-0.686222
0.64462
-1.33782
1.37942
-0.601657
0.557339
-1.36706
1.41138
-0.511689
0.464743
-1.38671
1.43366
-0.416557
0.367205
-1.39669
1.44604
-0.316783
0.265404
-1.39676
1.44813
-0.213203
0.160332
-1.38583
1.4387
-0.106963
0.0533118
-1.35665
1.4103
-0.10548
0.112364
1.27107
-1.26209
1.25252
-0.263178
0.272742
-1.24184
1.23
-0.414168
0.426007
-1.21697
1.20274
-0.554078
0.568316
-1.18728
1.1706
-0.683843
0.700519
-1.15271
1.13361
-0.803776
0.822876
-1.11331
1.09182
-0.914012
0.935504
-1.06914
1.04526
-1.01464
1.03851
-1.0202
0.993919
-1.10575
1.13203
-0.966412
0.937648
-1.18745
1.21621
-0.907593
0.876205
-1.25982
1.2912
-0.84344
0.809246
-1.32291
1.35711
-0.773571
0.736361
-1.37675
1.41396
-0.697567
0.657145
-1.42125
1.46167
-0.615061
0.571295
-1.45628
1.50004
-0.525846
0.478735
-1.48156
1.52867
-0.430014
0.379764
-1.49673
1.54698
-0.328103
0.275184
-1.50116
1.55408
-0.221199
0.166373
-1.49343
1.54825
-0.110965
0.0552865
-1.46587
1.52155
-0.11844
0.123917
1.22676
-1.21937
1.21171
-0.281498
0.289152
-1.20308
1.19338
-0.436951
0.446651
-1.18256
1.17059
-0.581635
0.593608
-1.15745
1.14314
-0.716271
0.730577
-1.12767
1.11106
-0.841047
0.857663
-1.0933
1.07442
-0.956062
0.974947
-1.05441
1.03327
-1.06145
1.08259
-1.01098
0.987536
-1.15739
1.18083
-0.962894
0.937011
-1.2441
1.26998
-0.909832
0.88129
-1.3218
1.35034
-0.851308
0.819797
-1.39066
1.42217
-0.786663
0.751805
-1.45076
1.48562
-0.715119
0.676504
-1.50203
1.54064
-0.635864
0.593116
-1.54418
1.58693
-0.5482
0.501084
-1.5767
1.62381
-0.451775
0.40033
-1.59873
1.65017
-0.346869
0.29158
-1.60906
1.66435
-0.234728
0.176664
-1.60555
1.66362
-0.117822
0.0587391
-1.57989
1.63897
-0.12858
0.132629
1.18405
-1.17809
1.17221
-0.296019
0.301901
-1.16542
1.15762
-0.455525
0.463323
-1.14875
1.13879
-0.604743
0.614711
-1.12771
1.11555
-0.744022
0.756183
-1.10232
1.08805
-0.873373
0.887648
-1.07275
1.05646
-0.992859
1.00916
-1.03917
1.02089
-1.10268
1.12096
-1.00162
0.981314
-1.20315
1.22346
-0.959946
0.937455
-1.29469
1.31718
-0.913767
0.888788
-1.3777
1.40268
-0.862407
0.834495
-1.45257
1.48048
-0.804905
0.773472
-1.51954
1.55098
-0.740019
0.704355
-1.57866
1.61432
-0.666285
0.625611
-1.6296
1.67027
-0.582148
0.535734
-1.67159
1.718
-0.486247
0.43363
-1.70321
1.75583
-0.377918
0.319266
-1.72225
1.78091
-0.257994
0.194627
-1.7252
1.78857
-0.129956
0.0651492
-1.70226
1.76706
-0.135935
0.13868
1.1428
-1.13856
1.1342
-0.307081
0.311449
-1.12895
1.12271
-0.470421
0.476659
-1.11544
1.10713
-0.623971
0.632283
-1.09779
1.08748
-0.767585
0.777896
-1.07624
1.06411
-0.901066
0.913193
-1.05115
1.03739
-1.02446
1.03822
-1.02286
1.00757
-1.13806
1.15335
-0.991528
0.974712
-1.2424
1.25922
-0.95708
0.938573
-1.33814
1.35664
-0.919106
0.89857
-1.42598
1.44652
-0.876829
0.853718
-1.50664
1.52975
-0.829044
0.80258
-1.58069
1.60716
-0.774065
0.743205
-1.64849
1.67935
-0.70967
0.673094
-1.70996
1.74653
-0.633089
0.589244
-1.76432
1.80817
-0.541152
0.48844
-1.80974
1.86245
-0.430813
0.368133
-1.84273
1.90541
-0.300531
0.228592
-1.85726
1.9292
-0.153717
0.0788744
-1.84
1.91484
-0.140815
0.142505
1.10269
-1.09975
1.09653
-0.315256
0.318469
-1.09242
1.08731
-0.482374
0.487478
-1.08121
1.07413
-0.64006
0.647135
-1.06615
1.05734
-0.787585
0.796396
-1.04778
1.03757
-0.924537
0.934751
-1.02678
1.01547
-1.05097
1.06228
-1.0037
0.99152
-1.16735
1.17953
-0.978935
0.965945
-1.27444
1.28743
-0.952525
0.938626
-1.37322
1.38712
-0.924172
0.909058
-1.4648
1.47991
-0.893147
0.876268
-1.5503
1.56718
-0.858211
0.838719
-1.63084
1.65033
-0.817484
0.794135
-1.70735
1.7307
-0.76823
0.739241
-1.78047
1.80946
-0.706541
0.66939
-1.85014
1.88729
-0.626924
0.578155
-1.91497
1.96374
-0.521998
0.457344
-1.971
2.03565
-0.38324
0.299356
-2.00918
2.09306
-0.20728
0.113882
-2.00902
2.10242
-0.143766
0.144752
1.06381
-1.06202
1.0595
-0.321322
0.323841
-1.05602
1.05154
-0.49229
0.496775
-1.04609
1.03976
-0.653891
0.660215
-1.03268
1.02496
-0.804757
0.812472
-1.01675
1.00817
-0.944284
0.952868
-0.999331
0.990348
-1.07259
1.08157
-0.981305
0.972269
-1.19034
1.19938
-0.963286
0.954382
-1.2986
1.30751
-0.945559
0.936796
-1.39872
1.40748
-0.928046
0.919236
-1.49219
1.501
-0.910267
0.901006
-1.58065
1.58991
-0.891284
0.880888
-1.66581
1.67621
-0.869552
0.856945
-1.74943
1.76204
-0.842648
0.826126
-1.83332
1.84984
-0.806691
0.783441
-1.91917
1.94242
-0.755184
0.720326
-2.00815
2.043
-0.676728
0.621537
-2.09951
2.1547
-0.551065
0.46118
-2.1866
2.27648
-0.349745
0.221965
-2.24707
2.37485
-0.145527
0.146245
1.02608
-1.02461
1.02225
-0.326252
0.328615
-1.01883
1.0144
-0.50124
0.505674
-1.00906
1.00296
-0.666468
0.672563
-0.996296
0.989253
-0.819932
0.826975
-0.982016
0.974763
-0.960893
0.968146
-0.967654
0.960831
-1.0896
1.09642
-0.954417
0.948511
-1.20698
1.21288
-0.943192
0.938517
-1.31443
1.31911
-0.934524
0.931232
-1.41365
1.41694
-0.928642
0.926737
-1.50651
1.50841
-0.925485
0.924839
-1.59505
1.59569
-0.924733
0.925085
-1.68147
1.68112
-0.925792
0.926726
-1.76826
1.76732
-0.927726
0.928581
-1.85835
1.85749
-0.929007
0.928602
-1.95556
1.95596
-0.926771
0.92258
-2.06535
2.06954
-0.914506
0.899939
-2.19643
2.21099
-0.874193
0.828985
-2.36406
2.40927
-0.753027
0.660617
-2.61563
2.70804
-3.39642e-139
3.52415e-136
-2.72574e-139
1.40656e-144
-5.89604e-147
1.4992e-144
2.54581e-149
-1.18854e-151
1.66963e-149
6.46841e-154
-4.49918e-156
3.9928e-154
4.15023e-158
-4.7268e-160
2.56379e-158
5.99403e-162
-7.90775e-164
3.09464e-162
1.05168e-165
-1.39042e-167
4.27352e-166
1.81394e-169
-2.3279e-171
5.67993e-170
2.93299e-173
-3.62687e-175
6.96365e-174
4.40248e-177
-5.24414e-179
7.89654e-178
6.12372e-181
-7.00936e-183
8.01519e-182
7.85634e-185
-8.62965e-187
7.16822e-186
9.28829e-189
-9.77733e-191
5.45424e-190
1.00761e-192
-1.0161e-194
3.25767e-194
1.00381e-196
-9.71982e-199
1.37185e-198
9.21868e-201
-8.59091e-203
-1.85207e-206
7.90363e-205
-7.16671e-207
-1.64723e-209
6.39594e-209
-5.61213e-211
-2.33868e-213
4.8362e-213
-4.08992e-215
-2.41009e-217
3.39168e-217
-2.75633e-219
-1.99415e-221
2.19427e-221
-1.70975e-223
-1.41897e-225
1.30335e-225
-9.71413e-228
-9.18822e-230
7.07472e-230
-5.03204e-232
-5.33984e-234
3.4939e-234
-2.3661e-236
-2.81119e-238
1.56196e-238
-1.00458e-240
-1.32099e-242
6.29157e-243
-3.83603e-245
-5.40975e-247
2.27535e-247
-1.3127e-249
-1.96882e-251
7.36422e-252
-4.01636e-254
-6.26256e-256
2.12891e-256
-1.09647e-258
-1.7877e-260
5.48341e-261
-2.66217e-263
-4.58127e-265
1.25419e-265
-5.73305e-268
-1.02561e-269
2.54191e-270
-1.09301e-272
-2.00887e-274
4.55758e-275
-1.84347e-277
-3.3898e-279
7.23285e-280
-2.75334e-282
-5.044e-284
1.01703e-284
-3.64468e-287
-6.74152e-289
1.26728e-289
-4.27452e-292
-8.07533e-294
1.39847e-294
-4.43658e-297
-8.69393e-299
1.36425e-299
-4.06463e-302
-8.35204e-304
1.17296e-304
-3.27671e-307
-7.09477e-309
8.85682e-310
-2.31504e-312
-5.3277e-314
5.84716e-315
-1.42614e-317
-3.4965e-319
3.35718e-320
-7.41098e-323
0
0
0
0
0
0
0
0
0
0
0
0
0
0
0
0
0
0
0
0
0
0
0
0
0
0
0
0
0
0
0
0
0
0
0
0
0
0
0
0
0
0
0
0
0
0
0
0
0
0
0
0
0
0
0
-2.03014e-133
8.1834e-131
-5.15444e-134
6.41876e-139
-2.93951e-141
-1.75072e-141
1.14266e-138
1.43847e-143
-7.57568e-146
-2.27359e-146
1.77875e-143
4.36833e-148
-2.84058e-150
-5.50033e-151
4.67308e-148
2.17255e-152
-2.01054e-154
-2.82924e-155
2.01831e-152
2.2081e-156
-2.71202e-158
-2.92546e-159
1.62085e-156
3.5128e-160
-4.62186e-162
-3.92951e-163
1.97617e-160
6.05623e-164
-7.82547e-166
-5.27873e-167
2.62425e-164
9.92907e-168
-1.23472e-169
-6.60911e-171
3.31572e-168
1.50377e-171
-1.79333e-173
-7.59603e-175
3.85439e-172
2.09311e-175
-2.38873e-177
-7.86562e-179
4.04401e-176
2.66424e-179
-2.90249e-181
-7.18838e-183
3.73701e-180
3.08779e-183
-3.20623e-185
-5.59799e-187
2.95837e-184
3.24936e-187
-3.21528e-189
-3.5736e-191
1.94307e-188
3.10686e-191
-2.93147e-193
-1.67111e-195
9.67058e-193
2.70142e-195
-2.43184e-197
-2.16433e-200
2.08948e-197
2.15102e-199
-1.88274e-201
1.24874e-206
-6.94562e-204
1.62706e-203
-1.38618e-205
1.99875e-210
-1.31395e-207
1.16305e-207
-9.59652e-210
2.0419e-214
-1.41664e-211
7.78093e-212
-6.19521e-214
1.65431e-218
-1.1947e-215
4.83791e-216
-3.704e-218
1.14012e-222
-8.47133e-220
2.77824e-220
-2.04017e-222
7.07408e-227
-5.33926e-224
1.4663e-224
-1.03047e-226
3.97739e-231
-3.04605e-228
7.0785e-229
-4.75101e-231
2.04085e-235
-1.57973e-232
3.11268e-233
-1.98983e-235
9.36128e-240
-7.35501e-237
1.24071e-237
-7.53879e-240
3.78727e-244
-3.03132e-241
4.46264e-242
-2.57309e-244
1.34907e-248
-1.10035e-245
1.44402e-246
-7.88824e-249
4.22522e-253
-3.51205e-250
4.19316e-251
-2.16834e-253
1.19036e-257
-1.00322e-254
1.09072e-255
-5.33532e-258
3.01254e-262
-2.57793e-259
2.537e-260
-1.17257e-262
6.77817e-267
-5.91429e-264
5.26592e-265
-2.29701e-267
1.33966e-271
-1.19669e-268
9.73423e-270
-4.00557e-272
2.29146e-276
-2.106e-273
1.60089e-274
-6.21546e-277
3.44573e-281
-3.25834e-278
2.34334e-279
-8.58154e-282
4.65715e-286
-4.52865e-283
3.05198e-284
-1.05382e-286
5.70185e-291
-5.69348e-288
3.53234e-289
-1.149e-291
6.28799e-296
-6.45454e-293
3.6252e-294
-1.10927e-296
6.20185e-301
-6.53991e-298
3.29007e-299
-9.45313e-302
5.44218e-306
-5.89146e-303
2.63006e-304
-7.08066e-307
4.23289e-311
-4.7091e-308
1.84328e-309
-4.63648e-312
2.88595e-316
-3.29767e-313
1.12632e-314
-2.64039e-317
1.69465e-321
-1.99072e-318
5.96881e-320
-1.28457e-322
0
-9.88131e-324
0
0
0
0
0
0
0
0
0
0
0
0
0
0
0
0
0
0
0
0
0
0
0
0
0
0
0
0
0
0
0
0
0
0
0
0
0
0
0
0
0
0
0
0
0
0
0
0
0
0
0
0
0
0
0
0
0
0
0
0
0
0
0
0
0
0
0
0
-2.62534e-128
6.97073e-126
-3.71603e-129
7.74457e-134
-4.12832e-136
-5.32639e-136
2.00278e-133
2.41276e-138
-1.52705e-140
-1.00479e-140
4.61417e-138
1.02465e-142
-7.17318e-145
-2.99804e-145
1.58984e-142
5.22312e-147
-4.01534e-149
-1.1983e-149
6.40106e-147
3.36672e-151
-3.18385e-153
-7.21184e-154
3.10671e-151
3.41633e-155
-4.0385e-157
-7.16577e-158
2.27784e-155
5.03572e-159
-6.39415e-161
-8.98551e-162
2.47183e-159
8.09834e-163
-1.01217e-164
-1.12865e-165
3.00437e-163
1.24221e-166
-1.49363e-168
-1.3209e-169
3.50503e-167
1.75724e-170
-2.02057e-172
-1.39561e-173
3.71767e-171
2.27005e-174
-2.49078e-176
-1.29941e-177
3.48565e-175
2.66779e-178
-2.78927e-180
-1.04046e-181
2.81896e-179
2.84703e-182
-2.83741e-184
-6.96818e-186
1.91648e-183
2.76183e-186
-2.6264e-188
-3.61356e-190
1.02763e-187
2.44019e-190
-2.21544e-192
-9.82168e-195
3.21183e-192
1.96933e-194
-1.7296e-196
2.46139e-201
-5.87753e-199
1.50251e-198
-1.28876e-200
5.4676e-205
-1.63267e-202
1.08945e-202
-9.06751e-205
6.23287e-209
-1.95539e-206
7.42329e-207
-5.97039e-209
5.44242e-213
-1.76637e-210
4.71324e-211
-3.6492e-213
3.9616e-217
-1.32372e-214
2.76816e-215
-2.05606e-217
2.55011e-221
-8.67906e-219
1.49466e-219
-1.06243e-221
1.47227e-225
-5.07211e-223
7.38203e-224
-5.01208e-226
7.7049e-230
-2.67372e-227
3.3232e-228
-2.15101e-230
3.62338e-234
-1.26652e-231
1.35871e-232
-8.37022e-235
1.51407e-238
-5.35264e-236
5.0276e-237
-2.94261e-239
5.58803e-243
-2.00952e-240
1.67729e-241
-9.308e-244
1.81915e-247
-6.67291e-245
5.02767e-246
-2.64224e-248
5.28121e-252
-1.96972e-249
1.35099e-250
-6.72088e-253
1.37325e-256
-5.18601e-254
3.25278e-255
-1.53134e-257
3.19628e-261
-1.22123e-258
7.01344e-260
-3.12393e-262
6.58972e-266
-2.56125e-263
1.3532e-264
-5.69954e-267
1.19077e-270
-4.74989e-268
2.33322e-269
-9.28181e-272
1.89896e-275
-7.81072e-273
3.58796e-274
-1.34683e-276
2.71462e-280
-1.15179e-277
4.90903e-279
-1.73705e-281
3.50917e-285
-1.531e-282
5.96407e-284
-1.98656e-286
4.07886e-290
-1.8241e-287
6.41748e-289
-2.00954e-291
4.23345e-295
-1.93784e-292
6.09816e-294
-1.79228e-296
3.90532e-300
-1.8285e-297
5.09851e-299
-1.40319e-301
3.19413e-305
-1.52685e-302
3.73412e-304
-9.60114e-307
2.2884e-310
-1.11633e-307
2.38384e-309
-5.71225e-312
1.41287e-315
-7.04539e-313
1.32009e-314
-2.93986e-317
7.52462e-321
-3.83474e-318
6.30576e-320
-1.28457e-322
0
-1.97626e-323
0
0
0
0
0
0
0
0
0
0
0
0
0
0
0
0
0
0
0
0
0
0
0
0
0
0
0
0
0
0
0
0
0
0
0
0
0
0
0
0
0
0
0
0
0
0
0
0
0
0
0
0
0
0
0
0
0
0
0
0
0
0
0
0
-1.61636e-123
3.28131e-121
-1.58725e-124
4.70572e-129
-2.99831e-131
-6.27581e-131
1.72438e-128
2.15194e-133
-1.66189e-135
-1.77114e-135
5.95718e-133
1.32005e-137
-1.04813e-139
-7.05581e-140
2.72852e-137
8.20127e-142
-6.30712e-144
-2.99832e-144
1.24804e-141
4.80239e-146
-3.69063e-148
-1.31966e-148
5.42039e-146
2.95842e-150
-2.57855e-152
-7.16934e-153
2.43632e-150
2.51278e-154
-2.71975e-156
-5.97229e-157
1.45583e-154
3.1589e-158
-3.79061e-160
-6.59966e-161
1.31098e-158
4.57661e-162
-5.47584e-164
-7.54688e-165
1.41179e-162
6.44351e-166
-7.42869e-168
-7.99762e-169
1.47999e-166
8.37602e-170
-9.22704e-172
-7.52953e-173
1.39771e-170
9.9298e-174
-1.04353e-175
-6.15178e-177
1.15197e-174
1.07111e-177
-1.07388e-179
-4.23914e-181
8.05909e-179
1.0521e-181
-1.0073e-183
-2.33738e-185
4.5495e-183
9.42832e-186
-8.62502e-188
-8.10569e-190
1.69359e-187
7.7181e-190
-6.79782e-192
1.00261e-196
-1.26108e-194
5.92901e-194
-5.10932e-196
3.85265e-200
-7.52928e-198
4.34449e-198
-3.63949e-200
4.83181e-204
-9.83543e-202
3.00126e-202
-2.43334e-204
4.48743e-208
-9.33761e-206
1.93806e-206
-1.51453e-208
3.45556e-212
-7.3478e-210
1.16036e-210
-8.70671e-213
2.30982e-216
-5.00394e-214
6.39503e-215
-4.59407e-217
1.36695e-220
-2.99781e-218
3.22665e-219
-2.21474e-221
7.25311e-225
-1.60367e-222
1.4853e-223
-9.72749e-226
3.45928e-229
-7.70181e-227
6.22054e-228
-3.88188e-230
1.47766e-233
-3.32278e-231
2.36351e-232
-1.40306e-234
5.6359e-238
-1.28593e-235
8.11823e-237
-4.57522e-239
1.9081e-242
-4.43566e-240
2.51097e-241
-1.34137e-243
5.7306e-247
-1.35596e-244
6.97488e-246
-3.53023e-248
1.52931e-251
-3.67065e-249
1.73953e-250
-8.34416e-253
3.64555e-256
-8.86829e-254
3.89755e-255
-1.77234e-257
7.77412e-261
-1.92371e-258
7.84633e-260
-3.3799e-262
1.47873e-265
-3.7521e-263
1.41633e-264
-5.76953e-267
2.50955e-270
-6.5647e-268
2.28407e-269
-8.78083e-272
3.8183e-275
-1.02906e-272
3.27793e-274
-1.18742e-276
5.21232e-280
-1.44401e-277
4.1735e-279
-1.42249e-281
6.36404e-285
-1.80586e-282
4.70085e-284
-1.50523e-286
6.91728e-290
-2.0082e-287
4.66902e-289
-1.40201e-291
6.66995e-295
-1.97871e-292
4.07444e-294
-1.14518e-296
5.68408e-300
-1.71959e-297
3.11179e-299
-8.17011e-302
4.23812e-305
-1.30694e-302
2.07165e-304
-5.0688e-307
2.73199e-310
-8.60191e-308
1.19612e-309
-2.71967e-312
1.51979e-315
-4.89005e-313
5.95531e-315
-1.25464e-317
7.30229e-321
-2.39843e-318
2.54197e-320
-4.94066e-323
0
-9.88131e-324
0
0
0
0
0
0
0
0
0
0
0
0
0
0
0
0
0
0
0
0
0
0
0
0
0
0
0
0
0
0
0
0
0
0
0
0
0
0
0
0
0
0
0
0
0
0
0
0
0
0
0
0
0
0
0
0
0
0
0
0
-6.0337e-119
9.98936e-117
-4.46481e-120
1.82009e-124
-1.40088e-126
-4.16252e-126
9.13644e-124
1.24085e-128
-1.1561e-130
-1.75339e-130
4.66344e-128
1.07045e-132
-9.58633e-135
-9.16083e-135
2.75771e-132
8.23152e-137
-6.76567e-139
-4.53859e-139
1.4813e-136
5.336e-141
-4.05671e-143
-2.03137e-143
6.96589e-141
2.99961e-145
-2.19132e-147
-8.48276e-148
2.8994e-145
1.62422e-149
-1.27084e-151
-3.87206e-152
1.14994e-149
1.09329e-153
-1.05229e-155
-2.53807e-156
5.44032e-154
1.11181e-157
-1.24074e-159
-2.3662e-160
3.87838e-158
1.41336e-161
-1.60792e-163
-2.39447e-164
3.57333e-162
1.80568e-165
-1.99006e-167
-2.25511e-168
3.30486e-166
2.14733e-169
-2.26595e-171
-1.87291e-172
2.75552e-170
2.33742e-173
-2.35673e-175
-1.32548e-176
1.97585e-174
2.32329e-177
-2.23874e-179
-7.64618e-181
1.16072e-178
2.10915e-181
-1.94216e-183
-2.98942e-185
4.73655e-183
1.74821e-185
-1.54432e-187
9.93644e-193
3.4731e-189
1.35123e-189
-1.16916e-191
1.28928e-195
-1.93699e-193
9.9849e-194
-8.40561e-196
1.73251e-199
-2.68677e-197
6.96697e-198
-5.68157e-200
1.67379e-203
-2.62504e-201
4.55366e-202
-3.58431e-204
1.34097e-207
-2.12688e-205
2.76773e-206
-2.09524e-208
9.2646e-212
-1.48895e-209
1.55349e-210
-1.12758e-212
5.62732e-216
-9.15796e-214
8.00558e-215
-5.55867e-217
3.03717e-220
-5.00164e-218
3.77171e-219
-2.50052e-221
1.47161e-224
-2.44887e-222
1.61929e-223
-1.02371e-225
6.41889e-229
-1.08109e-226
6.31706e-228
-3.80261e-230
2.51944e-233
-4.30035e-231
2.23256e-232
-1.27767e-234
8.8369e-238
-1.53172e-235
7.12652e-237
-3.87243e-239
2.74805e-242
-4.84452e-240
2.05021e-241
-1.05713e-243
7.56437e-247
-1.35682e-244
5.31019e-246
-2.59817e-248
1.85569e-251
-3.38892e-249
1.23857e-250
-5.75076e-253
4.10127e-256
-7.63951e-254
2.6007e-255
-1.14484e-257
8.19505e-261
-1.56398e-258
4.90445e-260
-2.04306e-262
1.47622e-265
-2.89511e-263
8.2719e-265
-3.25364e-267
2.38299e-270
-4.80211e-268
1.24238e-269
-4.60361e-272
3.43099e-275
-7.09586e-273
1.65447e-274
-5.76612e-277
4.3958e-280
-9.30363e-278
1.9475e-279
-6.3732e-282
4.9985e-285
-1.08158e-282
2.01938e-284
-6.19404e-287
5.03031e-290
-1.11167e-287
1.83795e-289
-5.27505e-292
4.45864e-295
-1.00451e-292
1.46335e-294
-3.92306e-297
3.45252e-300
-7.93089e-298
1.0154e-299
-2.53661e-302
2.32092e-305
-5.44052e-303
6.10984e-305
-1.41798e-307
1.34847e-310
-3.23005e-308
3.16878e-310
-6.81212e-313
6.75141e-316
-1.65039e-313
1.4081e-315
-2.7959e-318
2.89522e-321
-7.2139e-319
5.33097e-321
-9.88131e-324
0
-4.94066e-324
0
0
0
0
0
0
0
0
0
0
0
0
0
0
0
0
0
0
0
0
0
0
0
0
0
0
0
0
0
0
0
0
0
0
0
0
0
0
0
0
0
0
0
0
0
0
0
0
0
0
0
0
0
0
0
0
-1.52961e-114
2.14045e-112
-9.36743e-116
4.98311e-120
-4.66469e-122
-1.81024e-121
3.32156e-119
5.04624e-124
-5.55602e-126
-1.11064e-125
2.42974e-123
5.86985e-128
-5.85605e-130
-7.38392e-130
1.80719e-127
5.50044e-132
-4.87566e-134
-4.29868e-134
1.13964e-131
4.09377e-136
-3.26854e-138
-2.14089e-138
6.03432e-136
2.49064e-140
-1.81933e-142
-9.17814e-143
2.70277e-140
1.28292e-144
-8.82947e-147
-3.49357e-147
1.03985e-144
6.05072e-149
-4.26591e-151
-1.3344e-151
3.63285e-149
3.23043e-153
-2.72325e-155
-6.73177e-156
1.37617e-153
2.56388e-157
-2.6166e-159
-5.05767e-160
7.47521e-158
2.78277e-161
-2.99287e-163
-4.42033e-164
5.66541e-162
3.19881e-165
-3.3675e-167
-3.65729e-168
4.53783e-166
3.47786e-169
-3.5167e-171
-2.64987e-172
3.28684e-170
3.47989e-173
-3.36811e-175
-1.58187e-176
1.98539e-174
3.18762e-177
-2.94922e-179
-6.6659e-181
8.59719e-179
2.66712e-181
-2.36269e-183
-3.50942e-186
7.61218e-184
2.07136e-185
-1.79784e-187
2.64938e-191
-3.26012e-189
1.54122e-189
-1.30292e-191
3.77762e-195
-4.79959e-193
1.085e-193
-8.89324e-196
3.72667e-199
-4.76601e-197
7.16792e-198
-5.67688e-200
3.04134e-203
-3.90766e-201
4.41552e-202
-3.37016e-204
2.1481e-207
-2.78257e-205
2.52231e-206
-1.84982e-208
1.3376e-211
-1.75351e-209
1.32843e-210
-9.33613e-213
7.40017e-216
-9.84396e-214
6.41678e-215
-4.31149e-217
3.67258e-220
-4.96257e-218
2.83025e-219
-1.81436e-221
1.64421e-224
-2.25588e-222
1.13542e-223
-6.93448e-226
6.63023e-229
-9.21914e-227
4.13239e-228
-2.4023e-230
2.39557e-233
-3.37377e-231
1.36241e-232
-7.53616e-235
7.69734e-238
-1.10118e-235
4.06522e-237
-2.13806e-239
2.19659e-242
-3.20489e-240
1.09615e-241
-5.47671e-244
5.60138e-247
-8.36217e-245
2.66596e-246
-1.26422e-248
1.29089e-251
-1.97314e-249
5.83787e-251
-2.62415e-253
2.70505e-256
-4.23381e-254
1.14776e-255
-4.88243e-258
5.13575e-261
-8.22886e-259
2.01895e-260
-8.11069e-263
8.74458e-266
-1.43416e-263
3.16407e-265
-1.19789e-267
1.32359e-270
-2.22405e-268
4.39945e-270
-1.56636e-272
1.77683e-275
-3.05461e-273
5.4042e-275
-1.80612e-277
2.11081e-280
-3.7069e-278
5.84409e-280
-1.8304e-282
2.21437e-285
-3.96888e-283
5.5463e-285
-1.62522e-287
2.04086e-290
-3.73093e-288
4.60327e-290
-1.25966e-292
1.64249e-295
-3.06309e-293
3.32808e-295
-8.48535e-298
1.15032e-300
-2.1899e-298
2.08598e-300
-4.94067e-303
6.97463e-306
-1.3559e-303
1.12657e-305
-2.47126e-308
3.63675e-311
-7.21262e-309
5.21148e-311
-1.05575e-313
1.62091e-316
-3.27602e-314
2.05319e-316
-3.82945e-319
6.12641e-322
-1.2653e-319
6.81811e-322
0
0
0
0
0
0
0
0
0
0
0
0
0
0
0
0
0
0
0
0
0
0
0
0
0
0
0
0
0
0
0
0
0
0
0
0
0
0
0
0
0
0
0
0
0
0
0
0
0
0
0
0
0
0
0
-2.79955e-110
3.3702e-108
-1.48585e-111
1.03668e-115
-1.17421e-117
-5.57484e-117
8.75942e-115
1.52202e-119
-1.93662e-121
-4.82424e-121
8.89987e-119
2.30238e-123
-2.53256e-125
-3.99576e-125
8.18181e-123
2.5888e-127
-2.47366e-129
-2.72868e-129
6.05156e-127
2.22154e-131
-1.8838e-133
-1.53962e-133
3.64507e-131
1.51361e-135
-1.15638e-137
-7.25689e-138
1.81456e-135
8.42574e-140
-5.87559e-142
-2.88614e-142
7.53708e-140
3.94137e-144
-2.56252e-146
-9.94361e-147
2.65137e-144
1.63769e-148
-1.0537e-150
-3.23513e-151
8.2166e-149
7.08368e-153
-5.19827e-155
-1.25047e-155
2.53135e-153
4.27721e-157
-3.90703e-159
-7.21894e-160
1.02148e-157
3.8176e-161
-3.84259e-163
-5.26686e-164