/*--------------------------------*- C++ -*----------------------------------*\
| =========                 |                                                 |
| \\      /  F ield         | OpenFOAM: The Open Source CFD Toolbox           |
|  \\    /   O peration     | Version:  v1912                                 |
|   \\  /    A nd           | Website:  www.openfoam.com                      |
|    \\/     M anipulation  |                                                 |
\*---------------------------------------------------------------------------*/
FoamFile
{
    version     2.0;
    format      ascii;
    class       volScalarField;
    location    "6";
    object      alpha.water;
}
// * * * * * * * * * * * * * * * * * * * * * * * * * * * * * * * * * * * * * //

dimensions      [0 0 0 0 0 0 0];


internalField   nonuniform List<scalar> 
20320
(
1
1
1
0.999999
1
1
1
0.999999
0.999999
1
1
1
1
1
1
1
1
1
1
1
1
1
0.999999
0.999999
0.999999
1
1
1
1
1
1
1
1
1
1
1
1
1
1
1
1
1
1
1
1
1
1
1
0.999999
1
1
1
1
1
1
1
1
1
1
1
1
1
1
1
1
1
1
1
1
1
1
1
1
1
1
1
1
1
1
1
1
1
1
0.999999
0.999999
1
1
0.999999
1
0.999999
1
1
1
1
1
1
1
1
1
1
1
1
1
1
1
1
1
0.999999
1
0.999999
1
1
1
1
1
1
1
1
1
1
1
1
1
1
0.999999
1
1
0.999999
1
0.999999
1
1
1
1
1
1
1
1
1
1
1
1
1
1
0.999999
1
1
1
1
0.999999
1
1
1
1
1
1
1
1
1
1
1
1
1
0.999999
0.999999
1
1
1
1
0.999999
1
1
1
1
1
1
1
1
1
1
1
1
1
0.999999
0.999999
1
1
1
1
1
1
1
1
1
1
1
1
1
1
1
1
1
1
1
1
1
1
1
1
1
1
1
1
1
1
1
1
1
1
1
1
1
1
1
1
1
1
1
1
1
1
1
1
1
1
1
1
1
1
1
1
1
1
1
1
1
1
1
1
1
1
1
1
1
1
1
1
1
1
1
1
1
1
1
1
1
1
1
1
1
1
1
1
1
1
1
1
1
1
1
1
1
1
1
1
1
1
1
1
1
1
1
1
1
1
1
1
1
1
1
1
1
1
1
1
1
1
1
1
1
1
1
1
1
1
1
1
1
1
1
1
1
1
1
1
1
1
1
1
1
1
1
1
1
1
1
1
1
1
1
1
1
1
1
1
1
1
1
1
1
1
1
1
1
1
1
1
1
1
1
1
1
1
1
1
1
1
1
1
1
1
1
1
1
1
1
1
1
1
1
1
1
1
1
1
1
1
1
1
1
1
1
1
1
1
1
1
1
1
1
-4.19995e-137
-3.29831e-145
-4.79511e-150
-1.42793e-154
-1.23719e-158
-1.83394e-162
-2.9628e-166
-4.64993e-170
-6.89093e-174
-9.58535e-178
-1.24426e-181
-1.50006e-185
-1.6763e-189
-1.72941e-193
-1.65123e-197
-1.46346e-201
-1.22935e-205
-9.73495e-210
-7.20021e-214
-4.9396e-218
-3.12603e-222
-1.81638e-226
-9.64578e-231
-4.66115e-235
-2.03929e-239
-8.04149e-244
-2.84707e-248
-9.02414e-253
-2.55568e-257
-6.44899e-262
-1.44569e-266
-2.87248e-271
-5.05083e-276
-7.86314e-281
-1.08505e-285
-1.32734e-290
-1.43869e-295
-1.37886e-300
-1.16529e-305
-8.65286e-311
-5.61864e-316
-3.1719e-321
0
0
0
0
0
0
0
0
0
0
0
0
0
0
0
0
0
0
-9.85254e-132
-2.03632e-139
-3.57482e-144
-1.04869e-148
-6.02904e-153
-6.93479e-157
-1.06404e-160
-1.67085e-164
-2.48857e-168
-3.45577e-172
-4.44657e-176
-5.2662e-180
-5.71498e-184
-5.6688e-188
-5.14159e-192
-4.26374e-196
-3.31018e-200
-2.45422e-204
-1.71782e-208
-1.12529e-212
-6.84771e-217
-3.84825e-221
-1.98774e-225
-9.39402e-230
-4.04293e-234
-1.57779e-238
-5.55831e-243
-1.76141e-247
-5.01015e-252
-1.2771e-256
-2.91149e-261
-5.924e-266
-1.07391e-270
-1.73286e-275
-2.4889e-280
-3.18192e-285
-3.61707e-290
-3.64727e-295
-3.25313e-300
-2.55729e-305
-1.76278e-310
-1.05995e-315
-5.52859e-321
0
0
0
0
0
0
0
0
0
0
0
0
0
0
0
0
0
-8.51394e-127
-3.20087e-134
-7.78492e-139
-2.83e-143
-1.30911e-147
-8.73524e-152
-9.62039e-156
-1.38615e-159
-2.05491e-163
-2.88702e-167
-3.76223e-171
-4.51011e-175
-4.95201e-179
-4.97442e-183
-4.57359e-187
-3.85074e-191
-3.01043e-195
-2.25463e-199
-1.6009e-203
-1.06789e-207
-6.63694e-212
-3.81398e-216
-2.01502e-220
-9.73916e-225
-4.29006e-229
-1.71673e-233
-6.21879e-238
-2.03106e-242
-5.96191e-247
-1.56935e-251
-3.70175e-256
-7.82243e-261
-1.47988e-265
-2.50229e-270
-3.77532e-275
-5.07037e-280
-6.04801e-285
-6.3927e-290
-5.97008e-295
-4.90648e-300
-3.53395e-305
-2.21964e-310
-1.20951e-315
-5.6867e-321
0
0
0
0
0
0
0
0
0
0
0
0
0
0
0
0
-4.07546e-122
-2.56163e-129
-9.03952e-134
-4.33558e-138
-2.15808e-142
-1.08748e-146
-6.58948e-151
-6.10695e-155
-7.79558e-159
-1.06311e-162
-1.38393e-166
-1.66736e-170
-1.84476e-174
-1.87051e-178
-1.73953e-182
-1.48445e-186
-1.17049e-190
-8.83337e-195
-6.3432e-199
-4.29066e-203
-2.71179e-207
-1.58859e-211
-8.56491e-216
-4.22739e-220
-1.90374e-224
-7.80075e-229
-2.90033e-233
-9.7501e-238
-2.9522e-242
-8.02989e-247
-1.96153e-251
-4.30615e-256
-8.4969e-261
-1.50397e-265
-2.37893e-270
-3.35067e-275
-4.18831e-280
-4.63319e-285
-4.5214e-290
-3.87817e-295
-2.91229e-300
-1.90704e-305
-1.08338e-310
-5.30918e-316
-2.21835e-321
0
0
0
0
0
0
0
0
0
0
0
0
0
0
0
-1.26606e-117
-1.29755e-124
-6.65548e-129
-4.12684e-133
-2.38739e-137
-1.23664e-141
-5.93453e-146
-3.06657e-150
-2.25695e-154
-2.44331e-158
-3.00471e-162
-3.59012e-166
-3.98676e-170
-4.0748e-174
-3.82925e-178
-3.30587e-182
-2.62811e-186
-1.99687e-190
-1.44676e-194
-9.8868e-199
-6.32527e-203
-3.7615e-207
-2.06515e-211
-1.04096e-215
-4.79581e-220
-2.01392e-224
-7.68569e-229
-2.65765e-233
-8.30245e-238
-2.33818e-242
-5.93021e-247
-1.35491e-251
-2.78786e-256
-5.15415e-261
-8.52647e-266
-1.25649e-270
-1.64246e-275
-1.89845e-280
-1.93381e-285
-1.72971e-290
-1.35401e-295
-9.23904e-301
-5.46861e-306
-2.79119e-311
-1.22099e-316
-4.44659e-322
0
0
0
0
0
0
0
0
0
0
0
0
0
0
-2.77624e-113
-4.60117e-120
-3.35454e-124
-2.61182e-128
-1.76444e-132
-1.01588e-136
-5.0371e-141
-2.22447e-145
-9.80112e-150
-5.63595e-154
-4.97006e-158
-5.40505e-162
-5.89669e-166
-6.03345e-170
-5.70421e-174
-4.96266e-178
-3.97164e-182
-3.03076e-186
-2.21286e-190
-1.52654e-194
-9.87215e-199
-5.95132e-203
-3.32527e-207
-1.71271e-211
-8.0901e-216
-3.48956e-220
-1.36914e-224
-4.87376e-229
-1.5723e-233
-4.59153e-238
-1.2121e-242
-2.88718e-247
-6.19424e-252
-1.19367e-256
-2.0587e-261
-3.16534e-266
-4.31935e-271
-5.20907e-276
-5.53275e-281
-5.15935e-286
-4.209e-291
-2.99223e-296
-1.84483e-301
-9.80363e-307
-4.46331e-312
-1.73139e-317
-5.43472e-323
0
0
0
0
0
0
0
0
0
0
0
0
0
-4.48722e-109
-1.20293e-115
-1.21184e-119
-1.16067e-123
-9.13184e-128
-5.93484e-132
-3.23142e-136
-1.4957e-140
-6.04543e-145
-2.31186e-149
-1.04452e-153
-7.20594e-158
-6.73495e-162
-6.63539e-166
-6.21813e-170
-5.40269e-174
-4.32861e-178
-3.30226e-182
-2.42399e-186
-1.68789e-190
-1.10553e-194
-6.7667e-199
-3.85134e-203
-2.02747e-207
-9.81727e-212
-4.34998e-216
-1.75658e-220
-6.45118e-225
-2.15311e-229
-6.52923e-234
-1.7953e-238
-4.4597e-243
-9.97365e-248
-2.00051e-252
-3.58932e-257
-5.7406e-262
-8.151e-267
-1.02332e-271
-1.13195e-276
-1.09967e-281
-9.34471e-287
-6.91772e-292
-4.43815e-297
-2.4538e-302
-1.16296e-307
-4.69376e-313
-1.60241e-318
-0
0
0
0
0
0
0
0
0
0
0
0
0
-5.47879e-105
-2.39245e-111
-3.2431e-115
-3.77003e-119
-3.45369e-123
-2.5505e-127
-1.54856e-131
-7.84068e-136
-3.3566e-140
-1.24066e-144
-4.17277e-149
-1.50824e-153
-7.86826e-158
-6.07023e-162
-5.30495e-166
-4.51141e-170
-3.58373e-174
-2.70894e-178
-1.98837e-182
-1.39503e-186
-9.25743e-191
-5.7611e-195
-3.34117e-199
-1.79531e-203
-8.89085e-208
-4.03834e-212
-1.67769e-216
-6.36323e-221
-2.20105e-225
-6.92985e-230
-1.98099e-234
-5.1203e-239
-1.19102e-243
-2.48183e-248
-4.61865e-253
-7.65535e-258
-1.12647e-262
-1.46694e-267
-1.68507e-272
-1.70132e-277
-1.5027e-282
-1.15563e-287
-7.70023e-293
-4.42366e-298
-2.17824e-303
-9.13519e-309
-3.23837e-314
-9.6244e-320
-0
0
0
0
0
0
0
0
0
0
0
0
-5.14819e-101
-3.70736e-107
-6.60288e-111
-9.24704e-115
-9.88796e-119
-8.35543e-123
-5.71005e-127
-3.20633e-131
-1.4992e-135
-5.90807e-140
-1.99154e-144
-5.95149e-149
-1.77061e-153
-6.91108e-158
-4.20307e-162
-3.18945e-166
-2.44799e-170
-1.81167e-174
-1.31804e-178
-9.25591e-183
-6.19239e-187
-3.90481e-191
-2.30087e-195
-1.25836e-199
-6.35552e-204
-2.95426e-208
-1.26172e-212
-4.94107e-217
-1.77019e-221
-5.78111e-226
-1.71412e-230
-4.5937e-235
-1.10766e-239
-2.39102e-244
-4.60244e-249
-7.87668e-254
-1.1967e-258
-1.61013e-263
-1.91307e-268
-1.99919e-273
-1.82874e-278
-1.45675e-283
-1.00591e-288
-5.9897e-294
-3.05754e-299
-1.32864e-304
-4.87898e-310
-1.50136e-315
-3.83395e-321
0
0
0
0
0
0
0
0
0
0
0
-3.78422e-97
-4.55224e-103
-1.04502e-106
-1.75864e-110
-2.20755e-114
-2.15464e-118
-1.67608e-122
-1.05709e-126
-5.47856e-131
-2.35952e-135
-8.53595e-140
-2.62849e-144
-7.07104e-149
-1.79485e-153
-5.35044e-158
-2.4613e-162
-1.57769e-166
-1.09931e-170
-7.79526e-175
-5.41811e-179
-3.61845e-183
-2.29286e-187
-1.36416e-191
-7.56418e-196
-3.89058e-200
-1.85021e-204
-8.11878e-209
-3.27935e-213
-1.21454e-217
-4.10517e-222
-1.2598e-226
-3.49128e-231
-8.69729e-236
-1.93862e-240
-3.85118e-245
-6.79797e-250
-1.06408e-254
-1.47499e-259
-1.80635e-264
-1.94663e-269
-1.83802e-274
-1.51346e-279
-1.08092e-284
-6.65848e-290
-3.51444e-295
-1.57874e-300
-5.99276e-306
-1.90618e-311
-5.03364e-317
-9.88131e-323
0
0
0
0
0
0
0
0
0
0
-2.19625e-93
-4.46601e-99
-1.30404e-102
-2.64321e-106
-3.929e-110
-4.4846e-114
-4.02966e-118
-2.89894e-122
-1.69133e-126
-8.09548e-131
-3.21271e-135
-1.06944e-139
-3.02517e-144
-7.4217e-149
-1.65968e-153
-3.94084e-158
-1.33762e-162
-6.96797e-167
-4.49437e-171
-3.02074e-175
-1.98678e-179
-1.25141e-183
-7.45737e-188
-4.17225e-192
-2.18014e-196
-1.05986e-200
-4.77526e-205
-1.98535e-209
-7.58338e-214
-2.64524e-218
-8.37656e-223
-2.39413e-227
-6.14424e-232
-1.41077e-236
-2.88769e-241
-5.25397e-246
-8.47083e-251
-1.20813e-255
-1.52096e-260
-1.68596e-265
-1.6403e-270
-1.39343e-275
-1.02786e-280
-6.54064e-286
-3.56696e-291
-1.65547e-296
-6.49024e-302
-2.13303e-307
-5.81823e-313
-1.30335e-318
-0
0
0
0
0
0
0
0
0
0
-1.0078e-89
-3.51026e-95
-1.29536e-98
-3.17977e-102
-5.66194e-106
-7.68172e-110
-8.10537e-114
-6.77017e-118
-4.52961e-122
-2.45099e-126
-1.08493e-130
-3.97407e-135
-1.21994e-139
-3.18092e-144
-7.1624e-149
-1.438e-153
-2.83976e-158
-7.12686e-163
-2.96193e-167
-1.71698e-171
-1.07609e-175
-6.64426e-180
-3.93132e-184
-2.2047e-188
-1.16443e-192
-5.7595e-197
-2.65283e-201
-1.13083e-205
-4.43287e-210
-1.58755e-214
-5.16072e-219
-1.51409e-223
-3.98954e-228
-9.40908e-233
-1.9801e-237
-3.70764e-242
-6.15148e-247
-9.01563e-252
-1.16523e-256
-1.32666e-261
-1.32754e-266
-1.16182e-271
-8.83704e-277
-5.80094e-282
-3.26518e-287
-1.5644e-292
-6.33221e-298
-2.14788e-303
-6.04854e-309
-1.39915e-314
-2.62596e-320
0
0
0
0
0
0
0
0
0
-3.64484e-86
-2.21527e-91
-1.03248e-94
-3.09356e-98
-6.71509e-102
-1.11393e-105
-1.39693e-109
-1.37798e-113
-1.07822e-117
-6.72481e-122
-3.37538e-126
-1.37937e-130
-4.65269e-135
-1.31313e-139
-3.14406e-144
-6.47682e-149
-1.17477e-153
-1.99391e-158
-3.94271e-163
-1.26867e-167
-6.28394e-172
-3.61283e-176
-2.08926e-180
-1.16414e-184
-6.16394e-189
-3.07501e-193
-1.43478e-197
-6.21292e-202
-2.47628e-206
-9.02179e-211
-2.98545e-215
-8.92736e-220
-2.40097e-224
-5.7882e-229
-1.2468e-233
-2.39166e-238
-4.06726e-243
-6.11114e-248
-8.09491e-253
-9.44571e-258
-9.68958e-263
-8.70648e-268
-6.80868e-273
-4.60271e-278
-2.66959e-283
-1.31903e-288
-5.50667e-294
-1.92669e-299
-5.59677e-305
-1.33624e-310
-2.58981e-316
-4.00193e-322
0
0
0
0
0
0
0
0
-1.03778e-82
-1.12624e-87
-6.66421e-91
-2.46263e-94
-6.83263e-98
-1.53089e-101
-2.1847e-105
-2.52777e-109
-2.35122e-113
-1.72424e-117
-9.98728e-122
-4.61799e-126
-1.72904e-130
-5.32345e-135
-1.36835e-139
-2.97902e-144
-5.57716e-149
-9.14351e-154
-1.39465e-158
-2.38206e-163
-5.84176e-168
-2.33338e-172
-1.20443e-176
-6.50753e-181
-3.4131e-185
-1.69816e-189
-7.92157e-194
-3.43339e-198
-1.37199e-202
-5.01891e-207
-1.67102e-211
-5.03801e-216
-1.37015e-220
-3.34657e-225
-7.31298e-230
-1.42525e-234
-2.46801e-239
-3.78221e-244
-5.1154e-249
-6.09285e-254
-6.3786e-259
-5.85542e-264
-4.68783e-269
-3.25095e-274
-1.93769e-279
-9.84935e-285
-4.23295e-290
-1.52469e-295
-4.56448e-301
-1.12374e-306
-2.24619e-312
-3.5908e-318
-0
0
0
0
0
0
0
0
-2.33828e-79
-4.64212e-84
-3.52469e-87
-1.62569e-90
-7.18739e-94
-3.11767e-97
-3.80799e-101
-4.47666e-105
-4.89198e-109
-4.27544e-113
-2.9052e-117
-1.54233e-121
-6.48764e-126
-2.19977e-130
-6.11587e-135
-1.41861e-139
-2.7914e-144
-4.73549e-149
-7.12745e-154
-1.05528e-158
-1.64282e-163
-3.17916e-168
-9.67363e-173
-4.27787e-177
-2.11992e-181
-1.03341e-185
-4.75497e-190
-2.03453e-194
-8.02769e-199
-2.90415e-203
-9.58758e-208
-2.87433e-212
-7.79068e-217
-1.90091e-221
-4.15809e-226
-8.13393e-231
-1.4183e-235
-2.19585e-240
-3.00602e-245
-3.62607e-250
-3.84523e-255
-3.57849e-260
-2.91231e-265
-2.05913e-270
-1.25466e-275
-6.53225e-281
-2.87848e-286
-1.06476e-291
-3.27558e-297
-8.2934e-303
-1.70643e-308
-2.80879e-314
-3.63039e-320
0
0
0
0
0
0
0
-4.20991e-76
-1.56484e-80
-1.54785e-83
-9.05214e-87
-1.2496e-89
-1.45484e-92
-1.17646e-96
-9.03359e-101
-1.03421e-104
-1.0637e-108
-8.53093e-113
-5.26064e-117
-2.52074e-121
-9.55303e-126
-2.9176e-130
-7.32107e-135
-1.53791e-139
-2.7534e-144
-4.28074e-149
-6.35968e-154
-9.36555e-159
-1.38278e-163
-2.24616e-168
-5.04948e-173
-1.7593e-177
-7.6398e-182
-3.37913e-186
-1.41309e-190
-5.46369e-195
-1.93691e-199
-6.26619e-204
-1.84209e-208
-4.90008e-213
-1.17492e-217
-2.53232e-222
-4.89565e-227
-8.46508e-232
-1.30423e-236
-1.78169e-241
-2.14833e-246
-2.28161e-251
-2.1304e-256
-1.74404e-261
-1.24478e-266
-7.6832e-272
-4.06409e-277
-1.82548e-282
-6.89809e-288
-2.1706e-293
-5.62817e-299
-1.18719e-304
-2.00447e-310
-2.66153e-316
-2.61855e-322
0
0
0
0
0
0
-6.11887e-73
-4.38569e-77
-5.7329e-80
-4.3645e-83
-3.54383e-85
-1.02777e-87
-7.00523e-92
-2.66038e-96
-2.45679e-100
-2.76924e-104
-2.56459e-108
-1.83432e-112
-1.01059e-116
-4.34696e-121
-1.48736e-125
-4.12928e-130
-9.48085e-135
-1.83212e-139
-3.02901e-144
-4.62025e-149
-6.97382e-154
-1.02521e-158
-1.46131e-163
-2.10896e-168
-3.60714e-173
-9.13361e-178
-3.24253e-182
-1.26641e-186
-4.76563e-191
-1.65642e-195
-5.24976e-200
-1.50894e-204
-3.91922e-209
-9.17401e-214
-1.93034e-218
-3.6454e-223
-6.16681e-228
-9.31454e-233
-1.2506e-237
-1.48636e-242
-1.55938e-247
-1.44165e-252
-1.172e-257
-8.33868e-263
-5.15431e-268
-2.74384e-273
-1.24525e-278
-4.77009e-284
-1.52574e-289
-4.02962e-295
-8.67204e-301
-1.49711e-306
-2.03499e-312
-2.12975e-318
-0
0
0
0
0
0
-7.23285e-70
-1.02846e-73
-1.84155e-76
-1.94234e-79
-9.95765e-81
-7.48906e-83
-5.67311e-87
-1.156e-91
-7.19401e-96
-7.93383e-100
-7.93809e-104
-6.38825e-108
-4.01608e-112
-1.97132e-116
-7.64977e-121
-2.38859e-125
-6.10552e-130
-1.29858e-134
-2.33231e-139
-3.73404e-144
-5.88585e-149
-8.99688e-154
-1.31037e-158
-1.808e-163
-2.40918e-168
-3.38726e-173
-6.19258e-178
-1.671e-182
-5.55376e-187
-1.8622e-191
-5.81366e-196
-1.65028e-200
-4.22867e-205
-9.74739e-210
-2.01526e-214
-3.72919e-219
-6.16772e-224
-9.09727e-229
-1.19356e-233
-1.38806e-238
-1.42648e-243
-1.29369e-248
-1.03371e-253
-7.25362e-259
-4.44445e-264
-2.35768e-269
-1.07181e-274
-4.13074e-280
-1.33395e-285
-3.568e-291
-7.79875e-297
-1.37113e-302
-1.90327e-308
-2.03862e-314
-1.63832e-320
0
0
0
0
0
-6.93659e-67
-1.99401e-70
-5.085e-73
-9.237e-76
-2.26453e-76
-4.69183e-78
-6.04903e-82
-6.01199e-87
-2.49597e-91
-2.56912e-95
-2.54891e-99
-2.1601e-103
-1.49653e-107
-8.26948e-112
-3.63243e-116
-1.28016e-120
-3.66859e-125
-8.6705e-130
-1.71191e-134
-2.93783e-139
-4.90595e-144
-7.9195e-149
-1.2117e-153
-1.73607e-158
-2.32077e-163
-2.91816e-168
-3.60954e-173
-5.06365e-178
-9.93014e-183
-2.6602e-187
-7.80234e-192
-2.18654e-196
-5.59348e-201
-1.28819e-205
-2.65447e-210
-4.87636e-215
-7.97402e-220
-1.15952e-224
-1.49634e-229
-1.70921e-234
-1.72345e-239
-1.53144e-244
-1.19886e-249
-8.25882e-255
-4.98473e-260
-2.61624e-265
-1.18283e-270
-4.55227e-276
-1.47434e-281
-3.97003e-287
-8.76736e-293
-1.56276e-298
-2.20643e-304
-2.41038e-310
-1.97999e-316
-1.08694e-322
0
0
0
0
-5.33538e-64
-3.17407e-67
-1.17791e-69
-5.42067e-72
-3.99166e-72
-2.29498e-73
-7.80643e-77
-3.08952e-82
-8.83002e-87
-8.86687e-91
-8.42624e-95
-6.99414e-99
-5.02672e-103
-3.02064e-107
-1.47842e-111
-5.84891e-116
-1.87951e-120
-4.95294e-125
-1.08231e-129
-2.0214e-134
-3.62136e-139
-6.24774e-144
-1.0175e-148
-1.54251e-153
-2.16305e-158
-2.79766e-163
-3.34462e-168
-3.77314e-173
-4.3607e-178
-6.24196e-183
-1.26535e-187
-3.13362e-192
-7.81337e-197
-1.79982e-201
-3.72669e-206
-6.86915e-211
-1.12346e-215
-1.62797e-220
-2.08732e-225
-2.3609e-230
-2.34924e-235
-2.0537e-240
-1.57788e-245
-1.06552e-250
-6.30649e-256
-3.2528e-261
-1.44863e-266
-5.51724e-272
-1.77497e-277
-4.76689e-283
-1.05348e-288
-1.88671e-294
-2.68472e-300
-2.96683e-306
-2.4713e-312
-1.49665e-318
-0
0
0
0
-3.25883e-61
-4.10908e-64
-2.24326e-66
-4.04368e-68
-5.37703e-68
-8.33714e-69
-8.89992e-72
-1.12714e-77
-2.74297e-82
-2.87422e-86
-2.68994e-90
-2.13179e-94
-1.49963e-98
-9.32272e-103
-4.93962e-107
-2.16717e-111
-7.78707e-116
-2.29497e-120
-5.58427e-125
-1.14828e-129
-2.23626e-134
-4.16818e-139
-7.29429e-144
-1.18187e-148
-1.76069e-153
-2.40232e-158
-2.9934e-163
-3.40525e-168
-3.56982e-173
-3.59484e-178
-3.94672e-183
-5.75305e-188
-1.12546e-192
-2.41984e-197
-4.95653e-202
-9.17268e-207
-1.50807e-211
-2.19207e-216
-2.80895e-221
-3.16428e-226
-3.12409e-231
-2.69851e-236
-2.03953e-241
-1.34961e-246
-7.81185e-252
-3.9342e-257
-1.71105e-262
-6.36816e-268
-2.00686e-273
-5.29166e-279
-1.15214e-284
-2.0396e-290
-2.87932e-296
-3.1669e-302
-2.63608e-308
-1.59949e-314
-6.72917e-321
0
0
0
-1.56606e-58
-4.26148e-61
-3.46328e-63
-3.43463e-64
-5.46713e-64
-2.17463e-64
-7.31824e-67
-2.19161e-73
-6.72459e-78
-7.70961e-82
-7.40709e-86
-5.75804e-90
-3.89393e-94
-2.39368e-98
-1.32107e-102
-6.29849e-107
-2.51833e-111
-8.32332e-116
-2.27046e-120
-5.19411e-125
-1.11325e-129
-2.26688e-134
-4.30603e-139
-7.52928e-144
-1.20396e-148
-1.75434e-153
-2.32194e-158
-2.78288e-163
-3.0167e-168
-2.9674e-173
-2.69742e-178
-2.42454e-183
-2.5421e-188
-3.61743e-193
-6.33269e-198
-1.12648e-202
-1.84423e-207
-2.68749e-212
-3.45104e-217
-3.88778e-222
-3.82866e-227
-3.28666e-232
-2.45704e-237
-1.59997e-242
-9.06613e-248
-4.45432e-253
-1.88423e-258
-6.80787e-264
-2.08061e-269
-5.31798e-275
-1.12243e-280
-1.9283e-286
-2.64841e-292
-2.84345e-298
-2.31989e-304
-1.3855e-310
-5.75357e-317
-9.88131e-324
0
0
-6.03275e-56
-3.47731e-58
-4.39926e-60
-2.96788e-60
-4.13828e-60
-3.93095e-60
-3.96428e-62
-4.34723e-69
-1.24026e-73
-1.54158e-77
-1.56134e-81
-1.23997e-85
-8.24145e-90
-4.92132e-94
-2.71543e-98
-1.36031e-102
-6.02009e-107
-2.25935e-111
-7.00981e-116
-1.80889e-120
-4.325e-125
-9.74773e-130
-2.03559e-134
-3.88991e-139
-6.76027e-144
-1.0652e-148
-1.51677e-153
-1.94468e-158
-2.23761e-163
-2.30728e-168
-2.13211e-173
-1.77865e-178
-1.38345e-183
-1.10968e-188
-1.10038e-193
-1.44282e-198
-2.12991e-203
-3.02386e-208
-3.86535e-213
-4.35615e-218
-4.29202e-223
-3.67718e-228
-2.73158e-233
-1.75847e-238
-9.80414e-244
-4.71887e-249
-1.949e-254
-6.85236e-260
-2.0303e-265
-5.01095e-271
-1.01756e-276
-1.67782e-282
-2.20933e-288
-2.27433e-294
-1.78048e-300
-1.02336e-306
-4.1106e-313
-1.07459e-319
0
0
-1.94974e-53
-2.18183e-55
-5.51434e-57
-2.40999e-56
-2.28816e-56
-4.66378e-56
-1.33754e-57
-1.35196e-64
-1.64764e-69
-2.10514e-73
-2.25758e-77
-1.87244e-81
-1.24653e-85
-7.09638e-90
-3.70988e-94
-1.70894e-98
-8.40473e-103
-3.94193e-107
-1.5105e-111
-4.62495e-116
-1.27068e-120
-3.23817e-125
-7.57638e-130
-1.61003e-134
-3.09016e-139
-5.34148e-144
-8.28752e-149
-1.14987e-153
-1.42167e-158
-1.56334e-163
-1.52711e-168
-1.32441e-173
-1.02249e-178
-7.12981e-184
-4.72051e-189
-3.37793e-194
-3.07707e-199
-3.49656e-204
-4.16054e-209
-4.6013e-214
-4.51462e-219
-3.86272e-224
-2.85958e-229
-1.82725e-234
-1.00714e-239
-4.77866e-245
-1.93997e-250
-6.68021e-256
-1.93077e-261
-4.6265e-267
-9.07977e-273
-1.43876e-278
-1.81158e-284
-1.77536e-290
-1.31898e-296
-7.1749e-303
-2.72543e-309
-6.74483e-316
-9.38725e-323
0
-5.39174e-51
-1.02838e-52
-1.24641e-53
-1.70465e-52
-8.91953e-53
-3.28974e-52
-2.61308e-53
-3.21002e-60
-1.62599e-65
-1.81606e-69
-2.01336e-73
-1.69338e-77
-1.04466e-81
-3.58821e-86
1.46167e-92
2.01929e-94
0
-1.87055e-103
-1.54957e-107
-7.26207e-112
-2.59082e-116
-7.93115e-121
-2.15512e-125
-5.23477e-130
-1.13585e-134
-2.19665e-139
-3.77585e-144
-5.75392e-149
-7.75132e-154
-9.21525e-159
-9.6639e-164
-8.93316e-169
-7.27191e-174
-5.21647e-179
-3.31665e-184
-1.91263e-189
-1.07346e-194
-6.8088e-200
-5.50519e-205
-5.19393e-210
-4.85224e-215
-4.09697e-220
-3.01988e-225
-1.9216e-230
-1.05221e-235
-4.94723e-241
-1.98688e-246
-6.75526e-252
-1.9227e-257
-4.52147e-263
-8.67402e-269
-1.33782e-274
-1.63118e-280
-1.53947e-286
-1.09448e-292
-5.65995e-299
-2.03053e-305
-4.71071e-312
-6.35744e-319
0
-1.52725e-48
-3.91906e-50
-5.39719e-50
-9.45054e-49
-2.21976e-49
-1.14416e-48
-2.60091e-49
-5.32723e-56
-9.26782e-62
-8.94899e-66
-9.66211e-70
-6.75889e-74
-8.07225e-90
4.20815e-76
1.4098e-83
2.36061e-90
-1.96925e-97
-2.69253e-100
-5.52382e-104
-4.99277e-108
-2.84541e-112
-1.20559e-116
-4.1547e-121
-1.22296e-125
-3.13495e-130
-7.0314e-135
-1.38006e-139
-2.36877e-144
-3.55263e-149
-4.65444e-154
-5.32922e-159
-5.33468e-164
-4.6664e-169
-3.56542e-174
-2.3805e-179
-1.39294e-184
-7.21523e-190
-3.4243e-195
-1.63854e-200
-9.24807e-206
-6.48346e-211
-4.92558e-216
-3.52518e-221
-2.22913e-226
-1.2187e-231
-5.718e-237
-2.28974e-242
-7.75314e-248
-2.1947e-253
-5.12749e-259
-9.75158e-265
-1.4869e-270
-1.78781e-276
-1.65751e-282
-1.15245e-288
-5.80089e-295
-2.01138e-301
-4.47896e-308
-5.75886e-315
-3.40905e-322
-5.41498e-46
-1.34587e-47
-2.42392e-46
-3.11536e-45
-2.62053e-46
-1.38291e-45
-1.01329e-45
-4.64599e-52
-2.15617e-58
-2.0068e-62
-1.64199e-66
-1.40223e-79
4.13424e-66
7.67894e-74
2.07962e-81
1.97085e-91
-5.05192e-94
-4.23794e-97
-1.11488e-100
-1.49299e-104
-1.28853e-108
-8.10411e-113
-3.98625e-117
-1.59834e-121
-5.34019e-126
-1.50361e-130
-3.58996e-135
-7.29872e-140
-1.26855e-144
-1.89114e-149
-2.42599e-154
-2.68724e-159
-2.57586e-164
-2.13843e-169
-1.53911e-174
-9.60944e-180
-5.20879e-185
-2.46145e-190
-1.03124e-195
-4.04766e-201
-1.68825e-206
-8.55244e-212
-5.07377e-217
-3.0241e-222
-1.63327e-227
-7.67032e-233
-3.08249e-238
-1.04819e-243
-2.9802e-249
-6.9944e-255
-1.33559e-260
-2.04275e-266
-2.45946e-272
-2.28005e-278
-1.58249e-284
-7.9313e-291
-2.7297e-297
-6.00898e-304
-7.58869e-311
-4.52871e-318
-1.92533e-43
-6.56711e-45
-8.01842e-43
1.44092e-43
-5.47654e-44
3.95636e-42
-7.42999e-43
-1.14287e-48
-1.39278e-55
-1.01645e-59
1.34407e-54
3.73366e-56
1.14718e-64
3.07097e-73
8.38654e-83
-2.36271e-89
-6.21221e-92
-5.97518e-95
-2.69506e-98
-6.91792e-102
-1.18524e-105
-1.42606e-109
-1.25083e-113
-8.25778e-118
-4.20963e-122
-1.6912e-126
-5.4462e-131
-1.42572e-135
-3.07046e-140
-5.49739e-145
-8.25967e-150
-1.05023e-154
-1.13767e-159
-1.05435e-164
-8.38248e-170
-5.72693e-175
-3.36299e-180
-1.69785e-185
-7.37894e-191
-2.78759e-196
-9.4646e-202
-3.147e-207
-1.18198e-212
-5.34395e-218
-2.59986e-223
-1.1903e-228
-4.78793e-234
-1.64219e-239
-4.72563e-245
-1.12339e-250
-2.17238e-256
-3.3662e-262
-4.1013e-268
-3.84316e-274
-2.69779e-280
-1.36561e-286
-4.7408e-293
-1.05163e-299
-1.33252e-306
-7.93926e-314
-5.94189e-41
-1.51735e-41
-8.95564e-40
9.47456e-37
2.09082e-37
4.11008e-35
8.3512e-40
6.34773e-44
-1.55861e-52
7.89874e-41
1.3597e-45
6.81443e-55
6.42585e-65
1.64272e-74
-1.86286e-81
-2.72155e-84
-5.53678e-88
-9.38649e-92
-2.69977e-95
-7.99838e-99
-1.79826e-102
-2.92088e-106
-3.48992e-110
-3.13553e-114
-2.15933e-118
-1.15859e-122
-4.90863e-127
-1.66151e-131
-4.54229e-136
-1.01231e-140
-1.85656e-145
-2.82844e-150
-3.6081e-155
-3.87581e-160
-3.52084e-165
-2.71368e-170
-1.77702e-175
-9.89324e-181
-4.68351e-186
-1.88915e-191
-6.53366e-197
-1.97711e-202
-5.54391e-208
-1.62438e-213
-5.6003e-219
-2.18559e-224
-8.3842e-230
-2.86608e-235
-8.34111e-241
-2.01619e-246
-3.972e-252
-6.26605e-258
-7.77666e-264
-7.42329e-270
-5.30172e-276
-2.73157e-282
-9.65972e-289
-2.17971e-295
-2.80459e-302
-1.69482e-309
-1.76056e-38
-3.0705e-38
3.53366e-31
1.17308e-26
2.09319e-34
1.17906e-26
2.01234e-26
7.28916e-37
2.7685e-31
6.65752e-35
1.80977e-44
9.76579e-55
5.0027e-65
-2.21133e-88
-2.51352e-76
-1.09577e-79
-2.10146e-83
-2.33711e-87
-1.81902e-91
-1.65176e-95
-2.5972e-99
-4.56699e-103
-6.6567e-107
-7.54474e-111
-6.63506e-115
-4.56985e-119
-2.48906e-123
-1.0819e-127
-3.78262e-132
-1.07107e-136
-2.47201e-141
-4.68169e-146
-7.32382e-151
-9.50587e-156
-1.02829e-160
-9.29854e-166
-7.04889e-171
-4.48505e-176
-2.39875e-181
-1.07829e-186
-4.08218e-192
-1.30685e-197
-3.58719e-203
-8.78474e-209
-2.11681e-214
-5.74392e-220
-1.79752e-225
-5.73368e-231
-1.65354e-236
-4.04679e-242
-8.13118e-248
-1.31147e-253
-1.6639e-259
-1.62551e-265
-1.18793e-271
-6.27103e-278
-2.26992e-284
-5.24344e-291
-6.89372e-298
-4.25343e-305
3.51366e-30
-6.31547e-47
5.69643e-25
2.19232e-21
1.68721e-22
2.75701e-18
6.04454e-20
8.50818e-20
1.97844e-26
2.74608e-35
1.33922e-44
1.52065e-54
8.34265e-65
-3.75584e-69
-5.21762e-72
-2.20421e-75
-4.83263e-79
-6.4126e-83
-5.66605e-87
-4.35715e-91
-3.2625e-95
-2.53713e-99
-2.1961e-103
-2.05177e-107
-1.83811e-111
-1.43526e-115
-9.3303e-120
-4.9653e-124
-2.15283e-128
-7.60281e-133
-2.19045e-137
-5.16464e-142
-9.99715e-147
-1.5933e-151
-2.09595e-156
-2.28084e-161
-2.05744e-166
-1.54004e-171
-9.56895e-177
-4.93662e-182
-2.11502e-187
-7.53409e-193
-2.23796e-198
-5.60238e-204
-1.22246e-209
-2.53275e-215
-5.69573e-221
-1.4699e-226
-3.92409e-232
-9.51642e-238
-1.94391e-243
-3.21524e-249
-4.19785e-255
-4.21819e-261
-3.17479e-267
-1.72542e-273
-6.44022e-280
-1.53354e-286
-2.08231e-293
-1.32003e-300
2.61662e-38
6.93666e-23
2.07894e-15
1.19874e-12
7.85632e-18
2.06777e-16
1.35345e-11
6.68629e-16
1.03783e-24
3.42457e-32
6.6919e-42
1.99253e-52
1.88749e-63
-5.7329e-65
-6.49079e-68
-2.83754e-71
-7.05894e-75
-1.12978e-78
-1.31863e-82
-1.37619e-86
-1.28631e-90
-1.08285e-94
-8.34112e-99
-5.95279e-103
-3.95051e-107
-2.42194e-111
-1.34926e-115
-6.68665e-120
-2.88475e-124
-1.06373e-128
-3.30766e-133
-8.60229e-138
-1.8624e-142
-3.34572e-147
-4.98122e-152
-6.14433e-157
-6.27548e-162
-5.30556e-167
-3.70994e-172
-2.14286e-177
-1.02138e-182
-4.01661e-188
-1.30284e-193
-3.4938e-199
-7.83144e-205
-1.51959e-210
-2.78004e-216
-5.48218e-222
-1.22893e-227
-2.81421e-233
-5.76925e-239
-9.80236e-245
-1.32439e-250
-1.38174e-256
-1.08129e-262
-6.12159e-269
-2.38077e-275
-5.91623e-282
-8.38273e-289
-5.53375e-296
7.81045e-20
7.61208e-18
1.39487e-12
3.50821e-13
1.31713e-17
9.76996e-07
2.49419e-24
3.40696e-16
1.73398e-19
2.4455e-28
2.01343e-38
6.66569e-49
9.00388e-60
-8.62047e-61
-8.57903e-64
-3.39408e-67
-8.06418e-71
-1.40413e-74
-2.22494e-78
-3.18408e-82
-3.94128e-86
-4.20206e-90
-3.89286e-94
-3.15649e-98
-2.24794e-102
-1.40622e-106
-7.70793e-111
-3.68295e-115
-1.52306e-119
-5.40305e-124
-1.6305e-128
-4.15792e-133
-8.92217e-138
-1.60545e-142
-2.41524e-147
-3.03408e-152
-3.17827e-157
-2.77192e-162
-2.00768e-167
-1.2053e-172
-5.98711e-178
-2.45747e-183
-8.32151e-189
-2.32177e-194
-5.35395e-200
-1.03462e-205
-1.75171e-211
-2.88285e-217
-5.29394e-223
-1.0966e-228
-2.2287e-234
-3.9115e-240
-5.53474e-246
-6.07775e-252
-5.01211e-258
-2.99159e-264
-1.22797e-270
-3.22413e-277
-4.82475e-284
-3.3657e-291
5.04999e-17
1.66321e-15
7.0639e-10
0.00364342
0.0104241
1.1857e-22
3.53421e-19
4.41615e-16
8.49218e-19
7.31837e-27
6.92508e-37
3.51563e-47
-4.49815e-54
-2.06147e-56
-1.6208e-59
-5.58205e-63
-1.10522e-66
-1.78417e-70
-3.08772e-74
-5.3949e-78
-8.61602e-82
-1.18548e-85
-1.37351e-89
-1.33634e-93
-1.09682e-97
-7.63459e-102
-4.5179e-106
-2.27187e-110
-9.68861e-115
-3.49169e-119
-1.05916e-123
-2.69637e-128
-5.75674e-133
-1.02972e-137
-1.54174e-142
-1.93075e-147
-2.02118e-152
-1.76683e-157
-1.28636e-162
-7.78608e-168
-3.9114e-173
-1.62818e-178
-5.6047e-184
-1.59113e-189
-3.72519e-195
-7.23531e-201
-1.19437e-206
-1.80213e-212
-2.88103e-218
-5.44627e-224
-1.10468e-229
-2.03232e-235
-3.0653e-241
-3.60455e-247
-3.1864e-253
-2.03698e-259
-8.948e-266
-2.51134e-272
-4.01882e-279
-2.98565e-286
3.33013e-15
1.03199e-09
6.55706e-25
0.00748055
0.0549704
8.79246e-39
3.77423e-18
4.5451e-18
1.04741e-20
6.82487e-29
3.85354e-39
-2.00646e-62
-3.89337e-49
-5.53117e-52
-3.4312e-55
-1.09842e-58
-2.16456e-62
-3.67696e-66
-5.87246e-70
-9.48714e-74
-1.59206e-77
-2.55149e-81
-3.55458e-85
-4.12246e-89
-3.94184e-93
-3.112e-97
-2.03521e-101
-1.10493e-105
-4.98637e-110
-1.87212e-114
-5.84533e-119
-1.51798e-123
-3.28334e-128
-5.92458e-133
-8.92516e-138
-1.12278e-142
-1.1803e-147
-1.03643e-152
-7.59004e-158
-4.62734e-163
-2.34529e-168
-9.87146e-174
-3.44129e-179
-9.90447e-185
-2.34984e-190
-4.6091e-196
-7.59993e-202
-1.11514e-207
-1.6838e-213
-3.08373e-219
-6.46275e-225
-1.27202e-230
-2.07264e-236
-2.63456e-242
-2.51434e-248
-1.73102e-254
-8.17243e-261
-2.45943e-267
-4.2016e-274
-3.31402e-281
2.43575e-14
4.41997e-14
4.70072e-05
0.101779
0.0324934
-6.63481e-22
-2.67989e-23
-4.14795e-25
1.36314e-28
4.29709e-32
-2.17844e-55
-9.05656e-42
-1.59916e-44
-1.30688e-47
-6.25975e-51
-1.93603e-54
-4.99437e-58
-1.08605e-61
-1.90814e-65
-2.81075e-69
-3.86553e-73
-5.41692e-77
-7.51555e-81
-9.41805e-85
-9.99585e-89
-8.75077e-93
-6.27234e-97
-3.67995e-101
-1.77015e-105
-7.00368e-110
-2.28309e-114
-6.14457e-119
-1.36885e-123
-2.53243e-128
-3.90006e-133
-5.00481e-138
-5.35743e-143
-4.78754e-148
-3.5676e-153
-2.21498e-158
-1.14361e-163
-4.90461e-169
-1.74289e-174
-5.11552e-180
-1.23694e-185
-2.46857e-191
-4.12022e-197
-6.06818e-203
-9.18085e-209
-1.73901e-214
-3.91222e-220
-8.35277e-226
-1.47296e-231
-2.02109e-237
-2.07467e-243
-1.53159e-249
-7.71472e-256
-2.4663e-262
-4.45032e-269
-3.68717e-276
3.98096e-15
2.00159e-17
1.88147e-05
0.000136533
0.223683
3.67511e-22
-2.86517e-23
-5.9067e-26
-3.91049e-30
-3.77088e-32
-1.52838e-34
-3.25175e-37
-3.47974e-40
-2.16387e-43
-9.15495e-47
-3.3612e-50
-1.09158e-53
-2.90048e-57
-6.06706e-61
-1.01028e-64
-1.39137e-68
-1.67523e-72
-1.87002e-76
-1.99126e-80
-1.97341e-84
-1.73034e-88
-1.28833e-92
-7.96468e-97
-4.04985e-101
-1.69038e-105
-5.79609e-110
-1.63506e-114
-3.80413e-119
-7.32184e-124
-1.16955e-128
-1.5532e-133
-1.71776e-138
-1.58399e-143
-1.21743e-148
-7.78623e-154
-4.13891e-159
-1.82582e-164
-6.67038e-170
-2.01121e-175
-4.98941e-181
-1.01948e-186
-1.73817e-192
-2.61232e-198
-4.0914e-204
-8.3012e-210
-2.02924e-215
-4.66922e-221
-8.80192e-227
-1.28356e-232
-1.3945e-238
-1.08367e-244
-5.72354e-251
-1.90996e-257
-3.5779e-264
-3.04637e-271
1.00902e-18
2.00159e-17
4.71736e-06
4.02397e-21
0.609081
-1.25993e-21
-1.91682e-23
-1.68455e-25
-9.90496e-27
-1.49034e-28
-7.91004e-31
-1.8695e-33
-2.21404e-36
-1.7271e-39
-1.01088e-42
-4.64905e-46
-1.70315e-49
-4.98302e-53
-1.1687e-56
-2.21754e-60
-3.45077e-64
-4.47765e-68
-4.94677e-72
-4.76716e-76
-4.09097e-80
-3.14915e-84
-2.15256e-88
-1.2791e-92
-6.47263e-97
-2.74766e-101
-9.70064e-106
-2.83649e-110
-6.86093e-115
-1.37422e-119