/*--------------------------------*- C++ -*----------------------------------*\
| =========                 |                                                 |
| \\      /  F ield         | OpenFOAM: The Open Source CFD Toolbox           |
|  \\    /   O peration     | Version:  v1912                                 |
|   \\  /    A nd           | Website:  www.openfoam.com                      |
|    \\/     M anipulation  |                                                 |
\*---------------------------------------------------------------------------*/
FoamFile
{
    version     2.0;
    format      ascii;
    class       volScalarField;
    location    "6";
    object      epsilon;
}
// * * * * * * * * * * * * * * * * * * * * * * * * * * * * * * * * * * * * * //

dimensions      [0 2 -3 0 0 0 0];


internalField   nonuniform List<scalar> 
20320
(
4.43195e-05
0.000215497
0.000222412
0.000229684
0.000238086
0.000268797
0.000786295
0.0064039
0.032706
0.0946062
0.186386
0.284515
0.362564
0.401591
0.392488
0.333203
0.231446
0.115027
0.0296237
0.00213681
4.38613e-05
4.3671e-05
4.47034e-05
8.01394e-05
0.000962736
0.00869502
0.032308
0.0714763
0.120439
0.174057
0.227999
0.277133
0.314787
0.333867
0.329421
0.301141
0.254619
0.199807
0.14805
0.128633
4.42761e-05
4.82892e-05
0.000232563
0.0037601
0.0228166
0.0645497
0.122949
0.188961
0.254975
0.315348
0.36615
0.40473
0.429335
0.439012
0.433843
0.415334
0.387003
0.355876
0.339666
0.440067
5.07389e-05
0.000208909
0.00438361
0.0286165
0.0818749
0.155974
0.239487
0.323127
0.400152
0.465986
0.517904
0.554759
0.576707
0.584901
0.581289
0.568726
0.551844
0.54007
0.560404
0.780002
0.000129824
0.00222745
0.0232385
0.0800324
0.165254
0.264778
0.367072
0.463901
0.549713
0.621079
0.676325
0.715258
0.738908
0.749267
0.749153
0.742433
0.735188
0.739697
0.791958
1.12138
0.000768472
0.0113613
0.0612252
0.150741
0.262916
0.382873
0.500161
0.607791
0.701342
0.778359
0.837968
0.880606
0.907789
0.92194
0.926369
0.925657
0.927116
0.94574
1.02641
1.46045
0.00356644
0.0324434
0.115678
0.234909
0.369997
0.506985
0.636789
0.753653
0.854167
0.936683
1.00094
1.04783
1.07918
1.09766
1.10691
1.11204
1.12142
1.15267
1.25961
1.79596
0.0111042
0.0666931
0.183527
0.329528
0.484546
0.636127
0.776625
0.901458
1.00813
1.0957
1.1644
1.21545
1.2509
1.27362
1.28747
1.29799
1.31454
1.35734
1.48924
2.12702
0.0259462
0.113621
0.263036
0.433488
0.606228
0.770542
0.920236
1.05186
1.16378
1.25567
1.32821
1.3829
1.42198
1.44845
1.46635
1.48164
1.50462
1.55815
1.71419
2.4533
0.0499976
0.172658
0.353568
0.546773
0.735588
0.911142
1.0687
1.20592
1.32202
1.41726
1.49276
1.55026
1.59218
1.62164
1.64287
1.66219
1.6909
1.75447
1.93413
2.77497
0.0843346
0.243501
0.455144
0.669971
0.873656
1.05922
1.22339
1.36497
1.48403
1.58145
1.65876
1.71801
1.76176
1.79328
1.81698
1.83957
1.87332
1.94635
2.14928
3.09272
0.129203
0.325958
0.568069
0.803938
1.02168
1.21623
1.38583
1.53048
1.65113
1.74936
1.82715
1.88688
1.9313
1.96385
1.98911
2.01419
2.05232
2.13432
2.3603
3.40778
0.184125
0.419821
0.692794
0.949698
1.18107
1.38378
1.55768
1.70402
1.82477
1.92226
1.99904
2.05784
2.10168
2.13417
2.16009
2.18695
2.2289
2.31946
2.56843
3.7222
0.248101
0.524859
0.829895
1.10844
1.35338
1.5636
1.74066
1.88723
2.00645
2.10153
2.17565
2.23203
2.274
2.30539
2.33121
2.3593
2.40472
2.50363
2.77576
4.03948
0.319965
0.64095
0.980199
1.28164
1.54042
1.75759
1.93663
2.08187
2.19777
2.2886
2.35835
2.41078
2.44966
2.47909
2.50432
2.53354
2.58259
2.69017
2.98614
4.36607
0.398773
0.768411
1.14509
1.47127
1.74444
1.96803
2.14775
2.28991
2.40056
2.4852
2.54879
2.59582
2.63056
2.65755
2.68236
2.71352
2.76757
2.88545
3.2074
4.71515
0.484234
0.908311
1.32678
1.68015
1.96838
2.19774
2.37665
2.51376
2.61702
2.69346
2.74916
2.78949
2.81946
2.84419
2.86987
2.90563
2.9688
3.10235
3.45679
5.11628
0.577036
1.06285
1.52868
1.91214
2.2161
2.45031
2.62657
2.75636
2.84997
2.91618
2.96241
2.99514
3.02029
3.044
3.07365
3.11995
3.20235
3.36717
3.77613
5.64651
0.679264
1.23575
1.75576
2.17256
2.49267
2.73035
2.90162
3.02151
3.10305
3.15709
3.19261
3.21735
3.23849
3.2637
3.30267
3.37005
3.4923
3.72896
4.27163
6.5597
0.794798
1.43279
2.01511
2.46859
2.80474
3.04374
3.20702
3.314
3.38094
3.42104
3.44503
3.46207
3.48084
3.51111
3.56618
3.66798
3.85966
4.24515
5.16337
8.99187
0.000209883
0.000293804
0.000297796
0.00030093
0.000304014
0.000306749
0.000309042
0.000310792
0.000312055
0.000312912
0.000313344
0.000313362
0.000313066
0.000312582
0.000311946
0.000311085
0.000310028
0.000308796
0.000307432
0.000306009
0.000304583
0.000303143
0.000301667
0.000300139
0.00029856
0.000296969
0.000295376
0.000293852
0.000292356
0.000290869
0.000289434
0.000288044
0.000286773
0.00028562
0.000284544
0.00028354
0.000282562
0.000281591
0.000280621
0.000279627
0.000278612
0.000277615
0.000276616
0.000275592
0.000274564
0.000273573
0.000272619
0.000271663
0.000270698
0.000269738
0.000268796
0.000267887
0.000266996
0.000266118
0.000265257
0.000264401
0.000263546
0.000262688
0.000261819
0.00026095
0.00022149
7.67367e-05
6.93212e-05
6.88733e-05
6.87967e-05
6.88137e-05
6.88847e-05
6.89942e-05
6.91292e-05
6.92733e-05
6.94239e-05
6.95853e-05
6.97796e-05
7.00101e-05
7.02368e-05
7.04557e-05
7.06427e-05
7.07946e-05
7.09017e-05
7.09517e-05
7.09487e-05
7.09388e-05
7.09418e-05
7.09662e-05
7.09939e-05
7.09927e-05
7.09541e-05
7.08693e-05
7.0795e-05
7.07413e-05
7.06864e-05
7.06183e-05
7.05059e-05
7.03816e-05
7.02835e-05
7.02125e-05
7.0169e-05
7.01382e-05
7.01182e-05
7.01203e-05
7.01235e-05
7.01029e-05
7.00799e-05
7.00743e-05
7.00651e-05
7.00316e-05
6.99889e-05
6.99586e-05
6.99412e-05
6.99233e-05
6.9894e-05
6.9857e-05
6.98214e-05
6.979e-05
6.97622e-05
6.9738e-05
6.97196e-05
6.97098e-05
6.97193e-05
6.9797e-05
0.000224061
5.9998e-05
4.66317e-05
4.52721e-05
4.48085e-05
4.45041e-05
4.42934e-05
4.41539e-05
4.40691e-05
4.40251e-05
4.40125e-05
4.40273e-05
4.40694e-05
4.4136e-05
4.42122e-05
4.42897e-05
4.43607e-05
4.44221e-05
4.44728e-05
4.45091e-05
4.4529e-05
4.45421e-05
4.45553e-05
4.45698e-05
4.45825e-05
4.45863e-05
4.45791e-05
4.45586e-05
4.4534e-05
4.45117e-05
4.44923e-05
4.44739e-05
4.44487e-05
4.44204e-05
4.43976e-05
4.43817e-05
4.43726e-05
4.43668e-05
4.4365e-05
4.43708e-05
4.43776e-05
4.43771e-05
4.43741e-05
4.43755e-05
4.4378e-05
4.43741e-05
4.43652e-05
4.43581e-05
4.43555e-05
4.43535e-05
4.43484e-05
4.43406e-05
4.43328e-05
4.43261e-05
4.43205e-05
4.43159e-05
4.43133e-05
4.43139e-05
4.432e-05
4.43425e-05
0.000226254
5.76323e-05
4.30453e-05
4.13675e-05
4.08175e-05
4.04366e-05
4.01557e-05
3.99514e-05
3.98087e-05
3.97134e-05
3.96551e-05
3.96268e-05
3.9622e-05
3.96345e-05
3.96564e-05
3.9682e-05
3.9708e-05
3.97319e-05
3.97535e-05
3.97731e-05
3.97906e-05
3.98046e-05
3.98119e-05
3.98111e-05
3.98051e-05
3.97984e-05
3.9794e-05
3.97905e-05
3.9783e-05
3.97698e-05
3.97553e-05
3.97454e-05
3.97418e-05
3.97424e-05
3.97432e-05
3.97422e-05
3.97403e-05
3.97393e-05
3.97399e-05
3.97408e-05
3.97413e-05
3.97419e-05
3.97428e-05
3.97437e-05
3.97439e-05
3.9743e-05
3.97413e-05
3.97397e-05
3.97385e-05
3.97376e-05
3.97362e-05
3.97343e-05
3.97322e-05
3.97301e-05
3.9728e-05
3.97265e-05
3.97259e-05
3.97261e-05
3.9728e-05
3.97355e-05
0.000228326
5.66716e-05
4.24455e-05
4.08122e-05
4.02805e-05
3.99015e-05
3.96165e-05
3.94082e-05
3.92628e-05
3.9164e-05
3.91005e-05
3.90649e-05
3.90496e-05
3.90479e-05
3.90547e-05
3.90671e-05
3.90825e-05
3.90987e-05
3.91139e-05
3.91272e-05
3.91382e-05
3.91451e-05
3.91451e-05
3.91391e-05
3.91309e-05
3.91247e-05
3.91209e-05
3.91186e-05
3.91145e-05
3.91075e-05
3.90993e-05
3.90939e-05
3.90947e-05
3.91006e-05
3.91072e-05
3.91112e-05
3.91123e-05
3.91131e-05
3.91139e-05
3.91126e-05
3.91103e-05
3.91109e-05
3.91133e-05
3.91139e-05
3.91122e-05
3.9111e-05
3.91114e-05
3.91119e-05
3.9111e-05
3.91095e-05
3.91087e-05
3.91084e-05
3.91076e-05
3.91063e-05
3.91051e-05
3.91044e-05
3.9104e-05
3.91038e-05
3.91042e-05
3.91095e-05
0.000230206
5.60185e-05
4.22193e-05
4.07021e-05
4.02077e-05
3.98449e-05
3.95681e-05
3.93662e-05
3.9225e-05
3.91281e-05
3.90644e-05
3.90267e-05
3.90079e-05
3.90025e-05
3.90065e-05
3.90176e-05
3.90327e-05
3.90488e-05
3.90623e-05
3.907e-05
3.90717e-05
3.9069e-05
3.90645e-05
3.90611e-05
3.90597e-05
3.90588e-05
3.90546e-05
3.90476e-05
3.90413e-05
3.90384e-05
3.90384e-05
3.9039e-05
3.90408e-05
3.90443e-05
3.90496e-05
3.90556e-05
3.90595e-05
3.90609e-05
3.90609e-05
3.90593e-05
3.90576e-05
3.90584e-05
3.90605e-05
3.90604e-05
3.90581e-05
3.9057e-05
3.90581e-05
3.90592e-05
3.90584e-05
3.90566e-05
3.90557e-05
3.90556e-05
3.90551e-05
3.90539e-05
3.9053e-05
3.90526e-05
3.90523e-05
3.90518e-05
3.90518e-05
3.9057e-05
0.000232014
5.56517e-05
4.20542e-05
4.06354e-05
4.01838e-05
3.98434e-05
3.95773e-05
3.93791e-05
3.92369e-05
3.91368e-05
3.90699e-05
3.90295e-05
3.90085e-05
3.90021e-05
3.90064e-05
3.90176e-05
3.90318e-05
3.90452e-05
3.90545e-05
3.90569e-05
3.90532e-05
3.90473e-05
3.90438e-05
3.90441e-05
3.90465e-05
3.90468e-05
3.90414e-05
3.90328e-05
3.90265e-05
3.90263e-05
3.90316e-05
3.90379e-05
3.90418e-05
3.90433e-05
3.90456e-05
3.90506e-05
3.90552e-05
3.90568e-05
3.90566e-05
3.90564e-05
3.90568e-05
3.90576e-05
3.90578e-05
3.90568e-05
3.90554e-05
3.90551e-05
3.90561e-05
3.90567e-05
3.90561e-05
3.90547e-05
3.90536e-05
3.90531e-05
3.90524e-05
3.90516e-05
3.90511e-05
3.90509e-05
3.90505e-05
3.90498e-05
3.90495e-05
3.9055e-05
0.000233856
5.53359e-05
4.18714e-05
4.05339e-05
4.01286e-05
3.98168e-05
3.9566e-05
3.93747e-05
3.92345e-05
3.91346e-05
3.90687e-05
3.90296e-05
3.90102e-05
3.90048e-05
3.90085e-05
3.90174e-05
3.90272e-05
3.90352e-05
3.90403e-05
3.90421e-05
3.90414e-05
3.90397e-05
3.90389e-05
3.90387e-05
3.90374e-05
3.90334e-05
3.90278e-05
3.90233e-05
3.90215e-05
3.90234e-05
3.90294e-05
3.90378e-05
3.90448e-05
3.90479e-05
3.90486e-05
3.90496e-05
3.90511e-05
3.90528e-05
3.90544e-05
3.90565e-05
3.90584e-05
3.90587e-05
3.90574e-05
3.90563e-05
3.90562e-05
3.90567e-05
3.9057e-05
3.90569e-05
3.90565e-05
3.90557e-05
3.90544e-05
3.90532e-05
3.90524e-05
3.9052e-05
3.90519e-05
3.90518e-05
3.90514e-05
3.90505e-05
3.90501e-05
3.90558e-05
0.000235696
5.49495e-05
4.16999e-05
4.04284e-05
4.00582e-05
3.97707e-05
3.95352e-05
3.93538e-05
3.92206e-05
3.91271e-05
3.90671e-05
3.90325e-05
3.90155e-05
3.90094e-05
3.901e-05
3.90142e-05
3.90193e-05
3.90239e-05
3.90275e-05
3.9031e-05
3.90351e-05
3.90384e-05
3.90388e-05
3.90354e-05
3.90286e-05
3.90211e-05
3.90167e-05
3.9017e-05
3.90202e-05
3.90248e-05
3.90304e-05
3.9038e-05
3.90463e-05
3.90522e-05
3.90532e-05
3.905e-05
3.90474e-05
3.90486e-05
3.90523e-05
3.90562e-05
3.90584e-05
3.90583e-05
3.90573e-05
3.9057e-05
3.90576e-05
3.9058e-05
3.90577e-05
3.90572e-05
3.90571e-05
3.90566e-05
3.90551e-05
3.90534e-05
3.90525e-05
3.90526e-05
3.90528e-05
3.90527e-05
3.90521e-05
3.90511e-05
3.90507e-05
3.90567e-05
0.000237459
5.46598e-05
4.16082e-05
4.03803e-05
4.0031e-05
3.97588e-05
3.95345e-05
3.93603e-05
3.92309e-05
3.91405e-05
3.90824e-05
3.90479e-05
3.90288e-05
3.90191e-05
3.90149e-05
3.9014e-05
3.90152e-05
3.90179e-05
3.90214e-05
3.90257e-05
3.9031e-05
3.90348e-05
3.90341e-05
3.90288e-05
3.90217e-05
3.90155e-05
3.90129e-05
3.90147e-05
3.90201e-05
3.90272e-05
3.90343e-05
3.90412e-05
3.90479e-05
3.90533e-05
3.90548e-05
3.90512e-05
3.9047e-05
3.9047e-05
3.90503e-05
3.90538e-05
3.9056e-05
3.90571e-05
3.90579e-05
3.90587e-05
3.90592e-05
3.90588e-05
3.90582e-05
3.90579e-05
3.90579e-05
3.90571e-05
3.90555e-05
3.90538e-05
3.90531e-05
3.90532e-05
3.90535e-05
3.90533e-05
3.90526e-05
3.90517e-05
3.90515e-05
3.90576e-05
0.000239234
5.45826e-05
4.15754e-05
4.03768e-05
4.00425e-05
3.97852e-05
3.95719e-05
3.94029e-05
3.92744e-05
3.91815e-05
3.91188e-05
3.90778e-05
3.9052e-05
3.90359e-05
3.90261e-05
3.902e-05
3.90167e-05
3.90166e-05
3.90189e-05
3.90225e-05
3.90259e-05
3.9027e-05
3.90246e-05
3.90206e-05
3.90173e-05
3.90155e-05
3.90153e-05
3.90173e-05
3.90225e-05
3.90307e-05
3.90396e-05
3.90465e-05
3.90498e-05
3.90513e-05
3.90528e-05
3.90526e-05
3.90504e-05
3.90487e-05
3.90482e-05
3.90494e-05
3.90524e-05
3.9056e-05
3.90588e-05
3.90602e-05
3.90604e-05
3.90595e-05
3.90588e-05
3.90587e-05
3.90585e-05
3.90573e-05
3.90557e-05
3.90544e-05
3.90539e-05
3.9054e-05
3.9054e-05
3.90537e-05
3.9053e-05
3.90522e-05
3.90522e-05
3.90584e-05
0.000241061
5.45982e-05
4.15296e-05
4.03508e-05
4.00401e-05
3.98044e-05
3.96072e-05
3.94476e-05
3.93229e-05
3.92296e-05
3.91621e-05
3.9114e-05
3.90805e-05
3.90574e-05
3.90419e-05
3.9031e-05
3.90234e-05
3.90194e-05
3.90182e-05
3.90187e-05
3.90192e-05
3.90183e-05
3.90162e-05
3.90149e-05
3.90154e-05
3.90173e-05
3.902e-05
3.90237e-05
3.90294e-05
3.90372e-05
3.90448e-05
3.90496e-05
3.90503e-05
3.90493e-05
3.90507e-05
3.90538e-05
3.90545e-05
3.90514e-05
3.90469e-05
3.90455e-05
3.90491e-05
3.9055e-05
3.9059e-05
3.90605e-05
3.90609e-05
3.90606e-05
3.90599e-05
3.90593e-05
3.90585e-05
3.90573e-05
3.90561e-05
3.90553e-05
3.9055e-05
3.90547e-05
3.90544e-05
3.90539e-05
3.90533e-05
3.90527e-05
3.90529e-05
3.90592e-05
0.000243057
5.44959e-05
4.1411e-05
4.02673e-05
3.99938e-05
3.97894e-05
3.96169e-05
3.94738e-05
3.93584e-05
3.92687e-05
3.92003e-05
3.91483e-05
3.91088e-05
3.90797e-05
3.90593e-05
3.90446e-05
3.90341e-05
3.90265e-05
3.9021e-05
3.9017e-05
3.90146e-05
3.90133e-05
3.9013e-05
3.90139e-05
3.90164e-05
3.90201e-05
3.90253e-05
3.90319e-05
3.90391e-05
3.90453e-05
3.90488e-05
3.90501e-05
3.90501e-05
3.90499e-05
3.90513e-05
3.90545e-05
3.90557e-05
3.90526e-05
3.90476e-05
3.90448e-05
3.90474e-05
3.90531e-05
3.90576e-05
3.90597e-05
3.90612e-05
3.90619e-05
3.90612e-05
3.90596e-05
3.90582e-05
3.90574e-05
3.90568e-05
3.90564e-05
3.90559e-05
3.90553e-05
3.90547e-05
3.90541e-05
3.90536e-05
3.90531e-05
3.90533e-05
3.90599e-05
0.000244981
5.41248e-05
4.12083e-05
4.01309e-05
3.99038e-05
3.97414e-05
3.96017e-05
3.94817e-05
3.93812e-05
3.92987e-05
3.92321e-05
3.91785e-05
3.91349e-05
3.91008e-05
3.90759e-05
3.90581e-05
3.90456e-05
3.90363e-05
3.90285e-05
3.90225e-05
3.90189e-05
3.90173e-05
3.90166e-05
3.9017e-05
3.90194e-05
3.90243e-05
3.90315e-05
3.90399e-05
3.90468e-05
3.90506e-05
3.90515e-05
3.90513e-05
3.9052e-05
3.9053e-05
3.90532e-05
3.90536e-05
3.90538e-05
3.90527e-05
3.90503e-05
3.90477e-05
3.90473e-05
3.90504e-05
3.90547e-05
3.90583e-05
3.90612e-05
3.90627e-05
3.90619e-05
3.90597e-05
3.90581e-05
3.90577e-05
3.90578e-05
3.90574e-05
3.90567e-05
3.90558e-05
3.9055e-05
3.90544e-05
3.90538e-05
3.90534e-05
3.90538e-05
3.90605e-05
0.000246698
5.34332e-05
4.09522e-05
3.99773e-05
3.98005e-05
3.96772e-05
3.95676e-05
3.94702e-05
3.93853e-05
3.93124e-05
3.92508e-05
3.91993e-05
3.91567e-05
3.91224e-05
3.90958e-05
3.90759e-05
3.9062e-05
3.90524e-05
3.90452e-05
3.904e-05
3.90356e-05
3.90307e-05
3.90258e-05
3.90229e-05
3.90241e-05
3.90298e-05
3.90381e-05
3.90455e-05
3.905e-05
3.90522e-05
3.9054e-05
3.90555e-05
3.90565e-05
3.90564e-05
3.90539e-05
3.90516e-05
3.90518e-05
3.90535e-05
3.90541e-05
3.90518e-05
3.90485e-05
3.9048e-05
3.90515e-05
3.90565e-05
3.90605e-05
3.90625e-05
3.9062e-05
3.906e-05
3.90584e-05
3.90583e-05
3.90586e-05
3.90583e-05
3.90573e-05
3.90562e-05
3.90554e-05
3.90547e-05
3.90541e-05
3.90535e-05
3.9054e-05
3.90609e-05
0.000248092
5.25325e-05
4.07282e-05
3.98833e-05
3.97462e-05
3.96455e-05
3.95515e-05
3.94656e-05
3.93894e-05
3.93228e-05
3.92666e-05
3.92204e-05
3.91832e-05
3.91541e-05
3.91311e-05
3.91125e-05
3.9098e-05
3.90871e-05
3.90776e-05
3.90681e-05
3.90573e-05
3.90459e-05
3.90365e-05
3.90317e-05
3.90322e-05
3.90366e-05
3.90426e-05
3.90478e-05
3.90513e-05
3.90538e-05
3.90573e-05
3.90603e-05
3.90606e-05
3.90581e-05
3.90537e-05
3.9051e-05
3.90525e-05
3.90557e-05
3.90571e-05
3.90548e-05
3.90502e-05
3.90476e-05
3.90497e-05
3.90545e-05
3.90586e-05
3.90609e-05
3.90615e-05
3.90606e-05
3.90594e-05
3.9059e-05
3.90591e-05
3.90588e-05
3.90578e-05
3.90567e-05
3.90558e-05
3.9055e-05
3.90543e-05
3.90537e-05
3.90542e-05
3.90612e-05
0.000249123
5.176e-05
4.06433e-05
3.99158e-05
3.9798e-05
3.9702e-05
3.96088e-05
3.95225e-05
3.94463e-05
3.93801e-05
3.93243e-05
3.92787e-05
3.92423e-05
3.92148e-05
3.91931e-05
3.91739e-05
3.91551e-05
3.91357e-05
3.91149e-05
3.90936e-05
3.90735e-05
3.9057e-05
3.90467e-05
3.90428e-05
3.9043e-05
3.90444e-05
3.90464e-05
3.90498e-05
3.90539e-05
3.90576e-05
3.90605e-05
3.90621e-05
3.90611e-05
3.90586e-05
3.90555e-05
3.90538e-05
3.90554e-05
3.90582e-05
3.90586e-05
3.90565e-05
3.90524e-05
3.90491e-05
3.90492e-05
3.90522e-05
3.90556e-05
3.90586e-05
3.90608e-05
3.90614e-05
3.90605e-05
3.90597e-05
3.90594e-05
3.90591e-05
3.90583e-05
3.90572e-05
3.90561e-05
3.90552e-05
3.90544e-05
3.90538e-05
3.90543e-05
3.90614e-05
0.000249923
5.14427e-05
4.0732e-05
4.00825e-05
3.99705e-05
3.98678e-05
3.97654e-05
3.96714e-05
3.95883e-05
3.95153e-05
3.94516e-05
3.93965e-05
3.93487e-05
3.93081e-05
3.92721e-05
3.92378e-05
3.92032e-05
3.91682e-05
3.91349e-05
3.91064e-05
3.90844e-05
3.90685e-05
3.90588e-05
3.90548e-05
3.9054e-05
3.90535e-05
3.90533e-05
3.90549e-05
3.90583e-05
3.90611e-05
3.90614e-05
3.90605e-05
3.90596e-05
3.90598e-05
3.90603e-05
3.90593e-05
3.90589e-05
3.90595e-05
3.90594e-05
3.90582e-05
3.90554e-05
3.90516e-05
3.90493e-05
3.90499e-05
3.90527e-05
3.90565e-05
3.90601e-05
3.90619e-05
3.90614e-05
3.90603e-05
3.90597e-05
3.90594e-05
3.90588e-05
3.90577e-05
3.90564e-05
3.90553e-05
3.90545e-05
3.90539e-05
3.90544e-05
3.90615e-05
0.000250773
5.15677e-05
4.09138e-05
4.03088e-05
4.0211e-05
4.01069e-05
3.99955e-05
3.98887e-05
3.97901e-05
3.9698e-05
3.96119e-05
3.95326e-05
3.94589e-05
3.93915e-05
3.93298e-05
3.92733e-05
3.92219e-05
3.91767e-05
3.91399e-05
3.91125e-05
3.90945e-05
3.90824e-05
3.90738e-05
3.9068e-05
3.90651e-05
3.90637e-05
3.90628e-05
3.90624e-05
3.90626e-05
3.90621e-05
3.90603e-05
3.90592e-05
3.906e-05
3.90629e-05
3.90658e-05
3.90648e-05
3.90617e-05
3.90603e-05
3.90608e-05
3.90609e-05
3.90587e-05
3.90537e-05
3.90492e-05
3.90483e-05
3.90509e-05
3.90551e-05
3.90592e-05
3.90616e-05
3.90617e-05
3.90607e-05
3.906e-05
3.90597e-05
3.90592e-05
3.90581e-05
3.90566e-05
3.90553e-05
3.90545e-05
3.9054e-05
3.90544e-05
3.90615e-05
0.000251813
5.18142e-05
4.10679e-05
4.04833e-05
4.04126e-05
4.0326e-05
4.02203e-05
4.01077e-05
3.99929e-05
3.98751e-05
3.9755e-05
3.96378e-05
3.95291e-05
3.94323e-05
3.93494e-05
3.928e-05
3.92238e-05
3.91792e-05
3.91456e-05
3.9121e-05
3.91046e-05
3.90943e-05
3.90873e-05
3.90816e-05
3.90773e-05
3.90742e-05
3.90713e-05
3.90683e-05
3.90654e-05
3.90629e-05
3.9061e-05
3.90613e-05
3.90636e-05
3.90666e-05
3.9069e-05
3.90681e-05
3.90642e-05
3.90623e-05
3.90635e-05
3.90641e-05
3.90612e-05
3.90549e-05
3.90494e-05
3.90479e-05
3.90504e-05
3.90544e-05
3.9058e-05
3.90605e-05
3.90614e-05
3.90611e-05
3.90604e-05
3.906e-05
3.90594e-05
3.90582e-05
3.90567e-05
3.90553e-05
3.90545e-05
3.9054e-05
3.90545e-05
3.90614e-05
0.000253
5.20251e-05
4.11937e-05
4.05931e-05
4.05323e-05
4.04659e-05
4.03814e-05
4.0284e-05
4.01703e-05
4.00368e-05
3.98889e-05
3.97373e-05
3.95941e-05
3.9468e-05
3.93647e-05
3.92842e-05
3.92249e-05
3.91818e-05
3.91517e-05
3.91299e-05
3.91138e-05
3.91029e-05
3.90965e-05
3.90926e-05
3.90887e-05
3.90839e-05
3.9078e-05
3.90722e-05
3.90683e-05
3.90667e-05
3.90663e-05
3.90667e-05
3.90682e-05
3.90692e-05
3.90699e-05
3.90699e-05
3.90678e-05
3.90661e-05
3.90665e-05
3.90661e-05
3.90626e-05
3.90562e-05
3.90504e-05
3.90487e-05
3.90508e-05
3.90539e-05
3.90566e-05
3.9059e-05
3.90608e-05
3.90613e-05
3.90608e-05
3.90602e-05
3.90594e-05
3.90581e-05
3.90565e-05
3.90552e-05
3.90544e-05
3.9054e-05
3.90545e-05
3.90613e-05
0.000254175
5.23156e-05
4.14005e-05
4.07461e-05
4.06574e-05
4.05901e-05
4.0528e-05
4.04553e-05
4.03538e-05
4.0214e-05
4.00454e-05
3.98657e-05
3.96925e-05
3.95369e-05
3.94076e-05
3.93067e-05
3.92329e-05
3.91824e-05
3.91507e-05
3.91319e-05
3.91196e-05
3.91107e-05
3.91044e-05
3.91e-05
3.90959e-05
3.90912e-05
3.9085e-05
3.90783e-05
3.9074e-05
3.90734e-05
3.90739e-05
3.9073e-05
3.90717e-05
3.90706e-05
3.90709e-05
3.90727e-05
3.90726e-05
3.90704e-05
3.90684e-05
3.90666e-05
3.90634e-05
3.90585e-05
3.90532e-05
3.90505e-05
3.90511e-05
3.90531e-05
3.90552e-05
3.90578e-05
3.90603e-05
3.90614e-05
3.90609e-05
3.90601e-05
3.90591e-05
3.90578e-05
3.90563e-05
3.90551e-05
3.90544e-05
3.90539e-05
3.90543e-05
3.90611e-05
0.000255529
5.28805e-05
4.18875e-05
4.11008e-05
4.09277e-05
4.08272e-05
4.07742e-05
4.07149e-05
4.06031e-05
4.04301e-05
4.0222e-05
4.00049e-05
3.98001e-05
3.96187e-05
3.94673e-05
3.93468e-05
3.92565e-05
3.91933e-05
3.91537e-05
3.9133e-05
3.91228e-05
3.91176e-05
3.9113e-05
3.91075e-05
3.91019e-05
3.90974e-05
3.90935e-05
3.90884e-05
3.90835e-05
3.9081e-05
3.90801e-05
3.90779e-05
3.90749e-05
3.90733e-05
3.90739e-05
3.90766e-05
3.90771e-05
3.90734e-05
3.90689e-05
3.90665e-05
3.9065e-05
3.90621e-05
3.90572e-05
3.90526e-05
3.9051e-05
3.9052e-05
3.90543e-05
3.90573e-05
3.906e-05
3.90612e-05
3.90607e-05
3.90597e-05
3.90586e-05
3.90574e-05
3.9056e-05
3.9055e-05
3.90543e-05
3.90537e-05
3.90541e-05
3.90609e-05
0.000257391
5.43031e-05
4.31403e-05
4.20143e-05
4.16167e-05
4.14141e-05
4.13316e-05
4.12424e-05
4.10474e-05
4.07596e-05
4.04482e-05
4.01598e-05
3.99081e-05
3.9698e-05
3.95296e-05
3.93989e-05
3.93002e-05
3.92289e-05
3.91795e-05
3.91492e-05
3.91325e-05
3.91248e-05
3.9121e-05
3.91167e-05
3.91109e-05
3.91055e-05
3.91024e-05
3.90997e-05
3.90945e-05
3.90886e-05
3.90847e-05
3.90822e-05
3.90798e-05
3.90787e-05
3.90788e-05
3.908e-05
3.90796e-05
3.9075e-05
3.90696e-05
3.90675e-05
3.90676e-05
3.90663e-05
3.90614e-05
3.90548e-05
3.90508e-05
3.9051e-05
3.90538e-05
3.90572e-05
3.90598e-05
3.90608e-05
3.90602e-05
3.9059e-05
3.90579e-05
3.90569e-05
3.90557e-05
3.90548e-05
3.90541e-05
3.90535e-05
3.90538e-05
3.90606e-05
0.000260567
5.82066e-05
4.61909e-05
4.41608e-05
4.32376e-05
4.28222e-05
4.26653e-05
4.24445e-05
4.19901e-05
4.14192e-05
4.08704e-05
4.04261e-05
4.00862e-05
3.98262e-05
3.96277e-05
3.9479e-05
3.93684e-05
3.92883e-05
3.92291e-05
3.91869e-05
3.91575e-05
3.91384e-05
3.91285e-05
3.91236e-05
3.91201e-05
3.91157e-05
3.91117e-05
3.91086e-05
3.91038e-05
3.90967e-05
3.90909e-05
3.9088e-05
3.90866e-05
3.90854e-05
3.90836e-05
3.9082e-05
3.90806e-05
3.90767e-05
3.9072e-05
3.90701e-05
3.90705e-05
3.90698e-05
3.90648e-05
3.9057e-05
3.90514e-05
3.90508e-05
3.90537e-05
3.90573e-05
3.90596e-05
3.90602e-05
3.90595e-05
3.90582e-05
3.90571e-05
3.90563e-05
3.90554e-05
3.90545e-05
3.90538e-05
3.90531e-05
3.90534e-05
3.90601e-05
0.000267301
6.79401e-05
5.29688e-05
4.84779e-05
4.64842e-05
4.5872e-05
4.57e-05
4.51464e-05
4.39962e-05
4.27632e-05
4.17272e-05
4.09605e-05
4.04291e-05
4.00625e-05
3.98011e-05
3.961e-05
3.94681e-05
3.93641e-05
3.92877e-05
3.92319e-05
3.91911e-05
3.91606e-05
3.9141e-05
3.91307e-05
3.91269e-05
3.91244e-05
3.91207e-05
3.91164e-05
3.91118e-05
3.9106e-05
3.91001e-05
3.90962e-05
3.90936e-05
3.90907e-05
3.9087e-05
3.90836e-05
3.90821e-05
3.90802e-05
3.90766e-05
3.90736e-05
3.90727e-05
3.90716e-05
3.90671e-05
3.90595e-05
3.90533e-05
3.90516e-05
3.90538e-05
3.90569e-05
3.9059e-05
3.90595e-05
3.90588e-05
3.90575e-05
3.90563e-05
3.90556e-05
3.9055e-05
3.90542e-05
3.90533e-05
3.90526e-05
3.90529e-05
3.90595e-05
0.000281632
9.14354e-05
6.72805e-05
5.67108e-05
5.2826e-05
5.25131e-05
5.27672e-05
5.11155e-05
4.80066e-05
4.52296e-05
4.32415e-05
4.18962e-05
4.10144e-05
4.04407e-05
4.00573e-05
3.97909e-05
3.95973e-05
3.9455e-05
3.93515e-05
3.92772e-05
3.92266e-05
3.91902e-05
3.91639e-05
3.91463e-05
3.91365e-05
3.91323e-05
3.91294e-05
3.91258e-05
3.91215e-05
3.91165e-05
3.91105e-05
3.91046e-05
3.90993e-05
3.90945e-05
3.90903e-05
3.9087e-05
3.90857e-05
3.90851e-05
3.9082e-05
3.90771e-05
3.90738e-05
3.90723e-05
3.9069e-05
3.90626e-05
3.90562e-05
3.90533e-05
3.90538e-05
3.9056e-05
3.9058e-05
3.90588e-05
3.90584e-05
3.9057e-05
3.90556e-05
3.90548e-05
3.90544e-05
3.90537e-05
3.90528e-05
3.9052e-05
3.90523e-05
3.90588e-05
0.000313977
0.000156643
0.000106062
7.51824e-05
6.68592e-05
6.98395e-05
7.21321e-05
6.53967e-05
5.58814e-05
4.93395e-05
4.54869e-05
4.32158e-05
4.18383e-05
4.09731e-05
4.04085e-05
4.00275e-05
3.97612e-05
3.95711e-05
3.94362e-05
3.93399e-05
3.92745e-05
3.92294e-05
3.91966e-05
3.91726e-05
3.91553e-05
3.91451e-05
3.91404e-05
3.91372e-05
3.91329e-05
3.91268e-05
3.91191e-05
3.91113e-05
3.91044e-05
3.90992e-05
3.90957e-05
3.9093e-05
3.9091e-05
3.90898e-05
3.90862e-05
3.90799e-05
3.90749e-05
3.90727e-05
3.90708e-05
3.90661e-05
3.90598e-05
3.90554e-05
3.9054e-05
3.90548e-05
3.90568e-05
3.90582e-05
3.90582e-05
3.90568e-05
3.9055e-05
3.9054e-05
3.90536e-05
3.9053e-05
3.90521e-05
3.90512e-05
3.90514e-05
3.90579e-05
0.000425303
0.000440603
0.000273055
0.000128153
0.000101704
0.000130066
0.000142631
0.000105316
7.22496e-05
5.61323e-05
4.85146e-05
4.4751e-05
4.27557e-05
4.15983e-05
4.08589e-05
4.03543e-05
3.99959e-05
3.97383e-05
3.95585e-05
3.94325e-05
3.93447e-05
3.92831e-05
3.92378e-05
3.92054e-05
3.91818e-05
3.91655e-05
3.91559e-05
3.915e-05
3.91435e-05
3.91352e-05
3.9126e-05
3.91177e-05
3.91113e-05
3.91067e-05
3.91037e-05
3.91004e-05
3.90965e-05
3.90928e-05
3.90884e-05
3.90825e-05
3.90772e-05
3.90743e-05
3.90728e-05
3.90694e-05
3.90631e-05
3.90575e-05
3.90544e-05
3.90539e-05
3.90555e-05
3.90576e-05
3.90581e-05
3.90567e-05
3.90546e-05
3.90532e-05
3.90525e-05
3.9052e-05
3.90512e-05
3.90503e-05
3.90504e-05
3.90567e-05
0.00133172
0.00288608
0.00149321
0.000349118
0.000241161
0.00054246
0.000522775
0.00023322
0.00010801
6.78095e-05
5.27113e-05
4.64659e-05
4.36389e-05
4.21977e-05
4.13431e-05
4.07599e-05
4.03224e-05
3.99829e-05
3.97336e-05
3.95573e-05
3.94351e-05
3.93508e-05
3.9289e-05
3.92448e-05
3.92139e-05
3.91914e-05
3.91756e-05
3.91641e-05
3.91534e-05
3.91431e-05
3.91342e-05
3.9127e-05
3.91215e-05
3.91167e-05
3.91122e-05
3.9107e-05
3.91006e-05
3.90946e-05
3.90898e-05
3.90854e-05
3.9081e-05
3.90772e-05
3.9075e-05
3.90719e-05
3.90658e-05
3.90593e-05
3.9055e-05
3.90535e-05
3.90547e-05
3.9057e-05
3.90579e-05
3.90566e-05
3.90543e-05
3.90524e-05
3.90514e-05
3.90508e-05
3.90501e-05
3.90492e-05
3.90492e-05
3.90554e-05
0.0130251
0.0267454
0.0150054
0.00458106
0.00260676
0.0066366
0.00304812
0.000652044
0.000190341
8.78509e-05
5.84515e-05
4.83755e-05
4.44644e-05
4.27126e-05
4.17674e-05
4.11492e-05
4.06786e-05
4.02847e-05
3.9964e-05
3.97237e-05
3.95526e-05
3.94364e-05
3.93551e-05
3.92965e-05
3.92549e-05
3.92234e-05
3.91995e-05
3.91819e-05
3.91674e-05
3.9155e-05
3.91459e-05
3.91399e-05
3.91344e-05
3.91271e-05
3.9119e-05
3.91113e-05
3.91036e-05
3.90969e-05
3.90922e-05
3.90889e-05
3.90853e-05
3.90811e-05
3.90772e-05
3.90734e-05
3.90677e-05
3.90609e-05
3.90561e-05
3.9054e-05
3.90544e-05
3.90563e-05
3.90574e-05
3.90564e-05
3.9054e-05
3.90517e-05
3.90501e-05
3.90494e-05
3.90488e-05
3.90479e-05
3.90478e-05
3.90539e-05
0.101463
0.160135
0.126386
0.3813
0.169837
0.070172
0.0136365
0.00192334
0.000383627
0.000121241
6.51256e-05
5.00357e-05
4.51085e-05
4.31315e-05
4.21193e-05
4.14653e-05
4.098e-05
4.05739e-05
4.02215e-05
3.99334e-05
3.97119e-05
3.95545e-05
3.94443e-05
3.93655e-05
3.93092e-05
3.92656e-05
3.92312e-05
3.92069e-05
3.91893e-05
3.91744e-05
3.91625e-05
3.91541e-05
3.91466e-05
3.91361e-05
3.9124e-05
3.91142e-05
3.91068e-05
3.91008e-05
3.90964e-05
3.90927e-05
3.90891e-05
3.90847e-05
3.90796e-05
3.90746e-05
3.90689e-05
3.90625e-05
3.90576e-05
3.90552e-05
3.90548e-05
3.90557e-05
3.90565e-05
3.90558e-05
3.90535e-05
3.90509e-05
3.90489e-05
3.90478e-05
3.90472e-05
3.90464e-05
3.90464e-05
3.90523e-05
0.298026
0.442493
1.38129
8.28845
3.50424
0.237759
0.0353882
0.00508025
0.000836374
0.0001723
7.02519e-05
5.04922e-05
4.53225e-05
4.34523e-05
4.24624e-05
4.17661e-05
4.12384e-05
4.0819e-05
4.04606e-05
4.01567e-05
3.99044e-05
3.97078e-05
3.95619e-05
3.94545e-05
3.93781e-05
3.93207e-05
3.92746e-05
3.92415e-05
3.92189e-05
3.92001e-05
3.91826e-05
3.91677e-05
3.9156e-05
3.91434e-05
3.91292e-05
3.91179e-05
3.91111e-05
3.91064e-05
3.91017e-05
3.90963e-05
3.90916e-05
3.90874e-05
3.90822e-05
3.90762e-05
3.90702e-05
3.90642e-05
3.90596e-05
3.90569e-05
3.90556e-05
3.90552e-05
3.90553e-05
3.90548e-05
3.90528e-05
3.905e-05
3.90476e-05
3.90462e-05
3.90454e-05
3.90446e-05
3.90447e-05
3.90504e-05
0.448809
1.07999
7.34113
33.2791
4.71746
0.690332
0.0760872
0.0112505
0.00162058
0.00021846
6.88573e-05
4.90994e-05
4.515e-05
4.37737e-05
4.29007e-05
4.21534e-05
4.15338e-05
4.10543e-05
4.06692e-05
4.03554e-05
4.00929e-05
3.98741e-05
3.97e-05
3.95634e-05
3.94632e-05
3.939e-05
3.93312e-05
3.92862e-05
3.92542e-05
3.92283e-05
3.92039e-05
3.91813e-05
3.9164e-05
3.91504e-05
3.91362e-05
3.91239e-05
3.91166e-05
3.91122e-05
3.91068e-05
3.90995e-05
3.90931e-05
3.90892e-05
3.90851e-05
3.90789e-05
3.9072e-05
3.9066e-05
3.90617e-05
3.90589e-05
3.90566e-05
3.90548e-05
3.9054e-05
3.90534e-05
3.90517e-05
3.90488e-05
3.90463e-05
3.90446e-05
3.90435e-05
3.90427e-05
3.90429e-05
3.90485e-05
0.2958
1.394
17.4446
22.9568
5.76276
0.869309
0.12954
0.0190028
0.00191571
0.00017756
5.8055e-05
4.69243e-05
4.52998e-05
4.44071e-05
4.356e-05
4.26982e-05
4.193e-05
4.13303e-05
4.08706e-05
4.05213e-05
4.02497e-05
4.00263e-05
3.98421e-05
3.96878e-05
3.95666e-05
3.94752e-05
3.94006e-05
3.93403e-05
3.92942e-05
3.92573e-05
3.92258e-05
3.91974e-05
3.91746e-05
3.91589e-05
3.91451e-05
3.91318e-05
3.91224e-05
3.91167e-05
3.91105e-05
3.91022e-05
3.90947e-05
3.90909e-05
3.90883e-05
3.90828e-05
3.90749e-05
3.90681e-05
3.90638e-05
3.90608e-05
3.90577e-05
3.90546e-05
3.90526e-05
3.90516e-05
3.905e-05
3.90474e-05
3.90448e-05
3.90428e-05
3.90414e-05
3.90406e-05
3.90409e-05
3.90464e-05
0.198855
1.43373
26.2687
25.4847
7.92175
1.37646
0.148578
0.0148493
0.000675353
7.35312e-05
4.96341e-05
4.77301e-05
4.70196e-05
4.57964e-05
4.4558e-05
4.34038e-05
4.24092e-05
4.16632e-05
4.10979e-05
4.06775e-05
4.03778e-05
4.01524e-05
3.99725e-05
3.98164e-05
3.96827e-05
3.95743e-05
3.94812e-05
3.94029e-05
3.93404e-05
3.92901e-05
3.92508e-05
3.92183e-05
3.919e-05
3.91693e-05
3.91543e-05
3.91399e-05
3.91277e-05
3.91197e-05
3.91129e-05
3.91049e-05
3.90972e-05
3.90932e-05
3.90917e-05
3.90873e-05
3.90787e-05
3.90707e-05
3.9066e-05
3.90627e-05
3.90586e-05
3.90545e-05
3.90513e-05
3.90495e-05
3.90479e-05
3.90456e-05
3.90431e-05
3.90409e-05
3.90393e-05
3.90383e-05
3.90388e-05
3.90442e-05
0.106082
1.41368
47.0627
22.4834
8.98799
2.79197
0.148964
0.00146353
9.22298e-05
8.75877e-05
6.70154e-05
5.5718e-05
5.12737e-05
4.82345e-05
4.60104e-05
4.42302e-05
4.29021e-05