/*--------------------------------*- C++ -*----------------------------------*\
| =========                 |                                                 |
| \\      /  F ield         | OpenFOAM: The Open Source CFD Toolbox           |
|  \\    /   O peration     | Version:  v1912                                 |
|   \\  /    A nd           | Website:  www.openfoam.com                      |
|    \\/     M anipulation  |                                                 |
\*---------------------------------------------------------------------------*/
FoamFile
{
    version     2.0;
    format      ascii;
    class       volScalarField;
    location    "6";
    object      k;
}
// * * * * * * * * * * * * * * * * * * * * * * * * * * * * * * * * * * * * * //

dimensions      [0 2 -2 0 0 0 0];


internalField   nonuniform List<scalar> 
20320
(
0.0041357
0.00426916
0.00435997
0.00445444
0.00456221
0.00494215
0.0100531
0.0406659
0.120828
0.245657
0.386441
0.512676
0.602915
0.645732
0.636246
0.57082
0.44817
0.28169
0.114391
0.0199433
0.00414039
0.0041316
0.00414672
0.00466369
0.0171053
0.111741
0.352343
0.690195
1.05505
1.39833
1.6889
1.9072
2.04325
2.09613
2.07016
1.96665
1.78166
1.51243
1.16092
0.702079
0.00415077
0.00420212
0.00666123
0.0509194
0.254089
0.630847
1.09614
1.57803
2.02971
2.42092
2.73312
2.95699
3.09052
3.13657
3.09938
2.98085
2.77876
2.48642
2.08403
1.44359
0.00424201
0.00629461
0.0569377
0.305081
0.765988
1.33372
1.92419
2.48539
2.98495
3.40284
3.72786
3.95583
4.08781
4.12776
4.07963
3.94446
3.71785
3.38541
2.90342
2.0569
0.00524818
0.0310929
0.250118
0.743694
1.3911
2.08399
2.75775
3.3739
3.90904
4.34944
4.68824
4.92373
5.05769
5.09341
5.0333
4.87626
4.61423
4.22482
3.6447
2.59042
0.0130731
0.129591
0.581856
1.27406
2.05628
2.84032
3.57651
4.23567
4.80052
5.26142
5.61402
5.8577
5.99399
6.02492
5.95088
5.76808
5.4645
5.01059
4.32711
3.07301
0.0442887
0.326249
1.00086
1.84847
2.7348
3.59023
4.37635
5.0709
5.66106
6.13997
6.50481
6.75532
6.89244
6.91674
6.82659
6.61551
6.26771
5.74741
4.96179
3.51864
0.119117
0.606633
1.473
2.44676
3.41774
4.33158
5.15883
5.88277
6.49402
6.98781
7.36228
7.6172
7.75277
7.76819
7.65991
7.41896
7.02616
6.44017
5.55613
3.93499
0.249747
0.95002
1.98097
3.0611
4.10339
5.06626
5.92775
6.67581
7.30395
7.80905
8.18995
8.44634
8.57769
8.58191
8.45372
8.18191
7.7442
7.09427
6.11621
4.32735
0.438048
1.34123
2.51595
3.68854
4.79251
5.79724
6.6873
7.45474
8.09562
8.60829
8.99219
9.24694
9.37132
9.36213
9.21251
8.9092
8.4271
7.71524
6.64747
4.69997
0.678385
1.76944
3.07239
4.32755
5.48621
6.52731
7.44126
8.22383
8.87352
9.39008
9.77358
10.0236
10.1384
10.1138
9.94153
9.60635
9.08053
8.30874
7.15512
5.05665
0.960478
2.22541
3.64531
4.97628
6.1848
7.25825
8.19234
8.98642
9.64137
10.1584
10.5383
10.7808
10.8838
10.8422
10.6463
10.2792
9.7105
8.88062
7.64438
5.40112
1.27165
2.70029
4.22963
5.63238
6.88788
7.99099
8.94243
9.74507
10.4022
10.9167
11.2903
11.523
11.6124
11.5527
11.333
10.9344
10.324
9.43771
8.12133
5.73765
1.59861
3.1854
4.82023
6.29316
7.59447
8.72581
9.69272
10.5016
11.1585
11.668
12.0331
12.2543
12.3292
12.2514
12.0086
11.5801
10.9298
9.98898
8.59409
6.07198
1.92927
3.67291
5.41249
6.95618
8.30361
9.46277
10.444
11.2576
11.9123
12.415
12.7702
12.9793
13.0401
12.9455
12.6823
12.2273
11.5406
10.548
9.07548
6.41335
2.25411
4.15692
6.00347
7.62031
9.01533
10.2027
11.1978
12.0149
12.6663
13.1613
13.5062
13.7038
13.7524
13.6449
13.3668
12.8922
12.1767
11.138
9.58861
6.77896
2.56732
4.63429
6.59257
8.28638
9.73126
10.9477
11.9566
12.7768
13.4243
13.9115
14.247
14.4355
14.4763
14.3629
14.08
13.5994
12.8707
11.8001
10.1789
7.205
2.86718
5.10539
7.18226
8.95787
10.4553
11.702
12.7248
13.548
14.1918
14.6723
15.0011
15.1849
15.2253
15.1172
14.8463
14.3835
13.6734
12.6073
10.9403
7.77734
3.15667
5.57456
7.77859
9.64139
11.1941
12.472
13.5091
14.3357
14.977
15.4533
15.7796
15.9659
16.0165
15.9297
15.6948
15.2864
14.6516
13.6748
12.0652
8.73347
3.44351
6.05068
8.39178
10.3472
11.9575
13.2672
14.3188
15.1494
15.7904
16.2665
16.5967
16.7948
16.8693
16.8232
16.6528
16.3436
15.8613
15.1216
13.8691
10.8768
0.00239752
0.00208455
0.00210344
0.00211814
0.00213266
0.00214546
0.00215612
0.00216433
0.00217021
0.0021742
0.00217622
0.00217631
0.00217495
0.00217271
0.00216971
0.00216576
0.00216086
0.00215508
0.00214877
0.00214213
0.00213546
0.00212872
0.00212179
0.00211461
0.00210717
0.00209962
0.00209213
0.00208491
0.00207777
0.00207075
0.00206391
0.00205728
0.00205121
0.00204569
0.00204053
0.00203571
0.00203097
0.00202634
0.00202167
0.00201683
0.00201197
0.00200715
0.00200227
0.00199735
0.00199237
0.00198755
0.00198291
0.00197826
0.00197355
0.00196887
0.00196422
0.00195982
0.00195545
0.0019511
0.00194692
0.00194271
0.0019385
0.00193428
0.00192999
0.00192571
0.00249257
0.00373368
0.0037599
0.00372672
0.00370293
0.00368603
0.00367332
0.00366358
0.00365626
0.00365087
0.00364689
0.00364399
0.00364182
0.00364007
0.00363869
0.00363741
0.00363626
0.00363524
0.00363446
0.00363401
0.00363385
0.00363372
0.00363356
0.00363327
0.00363284
0.00363241
0.00363196
0.00363168
0.00363133
0.00363096
0.00363077
0.0036307
0.00363089
0.00363116
0.00363133
0.00363143
0.00363138
0.00363126
0.00363114
0.00363095
0.00363076
0.00363066
0.00363052
0.0036303
0.00363014
0.00363013
0.00363011
0.00363
0.00362983
0.00362968
0.00362959
0.00362954
0.0036295
0.00362944
0.00362935
0.00362924
0.00362911
0.00362898
0.0036288
0.00362834
0.00251953
0.0039061
0.00399912
0.00396385
0.00393031
0.00390548
0.00388699
0.00387327
0.00386329
0.00385628
0.00385155
0.00384873
0.00384732
0.00384686
0.0038469
0.00384711
0.00384734
0.00384752
0.00384776
0.00384817
0.00384873
0.00384927
0.00384963
0.00384964
0.00384932
0.00384887
0.0038485
0.0038483
0.00384798
0.00384741
0.00384684
0.00384649
0.0038465
0.00384671
0.00384687
0.00384691
0.00384685
0.00384679
0.0038468
0.00384682
0.00384681
0.00384682
0.00384683
0.00384683
0.00384683
0.00384685
0.00384682
0.00384676
0.00384671
0.00384667
0.00384663
0.00384658
0.00384654
0.0038465
0.00384643
0.00384637
0.00384634
0.00384634
0.00384638
0.00384653
0.00254368
0.00391366
0.00403667
0.00400911
0.00397489
0.00394805
0.00392791
0.00391303
0.00390237
0.00389502
0.00389023
0.00388752
0.00388634
0.00388615
0.00388652
0.00388715
0.00388786
0.00388856
0.00388925
0.00389001
0.00389087
0.00389163
0.00389196
0.0038917
0.00389108
0.00389047
0.00389015
0.0038901
0.00388987
0.00388923
0.00388847
0.003888
0.00388807
0.00388848
0.00388884
0.00388898
0.00388896
0.00388895
0.003889
0.00388897
0.0038889
0.00388892
0.00388902
0.00388906
0.00388902
0.003889
0.00388899
0.00388897
0.00388893
0.00388887
0.00388883
0.00388879
0.00388875
0.00388868
0.00388861
0.00388855
0.00388853
0.00388853
0.00388858
0.00388885
0.00256668
0.00390444
0.00403199
0.00401
0.00397812
0.00395208
0.00393228
0.00391776
0.00390757
0.0039006
0.00389609
0.00389351
0.00389233
0.00389209
0.00389241
0.00389313
0.00389405
0.00389504
0.00389596
0.00389676
0.00389744
0.00389785
0.00389783
0.00389742
0.00389687
0.00389643
0.00389616
0.003896
0.00389574
0.00389529
0.00389478
0.00389445
0.00389453
0.00389497
0.00389545
0.00389574
0.00389584
0.0038959
0.00389595
0.00389585
0.00389569
0.00389572
0.00389589
0.00389593
0.00389581
0.00389574
0.00389578
0.00389582
0.00389577
0.00389568
0.00389563
0.00389561
0.00389557
0.0038955
0.00389542
0.00389538
0.00389536
0.00389534
0.00389536
0.00389567
0.00258869
0.0038992
0.00402447
0.0040057
0.00397617
0.00395131
0.00393217
0.00391815
0.00390832
0.00390156
0.0038971
0.00389446
0.00389314
0.00389275
0.00389302
0.00389377
0.00389481
0.0038959
0.0038968
0.00389731
0.00389744
0.00389727
0.00389699
0.00389676
0.00389665
0.00389657
0.00389627
0.0038958
0.00389537
0.00389517
0.00389516
0.0038952
0.00389532
0.00389558
0.00389595
0.00389636
0.00389662
0.00389672
0.00389672
0.00389661
0.0038965
0.00389655
0.00389668
0.00389668
0.00389654
0.00389646
0.00389654
0.00389661
0.00389656
0.00389644
0.00389638
0.00389638
0.00389634
0.00389626
0.0038962
0.00389618
0.00389616
0.00389613
0.00389612
0.00389645
0.00261064
0.00389424
0.00401737
0.00400147
0.00397452
0.0039512
0.00393281
0.00391909
0.00390921
0.00390227
0.00389763
0.00389482
0.00389337
0.00389293
0.00389322
0.00389398
0.00389494
0.00389586
0.0038965
0.00389668
0.00389645
0.00389608
0.00389585
0.00389586
0.00389599
0.00389599
0.00389561
0.00389503
0.00389461
0.0038946
0.00389494
0.00389537
0.00389564
0.00389576
0.00389593
0.00389627
0.00389658
0.00389669
0.00389668
0.00389667
0.00389669
0.00389674
0.00389675
0.00389669
0.0038966
0.00389659
0.00389665
0.0038967
0.00389665
0.00389656
0.00389649
0.00389645
0.00389641
0.00389635
0.00389632
0.00389631
0.00389629
0.00389624
0.00389621
0.00389655
0.00263293
0.00388811
0.00400799
0.00399485
0.00397079
0.00394939
0.00393205
0.0039188
0.00390908
0.00390216
0.00389759
0.00389487
0.00389352
0.00389312
0.00389337
0.00389397
0.00389464
0.0038952
0.00389556
0.0038957
0.00389566
0.00389555
0.00389548
0.00389546
0.00389536
0.00389508
0.0038947
0.00389438
0.00389426
0.0038944
0.00389481
0.00389538
0.00389587
0.00389608
0.00389614
0.00389621
0.00389631
0.00389643
0.00389655
0.00389669
0.00389681
0.00389683
0.00389675
0.00389667
0.00389666
0.0038967
0.00389672
0.00389672
0.00389669
0.00389663
0.00389655
0.00389647
0.00389641
0.00389639
0.00389638
0.00389638
0.00389635
0.00389629
0.00389626
0.00389662
0.002655
0.00388387
0.00399966
0.00398799
0.00396608
0.00394635
0.00393005
0.00391748
0.00390823
0.00390172
0.00389753
0.0038951
0.0038939
0.00389345
0.00389348
0.00389377
0.00389412
0.00389444
0.00389469
0.00389494
0.00389521
0.00389542
0.00389544
0.00389521
0.00389475
0.00389424
0.00389394
0.00389394
0.00389415
0.00389448
0.00389488
0.00389541
0.00389598
0.00389638
0.00389645
0.00389624
0.00389607
0.00389615
0.0038964
0.00389666
0.00389681
0.00389681
0.00389675
0.00389672
0.00389676
0.00389679
0.00389677
0.00389674
0.00389673
0.0038967
0.0038966
0.00389649
0.00389642
0.00389643
0.00389645
0.00389644
0.0038964
0.00389633
0.0038963
0.00389668
0.00267675
0.00388461
0.00399655
0.00398485
0.00396417
0.00394549
0.00392999
0.00391792
0.00390894
0.00390265
0.00389859
0.00389616
0.00389482
0.00389413
0.00389384
0.00389377
0.00389384
0.00389403
0.00389426
0.00389456
0.00389491
0.00389516
0.00389511
0.00389475
0.00389427
0.00389384
0.00389367
0.00389378
0.00389415
0.00389464
0.00389514
0.00389563
0.0038961
0.00389646
0.00389656
0.00389633
0.00389605
0.00389604
0.00389626
0.0038965
0.00389666
0.00389674
0.00389679
0.00389684
0.00389687
0.00389685
0.0038968
0.00389679
0.00389679
0.00389674
0.00389662
0.00389651
0.00389646
0.00389647
0.0038965
0.00389649
0.00389644
0.00389637
0.00389636
0.00389674
0.00269885
0.00388658
0.00399625
0.00398465
0.00396483
0.00394718
0.00393245
0.00392076
0.00391185
0.00390541
0.00390105
0.00389821
0.00389641
0.0038953
0.00389462
0.00389419
0.00389396
0.00389394
0.00389408
0.00389432
0.00389455
0.00389462
0.00389446
0.00389419
0.00389396
0.00389383
0.00389382
0.00389396
0.00389433
0.0038949
0.00389551
0.00389598
0.00389622
0.00389633
0.00389645
0.00389643
0.00389627
0.00389615
0.00389612
0.0038962
0.00389642
0.00389667
0.00389685
0.00389695
0.00389695
0.0038969
0.00389685
0.00389684
0.00389683
0.00389675
0.00389664
0.00389655
0.00389652
0.00389652
0.00389653
0.00389651
0.00389646
0.00389641
0.0038964
0.0038968
0.00272189
0.00388675
0.003994
0.00398295
0.00396465
0.00394848
0.00393486
0.00392382
0.00391519
0.00390871
0.00390403
0.00390071
0.00389838
0.00389678
0.0038957
0.00389495
0.00389442
0.00389414
0.00389405
0.00389406
0.00389409
0.00389402
0.00389389
0.0038938
0.00389383
0.00389396
0.00389415
0.00389442
0.00389481
0.00389535
0.00389587
0.0038962
0.00389626
0.0038962
0.00389631
0.00389651
0.00389655
0.00389633
0.00389604
0.00389595
0.00389619
0.0038966
0.00389687
0.00389697
0.003897
0.00389697
0.00389693
0.00389688
0.00389683
0.00389675
0.00389667
0.00389661
0.00389659
0.00389658
0.00389656
0.00389652
0.00389648
0.00389644
0.00389645
0.00389685
0.00274572
0.00388319
0.00398695
0.00397734
0.0039615
0.00394749
0.00393557
0.00392567
0.00391768
0.00391145
0.0039067
0.00390309
0.00390034
0.00389832
0.0038969
0.00389588
0.00389515
0.00389462
0.00389424
0.00389396
0.00389379
0.0038937
0.00389367
0.00389372
0.0038939
0.00389416
0.00389452
0.00389498
0.00389547
0.0038959
0.00389615
0.00389624
0.00389625
0.00389624
0.00389634
0.00389655
0.00389664
0.00389643
0.00389609
0.0038959
0.00389607
0.00389646
0.00389677
0.00389693
0.00389702
0.00389706
0.00389701
0.0038969
0.00389681
0.00389675
0.00389672
0.00389669
0.00389666
0.00389662
0.00389658
0.00389654
0.0038965
0.00389647
0.00389648
0.0038969
0.0027697
0.0038763
0.00397556
0.00396819
0.00395535
0.0039442
0.00393452
0.00392621
0.00391924
0.00391351
0.00390888
0.00390516
0.00390214
0.00389978
0.00389805
0.00389681
0.00389595
0.00389531
0.00389478
0.00389437
0.00389411
0.00389399
0.00389392
0.00389394
0.00389411
0.00389445
0.00389495
0.00389553
0.003896
0.00389627
0.00389634
0.00389634
0.00389638
0.00389644
0.00389646
0.00389649
0.00389651
0.00389645
0.00389628
0.00389609
0.00389607
0.00389628
0.00389657
0.00389683
0.00389703
0.00389712
0.00389707
0.00389692
0.0038968
0.00389677
0.00389678
0.00389676
0.00389671
0.00389665
0.0038966
0.00389656
0.00389652
0.00389648
0.00389651
0.00389694
0.00279243
0.00386795
0.00396269
0.00395801
0.00394834
0.00393984
0.00393222
0.00392544
0.00391954
0.00391447
0.00391019
0.00390662
0.00390367
0.00390129
0.00389945
0.00389808
0.00389711
0.00389645
0.00389595
0.00389558
0.00389526
0.00389491
0.00389457
0.00389436
0.00389444
0.00389483
0.0038954
0.00389591
0.00389623
0.00389639
0.00389652
0.00389662
0.00389669
0.00389668
0.0038965
0.00389636
0.00389638
0.0038965
0.00389653
0.00389638
0.00389615
0.00389612
0.00389636
0.0038967
0.00389698
0.00389711
0.00389708
0.00389694
0.00389683
0.00389681
0.00389684
0.00389682
0.00389675
0.00389668
0.00389663
0.00389658
0.00389653
0.00389649
0.00389652
0.00389697
0.00281267
0.00386249
0.00395376
0.00395198
0.00394468
0.00393773
0.00393119
0.00392522
0.00391992
0.00391529
0.00391138
0.00390816
0.00390557
0.00390354
0.00390193
0.00390063
0.00389962
0.00389885
0.00389817
0.0038975
0.00389675
0.00389597
0.00389532
0.00389498
0.00389501
0.0038953
0.00389571
0.00389608
0.00389633
0.00389651
0.00389675
0.00389695
0.00389697
0.0038968
0.00389651
0.00389632
0.00389643
0.00389665
0.00389674
0.00389658
0.00389627
0.00389609
0.00389623
0.00389656
0.00389685
0.00389701
0.00389705
0.00389698
0.00389689
0.00389686
0.00389687
0.00389686
0.00389679
0.00389672
0.00389666
0.0038966
0.00389654
0.0038965
0.00389654
0.00389699
0.00283029
0.00386479
0.00395428
0.00395452
0.00394823
0.00394162
0.00393517
0.00392919
0.0039239
0.0039193
0.00391541
0.00391223
0.00390969
0.00390775
0.00390621
0.00390485
0.00390352
0.00390216
0.00390072
0.00389926
0.00389788
0.00389675
0.00389604
0.00389576
0.00389576
0.00389585
0.003896
0.00389623
0.00389651
0.00389676
0.00389696
0.00389707
0.00389701
0.00389684
0.00389664
0.00389652
0.00389662
0.00389681
0.00389685
0.0038967
0.00389643
0.0038962
0.0038962
0.0038964
0.00389665
0.00389686
0.00389701
0.00389704
0.00389697
0.00389692
0.0038969
0.00389688
0.00389683
0.00389675
0.00389668
0.00389661
0.00389655
0.00389651
0.00389654
0.003897
0.0028465
0.00387363
0.00396436
0.00396604
0.00395996
0.00395294
0.00394588
0.00393937
0.00393361
0.00392854
0.0039241
0.00392027
0.00391694
0.00391412
0.00391161
0.00390923
0.00390683
0.00390442
0.00390213
0.00390017
0.00389866
0.00389755
0.00389688
0.0038966
0.00389653
0.0038965
0.00389648
0.00389658
0.00389681
0.003897
0.00389702
0.00389697
0.00389692
0.00389693
0.00389696
0.00389689
0.00389686
0.0038969
0.0038969
0.00389682
0.00389663
0.00389637
0.0038962
0.00389625
0.00389645
0.00389671
0.00389696
0.00389707
0.00389704
0.00389696
0.00389692
0.0038969
0.00389686
0.00389679
0.0038967
0.00389662
0.00389656
0.00389652
0.00389655
0.003897
0.00286336
0.00388304
0.00397776
0.00398153
0.00397635
0.00396923
0.00396158
0.00395421
0.00394741
0.00394104
0.00393508
0.00392959
0.00392449
0.00391984
0.0039156
0.00391171
0.00390818
0.00390507
0.00390252
0.00390062
0.00389936
0.00389851
0.00389791
0.00389751
0.00389731
0.00389721
0.00389714
0.0038971
0.00389711
0.00389707
0.00389696
0.00389689
0.00389695
0.00389714
0.00389733
0.00389727
0.00389706
0.00389696
0.003897
0.00389701
0.00389685
0.00389651
0.0038962
0.00389614
0.00389632
0.00389661
0.00389689
0.00389706
0.00389707
0.00389699
0.00389694
0.00389692
0.00389688
0.00389681
0.00389671
0.00389662
0.00389656
0.00389652
0.00389655
0.003897
0.00288181
0.0038904
0.00398781
0.00399361
0.00399024
0.0039843
0.00397703
0.00396929
0.0039614
0.0039533
0.00394504
0.00393697
0.00392947
0.00392278
0.00391704
0.00391224
0.00390834
0.00390525
0.00390291
0.0039012
0.00390006
0.00389933
0.00389884
0.00389846
0.00389816
0.00389794
0.00389773
0.00389752
0.00389732
0.00389715
0.00389702
0.00389703
0.00389719
0.0038974
0.00389756
0.0038975
0.00389724
0.00389711
0.00389718
0.00389722
0.00389702
0.00389659
0.00389622
0.00389612
0.00389629
0.00389656
0.00389681
0.00389698
0.00389705
0.00389702
0.00389697
0.00389694
0.0038969
0.00389682
0.00389671
0.00389662
0.00389656
0.00389653
0.00389655
0.003897
0.00290137
0.00390005
0.00399608
0.0040013
0.00399864
0.00399408
0.00398826
0.00398155
0.00397373
0.00396455
0.00395437
0.00394392
0.00393404
0.00392532
0.00391815
0.00391255
0.00390841
0.00390541
0.00390331
0.0039018
0.00390069
0.00389994
0.00389949
0.00389922
0.00389894
0.00389861
0.0038982
0.0038978
0.00389753
0.00389742
0.00389738
0.0038974
0.0038975
0.00389757
0.00389763
0.00389763
0.00389748
0.00389737
0.00389739
0.00389736
0.00389712
0.00389669
0.00389629
0.00389617
0.00389631
0.00389652
0.00389671
0.00389688
0.00389701
0.00389704
0.00389701
0.00389696
0.0038969
0.00389681
0.0038967
0.00389661
0.00389655
0.00389652
0.00389655
0.00389699
0.00292163
0.00391726
0.00401016
0.00401176
0.00400722
0.00400263
0.00399836
0.00399334
0.00398634
0.00397671
0.00396508
0.00395269
0.00394074
0.00393
0.00392106
0.00391408
0.00390897
0.00390546
0.00390326
0.00390195
0.0039011
0.00390049
0.00390005
0.00389975
0.00389945
0.00389913
0.0038987
0.00389823
0.00389794
0.00389788
0.0038979
0.00389784
0.00389775
0.00389768
0.0038977
0.00389782
0.00389781
0.00389766
0.00389752
0.0038974
0.00389718
0.00389684
0.00389648
0.00389629
0.00389633
0.00389647
0.00389662
0.0038968
0.00389698
0.00389705
0.00389702
0.00389696
0.00389688
0.00389679
0.00389668
0.0038966
0.00389655
0.00389652
0.00389654
0.00389698
0.00294343
0.0039529
0.00404344
0.0040361
0.00402578
0.00401889
0.0040152
0.00401109
0.00400338
0.00399149
0.00397717
0.00396223
0.00394811
0.0039356
0.00392515
0.00391684
0.00391061
0.00390625
0.00390351
0.00390206
0.00390134
0.00390097
0.00390064
0.00390027
0.00389988
0.00389957
0.00389929
0.00389894
0.00389859
0.00389841
0.00389834
0.00389819
0.00389798
0.00389787
0.00389791
0.00389809
0.00389812
0.00389787
0.00389756
0.0038974
0.00389729
0.00389709
0.00389675
0.00389643
0.00389632
0.00389639
0.00389655
0.00389676
0.00389695
0.00389704
0.00389701
0.00389693
0.00389685
0.00389676
0.00389666
0.00389659
0.00389655
0.00389651
0.00389653
0.00389696
0.00296958
0.00403942
0.00412815
0.00409852
0.00407301
0.00405918
0.00405347
0.00404729
0.00403389
0.00401417
0.00399279
0.00397297
0.00395565
0.00394116
0.00392953
0.00392048
0.00391365
0.00390872
0.0039053
0.00390319
0.00390202
0.00390147
0.00390119
0.00390089
0.0039005
0.00390013
0.00389991
0.00389972
0.00389935
0.00389894
0.00389867
0.00389849
0.00389833
0.00389824
0.00389825
0.00389832
0.0038983
0.00389798
0.00389761
0.00389747
0.00389747
0.00389738
0.00389703
0.00389658
0.00389631
0.00389633
0.00389652
0.00389676
0.00389694
0.00389701
0.00389697
0.00389689
0.0038968
0.00389673
0.00389664
0.00389657
0.00389653
0.00389649
0.0038965
0.00389694
0.00300701
0.00424974
0.00432927
0.00424293
0.00418267
0.00415471
0.00414409
0.00412911
0.00409827
0.00405939
0.00402187
0.00399138
0.00396799
0.00395006
0.00393635
0.00392605
0.00391838
0.00391281
0.0039087
0.00390577
0.00390373
0.00390241
0.00390172
0.00390137
0.00390113
0.00390083
0.00390056
0.00390034
0.0039
0.0038995
0.0038991
0.0038989
0.0038988
0.0038987
0.00389857
0.00389846
0.00389837
0.00389811
0.00389778
0.00389765
0.00389767
0.00389762
0.00389727
0.00389674
0.00389635
0.00389631
0.00389652
0.00389676
0.00389692
0.00389697
0.00389692
0.00389683
0.00389675
0.00389669
0.00389662
0.00389656
0.00389651
0.00389646
0.00389648
0.00389691
0.00307369
0.00473326
0.00475988
0.0045268
0.00439836
0.00435805
0.00434663
0.00430992
0.0042333
0.00415049
0.00408033
0.00402803
0.00399157
0.00396631
0.00394827
0.00393507
0.00392525
0.00391804
0.00391275
0.00390888
0.00390606
0.00390396
0.0039026
0.00390189
0.00390161
0.00390143
0.00390118
0.00390088
0.00390056
0.00390016
0.00389974
0.00389947
0.00389928
0.00389908
0.00389882
0.00389859
0.00389848
0.00389835
0.0038981
0.00389789
0.00389782
0.00389775
0.00389744
0.00389691
0.00389648
0.00389637
0.00389652
0.00389674
0.00389688
0.00389692
0.00389687
0.00389678
0.0038967
0.00389664
0.00389659
0.00389654
0.00389648
0.00389643
0.00389645
0.00389687
0.0032028
0.00581366
0.00561863
0.00504885
0.00480772
0.00478767
0.00480328
0.00469803
0.00449755
0.00431513
0.00418246
0.00409164
0.00403159
0.00399228
0.0039659
0.00394752
0.00393416
0.00392434
0.00391719
0.00391205
0.00390854
0.00390602
0.00390419
0.00390297
0.00390229
0.00390199
0.00390179
0.00390153
0.00390124
0.00390088
0.00390046
0.00390005
0.00389968
0.00389934
0.00389905
0.00389882
0.00389873
0.00389868
0.00389846
0.00389812
0.0038979
0.00389779
0.00389757
0.00389712
0.00389668
0.00389649
0.00389652
0.00389668
0.00389681
0.00389687
0.00389684
0.00389675
0.00389665
0.00389659
0.00389656
0.00389651
0.00389644
0.00389638
0.0038964
0.00389682
0.00347875
0.00845413
0.00771706
0.00614576
0.0056654
0.00583761
0.00596748
0.00557509
0.00499838
0.00458392
0.00433205
0.00418059
0.00408759
0.00402871
0.00399007
0.00396388
0.00394551
0.00393239
0.00392306
0.0039164
0.00391187
0.00390874
0.00390645
0.00390478
0.00390358
0.00390287
0.00390255
0.00390232
0.00390202
0.00390159
0.00390106
0.00390052
0.00390004
0.00389968
0.00389943
0.00389924
0.00389909
0.003899
0.00389875
0.00389832
0.00389798
0.00389783
0.0038977
0.00389736
0.00389693
0.00389663
0.00389654
0.00389659
0.00389673
0.00389683
0.00389683
0.00389673
0.00389661
0.00389653
0.0038965
0.00389646
0.00389639
0.00389633
0.00389634
0.00389675
0.00436528
0.0175405
0.0149721
0.0089138
0.00758057
0.00895097
0.00953916
0.00775767
0.00597625
0.00501433
0.00453073
0.00428337
0.0041497
0.00407133
0.00402094
0.00398638
0.00396174
0.00394396
0.00393152
0.00392279
0.00391671
0.00391245
0.00390931
0.00390706
0.00390542
0.00390429
0.00390362
0.00390321
0.00390275
0.00390218
0.00390154
0.00390097
0.00390052
0.0039002
0.00389998
0.00389975
0.00389947
0.00389922
0.00389891
0.0038985
0.00389814
0.00389793
0.00389784
0.0038976
0.00389716
0.00389677
0.00389656
0.00389653
0.00389664
0.00389679
0.00389682
0.00389672
0.00389658
0.00389648
0.00389643
0.00389639
0.00389633
0.00389626
0.00389627
0.00389668
0.00992816
0.0669077
0.0493179
0.0176218
0.0133241
0.0224172
0.0228553
0.013439
0.0079026
0.00571833
0.00479984
0.004397
0.00420924
0.00411207
0.00405397
0.00401412
0.00398413
0.0039608
0.0039436
0.00393142
0.00392297
0.00391713
0.00391286
0.00390979
0.00390765
0.00390609
0.00390499
0.00390419
0.00390345
0.00390273
0.00390211
0.00390162
0.00390124
0.00390089
0.00390057
0.00390021
0.00389976
0.00389935
0.00389901
0.0038987
0.0038984
0.00389814
0.00389798
0.00389777
0.00389735
0.0038969
0.0038966
0.00389651
0.00389659
0.00389674
0.0038968
0.00389671
0.00389655
0.00389642
0.00389635
0.00389631
0.00389626
0.00389619
0.00389618
0.00389659
0.0468658
0.327009
0.237401
0.0432964
0.0422372
0.104914
0.0750294
0.0272664
0.0116886
0.00684267
0.00515679
0.00452169
0.00426442
0.00414691
0.00408285
0.0040407
0.00400851
0.0039815
0.00395947
0.00394292
0.00393111
0.00392307
0.00391744
0.00391338
0.0039105
0.00390831
0.00390665
0.00390543
0.00390442
0.00390357
0.00390293
0.0039025
0.00390212
0.00390161
0.00390105
0.00390051
0.00389998
0.00389951
0.00389918
0.00389894
0.0038987
0.0038984
0.00389814
0.00389788
0.00389748
0.00389702
0.00389668
0.00389654
0.00389657
0.0038967
0.00389677
0.00389669
0.00389653
0.00389637
0.00389627
0.00389621
0.00389617
0.0038961
0.00389609
0.00389648
0.177478
1.07023
0.610729
0.279696
0.406359
0.50469
0.202344
0.0557772
0.0187843
0.00853723
0.00555722
0.00462872
0.00430717
0.00417511
0.00410676
0.00406231
0.00402917
0.00400136
0.00397718
0.00395737
0.00394211
0.00393124
0.00392362
0.00391816
0.00391425
0.00391123
0.00390885
0.00390716
0.00390594
0.0039049
0.00390408
0.00390349
0.00390296
0.00390224
0.0039014
0.00390072
0.0039002
0.00389978
0.00389947
0.00389921
0.00389895
0.00389865
0.0038983
0.00389796
0.00389757
0.00389713
0.00389679
0.00389662
0.00389659
0.00389665
0.00389671
0.00389665
0.0038965
0.00389631
0.00389618
0.00389611
0.00389607
0.003896
0.00389599
0.00389637
0.356994
1.60823
0.90553
3.5713
3.19284
0.903937
0.299814
0.0966406
0.0311341
0.0107925
0.00585163
0.00465805
0.00432148
0.00419673
0.00413004
0.00408284
0.00404688
0.00401819
0.00399362
0.00397273
0.00395537
0.00394181
0.00393174
0.00392432
0.00391902
0.00391505
0.00391186
0.00390956
0.00390799
0.00390668
0.00390547
0.00390443
0.00390361
0.00390275
0.00390177
0.00390098
0.0039005
0.00390017
0.00389984
0.00389947
0.00389913
0.00389884
0.00389848
0.00389808
0.00389765
0.00389724
0.00389692
0.00389673
0.00389664
0.00389662
0.00389662
0.00389659
0.00389644
0.00389625
0.00389609
0.003896
0.00389594
0.00389588
0.00389588
0.00389624
0.460352
1.64828
2.9204
9.62319
2.81821
0.991773
0.282525
0.128256
0.0454746
0.0124352
0.00576077
0.00456881
0.00431036
0.00421842
0.00415969
0.00410916
0.00406705
0.00403431
0.00400793
0.00398639
0.00396834
0.00395327
0.00394127
0.00393185
0.00392492
0.00391985
0.00391577
0.00391266
0.00391043
0.00390863
0.00390694
0.00390538
0.00390418
0.00390323
0.00390225
0.0039014
0.00390089
0.00390057
0.00390019
0.00389969
0.00389925
0.00389897
0.00389868
0.00389826
0.00389778
0.00389737
0.00389707
0.00389687
0.00389671
0.00389659
0.00389653
0.00389649
0.00389637
0.00389617
0.003896
0.00389588
0.00389581
0.00389575
0.00389575
0.00389611
0.351076
1.38661
5.31035
7.12431
2.74105
0.623424
0.237781
0.132912
0.0440497
0.0104978
0.00511979
0.00442801
0.00432048
0.00426082
0.00420402
0.00414597
0.00409395
0.00405314
0.00402173
0.00399778
0.00397913
0.00396376
0.00395107
0.00394044
0.00393206
0.00392574
0.00392057
0.0039164
0.00391321
0.00391065
0.00390846
0.0039065
0.00390492
0.00390382
0.00390287
0.00390194
0.00390129
0.00390088
0.00390045
0.00389988
0.00389936
0.00389909
0.0038989
0.00389853
0.00389798
0.00389751
0.00389722
0.00389701
0.00389679
0.00389658
0.00389644
0.00389637
0.00389625
0.00389607
0.00389589
0.00389576
0.00389566
0.0038956
0.00389562
0.00389597
0.269989
1.18906
7.08529
7.52674
3.60927
0.757478
0.199636
0.0887238
0.0189615
0.00588104
0.00460501
0.00448083
0.00443371
0.00435303
0.00427075
0.00419346
0.00412638
0.00407578
0.00403728
0.00400853
0.00398795
0.00397246
0.00396006
0.00394931
0.00394008
0.00393258
0.00392615
0.00392073
0.00391641
0.00391292
0.0039102
0.00390795
0.00390599
0.00390455
0.00390349
0.0039025
0.00390166
0.0039011
0.00390062
0.00390006
0.00389953
0.00389926
0.00389914
0.00389883
0.00389825
0.0038977
0.00389737
0.00389713
0.00389685
0.00389656
0.00389635
0.00389622
0.00389611
0.00389595
0.00389578
0.00389563
0.00389551
0.00389545
0.00389547
0.00389582
0.177795
1.07308
10.4667
6.79092
4.1747
1.43928
0.140243
0.0177015
0.00664774
0.00682227
0.00567209
0.00498896
0.00470855
0.00451273
0.00436708
0.00424891
0.00415975
0.00409943
0.00405536
0.0040213
0.00399695
0.00397995
0.00396762
0.00395732
0.00394804
0.0039399
0.00393239
0.00392573
0.00392027
0.00391572
0.00391225
0.00390966
0.00390731
0.00390536
0.00390401
0.00390294
0.00390199
0.00390129
0.00390077
0.00390028
0.00389979
0.0038995
0.00389939
0.00389915
0.00389857
0.00389794
0.00389754
0.00389725
0.0038969
0.00389654
0.00389625
0.00389606
0.00389593
0.0038958
0.00389564
0.00389548
0.00389536
0.00389529
0.00389531
0.00389566
0.12995
0.93268
7.82883
6.00391
4.62105
2.52505
0.119238
0.0385668
0.0451421
0.0202618
0.00875748
0.00596404
0.00515931
0.00473679
0.00448161
0.00430982
0.00419264
0.00412126
0.00407372
0.00403647
0.00400826
0.00398817
0.00397445
0.00396411
0.00395528
0.00394734
0.00393927
0.00393157
0.00392497
0.00391915
0.00391455
0.00391133
0.00390859
0.00390613
0.00390439
0.00390326
0.00390234
0.00390156
0.00390099
0.00390055
0.00390014
0.00389983
0.00389964
0.00389943
0.00389893
0.00389828
0.00389778
0.00389738
0.00389693
0.00389649
0.00389613
0.00389588
0.00389573
0.00389562
0.00389548
0.00389532
0.0038952
0.00389513
0.00389515
0.00389549
2.93412
1.48174
10.5582
5.93093
5.41121
4.86264
0.488939
0.0766946
0.071555
0.035493
0.0133063
0.00764592
0.00580057
0.00496541
0.0045765
0.00435836
0.00422147
0.00414129
0.0040902
0.00405125
0.00402112
0.00399841
0.00398235
0.00397081
0.00396214
0.00395494
0.00394691
0.00393838
0.00393048
0.00392303
0.00391688
0.00391266
0.00390948
0.00390671
0.00390471
0.00390356
0.00390276
0.00390199
0.00390135
0.00390093
0.00390059
0.00390022
0.00389986
0.00389961
0.00389928
0.00389874
0.00389816
0.00389756
0.00389694
0.00389639
0.00389596
0.00389567
0.00389551
0.00389541
0.0038953
0.00389516
0.00389503
0.00389496
0.00389498
0.00389531
2.87754
10.3945
6.25159
6.75478
7.63822
7.32247
2.37905
0.629243
0.113468
0.0325944
0.0213456
0.0104689
0.0063399
0.00506671
0.00460127
0.0043741
0.00424327
0.0041657
0.00411047
0.00406752
0.00403609
0.00401235
0.00399407
0.00398009
0.00397059
0.00396384
0.00395593
0.00394651
0.00393661
0.00392686
0.00391896
0.0039136
0.00390983
0.00390696
0.00390505
0.00390403
0.00390336
0.00390257
0.00390186
0.00390152
0.00390124
0.00390065
0.00389996
0.00389961
0.00389958
0.00389938
0.00389874
0.00389779
0.00389685
0.00389612
0.00389564
0.00389537
0.00389523
0.00389516
0.00389507
0.00389497
0.00389487
0.0038948