/*--------------------------------*- C++ -*----------------------------------*\
| =========                 |                                                 |
| \\      /  F ield         | OpenFOAM: The Open Source CFD Toolbox           |
|  \\    /   O peration     | Version:  v1912                                 |
|   \\  /    A nd           | Website:  www.openfoam.com                      |
|    \\/     M anipulation  |                                                 |
\*---------------------------------------------------------------------------*/
FoamFile
{
    version     2.0;
    format      ascii;
    class       volScalarField;
    location    "6";
    object      nut;
}
// * * * * * * * * * * * * * * * * * * * * * * * * * * * * * * * * * * * * * //

dimensions      [0 2 -1 0 0 0 0];


internalField   nonuniform List<scalar> 
20320
(
0.0347332
0.00761179
0.0076922
0.00777494
0.00786793
0.00817805
0.011568
0.0232412
0.0401745
0.0574091
0.0721102
0.0831425
0.090234
0.0934466
0.0928251
0.0880102
0.0781047
0.0620847
0.0397546
0.0167522
0.0351757
0.0351792
0.0346187
0.0244262
0.0273524
0.129241
0.34583
0.599824
0.831796
1.01105
1.12595
1.18126
1.19363
1.18442
1.17084
1.15591
1.12202
1.03035
0.819291
0.344875
0.0350213
0.0329102
0.0171716
0.0620596
0.254663
0.554877
0.879523
1.18605
1.45416
1.67268
1.83611
1.94435
2.00221
2.01686
1.99278
1.92542
1.79569
1.56349
1.1508
0.426197
0.0319187
0.0170695
0.0665595
0.292724
0.644964
1.0264
1.39142
1.72051
2.00398
2.23642
2.41498
2.53872
2.60777
2.62174
2.57686
2.46215
2.25429
1.90992
1.35382
0.488172
0.0190943
0.0390623
0.242283
0.621964
1.05391
1.47623
1.86467
2.20841
2.50176
2.74133
2.92487
3.05048
3.1157
3.11618
3.04353
2.88244
2.60641
2.17172
1.50961
0.538558
0.0200157
0.133035
0.497673
0.969143
1.44741
1.89636
2.30171
2.65664
2.95726
3.20087
3.38504
3.50683
3.56197
3.54358
3.44049
3.23486
2.89874
2.38918
1.64179
0.581946
0.0494987
0.295267
0.779368
1.30908
1.81927
2.2882
2.70689
3.07073
3.37672
3.62228
3.80453
3.91961
3.96183
3.92263
3.7891
3.54199
3.15276
2.57917
1.75908
0.620434
0.115002
0.496608
1.06401
1.63505
2.16963
2.65456
3.08414
3.4551
3.76488
4.01082
4.18953
4.29633
4.32448
4.26424
4.10159
3.81644
3.3799
2.7501
1.86562
0.655176
0.216357
0.714905
1.34272
1.94545
2.49972
2.99792
3.43656
3.81323
4.1256
4.37082
4.54504
4.64289
4.65681
4.57622
4.38631
4.06641
3.5873
2.90703
1.96403
0.686969
0.345411
0.93769
1.61129
2.23947
2.81017
3.3197
3.76609
4.14752
4.46176
4.70571
4.87511
4.96401
4.96423
4.86449
4.64939
4.29773
3.77989
3.05348
2.05622
0.716432
0.491122
1.15721
1.86658
2.51576
3.1006
3.62015
4.07353
4.4593
4.77521
5.01794
5.18282
5.26341
5.25096
5.13365
4.89552
4.51484
3.96144
3.19221
2.14379
0.744093
0.642607
1.36742
2.10528
2.77223
3.36961
3.89844
4.3586
4.74885
5.06685
5.30901
5.47028
5.54376
5.52021
5.38727
5.12841
4.72129
4.13505
3.3256
2.22823
0.770439
0.790433
1.56314
2.32404
3.00636
3.61525
4.15313
4.62037
5.01578
5.33686
5.57972
5.73891
5.80711
5.77455
5.62832
5.35128
4.92035
4.30373
3.45613
2.31116
0.795995
0.927039
1.73992
2.51974
3.21563
3.83545
4.38256
4.85759
5.25933
5.58501
5.83042
5.98971
6.05506
6.0162
5.8596
5.56736
5.11548
4.47095
3.58686
2.39476
0.821445
1.04695
1.89426
2.68982
3.39797
4.02844
4.58524
5.06912
5.47873
5.811
6.06134
6.22347
6.2891
6.24736
6.08404
5.78032
5.31098
4.64136
3.72226
2.48239
0.847854
1.14675
2.02391
2.83275
3.55217
4.19324
4.76038
5.25439
5.6737
6.01491
6.27304
6.44134
6.51105
6.47069
6.30528
5.9949
5.51273
4.82174
3.86941
2.57989
0.87715
1.22503
2.12801
2.94818
3.67811
4.32984
4.90811
5.41368
5.84471
6.19749
6.46662
6.64496
6.72325
6.68947
6.5278
6.21711
5.72855
5.0219
4.03949
2.69756
0.913179
1.28218
2.20713
3.03703
3.77687
4.43942
5.02966
5.54827
5.99317
6.36032
6.64398
6.83663
6.92866
6.90757
6.75681
6.45397
5.96794
5.2544
4.2484
2.85268
0.964104
1.32027
2.26325
3.10155
3.85079
4.52435
5.12739
5.66051
6.12145
6.50585
6.8077
7.01925
7.13065
7.12912
6.9976
6.71254
6.24047
5.53225
4.51335
3.06703
1.04648
1.34273
2.29969
3.14523
3.90339
4.5881
5.20469
5.75375
6.2328
6.63728
6.96097
7.19604
7.33262
7.35791
7.25468
6.99863
6.55409
5.86638
4.84781
3.35277
1.18412
0.00246485
0.0013311
0.00133716
0.0013418
0.00134646
0.00135052
0.00135385
0.00135649
0.00135836
0.00135963
0.00136027
0.00136031
0.0013599
0.0013592
0.00135821
0.00135702
0.00135548
0.00135362
0.00135168
0.00134959
0.00134748
0.00134534
0.00134314
0.00134085
0.00133847
0.00133601
0.00133366
0.00133134
0.001329
0.00132678
0.00132457
0.00132242
0.00132045
0.00131866
0.00131698
0.00131541
0.00131381
0.00131234
0.00131081
0.00130918
0.00130763
0.00130605
0.0013044
0.00130282
0.00130118
0.00129959
0.00129805
0.00129651
0.00129495
0.0012934
0.00129181
0.00129039
0.00128894
0.00128744
0.00128609
0.00128468
0.00128327
0.00128186
0.00128042
0.00127898
0.00252456
0.0163499
0.018354
0.0181487
0.0179377
0.01777
0.0176294
0.0175082
0.0174043
0.0173168
0.0172416
0.0171744
0.0171061
0.0170335
0.0169655
0.016901
0.0168456
0.0167999
0.0167674
0.0167514
0.0167506
0.0167518
0.0167497
0.0167412
0.0167307
0.016727
0.0167319
0.0167494
0.0167637
0.0167731
0.0167844
0.0167999
0.0168285
0.0168607
0.0168858
0.0169037
0.0169138
0.0169201
0.0169237
0.0169215
0.016919
0.016923
0.0169273
0.0169266
0.0169273
0.0169353
0.0169454
0.0169517
0.0169544
0.0169573
0.0169636
0.0169721
0.0169803
0.0169874
0.0169934
0.0169983
0.0170016
0.0170027
0.0169987
0.0169754
0.00254985
0.0228872
0.0308668
0.0312354
0.0310267
0.0308455
0.0306994
0.0305793
0.0304806
0.0304003
0.0303346
0.0302799
0.0302289
0.0301759
0.0301247
0.0300753
0.0300307
0.0299919
0.0299615
0.0299435
0.0299389
0.0299384
0.0299352
0.0299256
0.029912
0.0299025
0.0299016
0.0299121
0.0299237
0.0299299
0.029934
0.029941
0.0299582
0.0299805
0.0299983
0.0300097
0.030015
0.0300179
0.0300192
0.0300157
0.0300111
0.0300115
0.0300137
0.0300127
0.0300111
0.0300139
0.0300196
0.0300234
0.0300243
0.0300251
0.0300279
0.0300324
0.0300371
0.0300409
0.0300438
0.0300459
0.0300472
0.0300467
0.0300432
0.0300303
0.00257379
0.0239189
0.0340692
0.0349687
0.0348375
0.0346923
0.0345795
0.0344934
0.0344288
0.0343814
0.0343474
0.0343241
0.0343074
0.0342933
0.0342808
0.0342697
0.03426
0.0342517
0.0342452
0.0342417
0.0342417
0.0342431
0.0342425
0.0342387
0.0342329
0.034228
0.0342262
0.0342282
0.0342306
0.0342308
0.0342299
0.0342302
0.0342343
0.0342411
0.0342468
0.0342501
0.0342514
0.0342521
0.0342524
0.0342512
0.0342494
0.0342493
0.0342503
0.0342502
0.0342494
0.0342497
0.0342511
0.0342522
0.0342523
0.0342522
0.0342526
0.0342536
0.0342547
0.0342553
0.0342558
0.0342561
0.0342563
0.0342561
0.0342553
0.0342535
0.00259674
0.02421
0.0344707
0.0354601
0.0353593
0.0352292
0.0351282
0.0350535
0.0350005
0.0349638
0.0349396
0.0349252
0.0349178
0.0349148
0.0349146
0.0349163
0.0349191
0.0349223
0.0349254
0.0349279
0.03493
0.0349314
0.0349311
0.0349291
0.0349264
0.0349242
0.0349227
0.0349219
0.0349208
0.0349191
0.0349171
0.034916
0.0349169
0.0349194
0.0349221
0.0349239
0.0349246
0.0349249
0.0349251
0.0349245
0.0349236
0.0349238
0.0349246
0.0349247
0.0349242
0.0349239
0.0349243
0.0349247
0.0349245
0.0349241
0.0349239
0.034924
0.034924
0.0349237
0.0349235
0.0349234
0.0349234
0.0349233
0.0349232
0.0349241
0.00261991
0.0244265
0.0345263
0.0354799
0.0353885
0.0352657
0.0351691
0.035098
0.0350477
0.0350131
0.0349901
0.0349764
0.0349695
0.0349674
0.0349686
0.0349723
0.0349772
0.0349824
0.0349866
0.0349889
0.0349895
0.034989
0.0349879
0.0349869
0.0349862
0.0349855
0.0349839
0.0349817
0.0349796
0.0349786
0.0349784
0.0349786
0.0349793
0.0349807
0.0349826
0.0349846
0.0349858
0.0349863
0.0349863
0.0349858
0.0349853
0.0349855
0.0349861
0.0349861
0.0349855
0.0349852
0.0349856
0.0349859
0.0349857
0.0349852
0.034985
0.0349849
0.0349847
0.0349844
0.0349841
0.0349841
0.034984
0.0349838
0.0349837
0.0349849
0.00264375
0.0245251
0.0345395
0.035463
0.0353803
0.035265
0.0351725
0.0351031
0.0350531
0.035018
0.0349946
0.0349804
0.0349731
0.0349709
0.0349723
0.0349759
0.0349805
0.034985
0.0349881
0.0349892
0.0349885
0.034987
0.034986
0.0349859
0.0349862
0.0349858
0.0349839
0.0349812
0.0349794
0.0349793
0.0349808
0.0349827
0.0349841
0.0349849
0.0349859
0.0349875
0.0349889
0.0349895
0.0349896
0.0349895
0.0349895
0.0349896
0.0349897
0.0349895
0.0349892
0.0349891
0.0349894
0.0349896
0.0349894
0.034989
0.0349887
0.0349886
0.0349883
0.034988
0.0349879
0.0349879
0.0349878
0.0349876
0.0349874
0.0349886
0.00266792
0.0245875
0.0345285
0.0354344
0.0353624
0.0352563
0.0351689
0.0351019
0.0350528
0.035018
0.0349949
0.0349812
0.0349742
0.0349721
0.0349731
0.0349759
0.0349792
0.034982
0.034984
0.0349849
0.0349848
0.0349843
0.0349839
0.0349836
0.034983
0.0349815
0.0349796
0.034978
0.0349774
0.0349782
0.0349803
0.0349831
0.0349854
0.0349866
0.034987
0.0349873
0.0349878
0.0349885
0.0349891
0.0349897
0.0349902
0.0349903
0.0349899
0.0349896
0.0349896
0.0349897
0.0349899
0.0349899
0.0349898
0.0349895
0.0349891
0.0349888
0.0349885
0.0349884
0.0349884
0.0349884
0.0349883
0.034988
0.0349877
0.0349891
0.00269166
0.0247064
0.0345266
0.0354049
0.0353407
0.0352427
0.0351606
0.035097
0.03505
0.0350169
0.0349954
0.0349827
0.0349764
0.0349738
0.0349738
0.0349752
0.0349769
0.0349785
0.0349799
0.0349812
0.0349824
0.0349833
0.0349832
0.034982
0.0349799
0.0349775
0.0349759
0.0349758
0.0349767
0.0349784
0.0349806
0.0349834
0.0349862
0.034988
0.0349883
0.0349875
0.0349868
0.0349872
0.0349884
0.0349895
0.0349903
0.0349903
0.0349901
0.0349899
0.03499
0.0349902
0.0349901
0.0349901
0.03499
0.0349898
0.0349894
0.0349888
0.0349886
0.0349886
0.0349887
0.0349887
0.0349886
0.0349882
0.0349879
0.0349894
0.00271563
0.0248467
0.0345489
0.0353913
0.0353305
0.035238
0.0351601
0.0350991
0.0350536
0.0350215
0.0350006
0.0349881
0.034981
0.0349773
0.0349758
0.0349753
0.0349757
0.0349765
0.0349776
0.034979
0.0349807
0.0349818
0.0349815
0.0349797
0.0349774
0.0349754
0.0349745
0.034975
0.0349768
0.0349793
0.0349819
0.0349845
0.0349868
0.0349885
0.034989
0.034988
0.0349868
0.0349867
0.0349876
0.0349888
0.0349896
0.0349901
0.0349903
0.0349905
0.0349906
0.0349905
0.0349903
0.0349903
0.0349903
0.0349901
0.0349895
0.034989
0.0349887
0.0349888
0.0349889
0.0349889
0.0349887
0.0349884
0.0349882
0.0349897
0.00274017
0.0249072
0.0345709
0.0353908
0.0353322
0.0352449
0.0351708
0.0351119
0.035067
0.0350344
0.0350123
0.0349979
0.0349888
0.0349832
0.0349797
0.0349776
0.0349763
0.0349761
0.0349767
0.0349777
0.0349787
0.0349791
0.0349784
0.034977
0.0349758
0.0349751
0.0349751
0.034976
0.0349779
0.0349807
0.0349836
0.034986
0.0349873
0.034988
0.0349886
0.0349885
0.0349878
0.0349871
0.0349869
0.0349874
0.0349885
0.0349898
0.0349907
0.034991
0.034991
0.0349908
0.0349905
0.0349905
0.0349905
0.0349901
0.0349896
0.0349892
0.034989
0.034989
0.0349891
0.0349891
0.0349888
0.0349886
0.0349884
0.0349899
0.00276603
0.0249021
0.0345701
0.0353834
0.035331
0.0352511
0.0351825
0.0351269
0.0350834
0.0350507
0.0350271
0.0350103
0.0349987
0.0349906
0.0349852
0.0349814
0.0349787
0.0349771
0.0349766
0.0349765
0.0349765
0.0349761
0.0349755
0.0349751
0.0349752
0.0349758
0.0349768
0.0349783
0.0349803
0.034983
0.0349854
0.034987
0.0349875
0.0349875
0.0349881
0.034989
0.034989
0.034988
0.0349866
0.0349863
0.0349875
0.0349894
0.0349907
0.0349912
0.0349913
0.0349912
0.0349909
0.0349907
0.0349905
0.0349901
0.0349897
0.0349894
0.0349894
0.0349893
0.0349893
0.0349891
0.0349889
0.0349887
0.0349886
0.0349902
0.00279157
0.0249033
0.0345468
0.0353571
0.0353158
0.0352465
0.0351865
0.0351367
0.0350964
0.0350648
0.0350407
0.0350224
0.0350085
0.0349982
0.034991
0.0349858
0.0349822
0.0349795
0.0349776
0.0349762
0.0349753
0.0349747
0.0349744
0.0349746
0.0349755
0.0349769
0.0349788
0.0349811
0.0349835
0.0349856
0.0349869
0.0349875
0.0349876
0.0349876
0.0349881
0.0349891
0.0349895
0.0349885
0.034987
0.0349861
0.0349869
0.0349887
0.0349903
0.0349911
0.0349915
0.0349916
0.0349913
0.0349908
0.0349904
0.0349901
0.03499
0.0349898
0.0349897
0.0349896
0.0349894
0.0349892
0.034989
0.0349888
0.0349888
0.0349904
0.00281823
0.024985
0.0345188
0.0353141
0.0352857
0.0352303
0.0351814
0.0351393
0.0351039
0.0350749
0.0350515
0.0350326
0.0350174
0.0350055
0.0349968
0.0349905
0.0349862
0.034983
0.0349805
0.0349784
0.0349771
0.0349763
0.0349758
0.0349758
0.0349766
0.0349784
0.0349809
0.0349837
0.0349861
0.0349875
0.034988
0.0349881
0.0349883
0.0349885
0.0349885
0.0349887
0.034989
0.0349888
0.0349879
0.034987
0.0349868
0.0349878
0.0349893
0.0349906
0.0349916
0.034992
0.0349916
0.0349909
0.0349904
0.0349902
0.0349902
0.0349902
0.03499
0.0349897
0.0349895
0.0349893
0.034989
0.0349889
0.0349889
0.0349906
0.00284474
0.0251996
0.0345101
0.0352682
0.0352519
0.0352093
0.0351704
0.0351358
0.0351057
0.03508
0.0350582
0.0350402
0.0350253
0.0350134
0.0350042
0.0349973
0.0349925
0.0349891
0.0349866
0.0349846
0.0349829
0.034981
0.0349791
0.0349781
0.0349784
0.0349802
0.034983
0.0349856
0.0349874
0.0349883
0.034989
0.0349895
0.0349898
0.0349896
0.0349888
0.0349882
0.0349884
0.0349891
0.0349892
0.0349883
0.0349872
0.0349871
0.0349883
0.03499
0.0349914
0.034992
0.0349918
0.0349911
0.0349905
0.0349904
0.0349905
0.0349905
0.0349902
0.0349899
0.0349896
0.0349894
0.0349891
0.0349889
0.034989
0.0349908
0.00286989
0.0255593
0.0345436
0.0352438
0.0352348
0.0351998
0.0351664
0.035136
0.035109
0.0350854
0.0350655
0.035049
0.0350357
0.0350253
0.035017
0.0350104
0.0350052
0.0350011
0.0349975
0.034994
0.0349901
0.0349862
0.034983
0.0349813
0.0349813
0.0349827
0.0349847
0.0349866
0.034988
0.034989
0.0349901
0.034991
0.034991
0.0349903
0.0349889
0.0349881
0.0349886
0.0349897
0.0349901
0.0349894
0.0349879
0.034987
0.0349877
0.0349893
0.0349907
0.0349916
0.0349917
0.0349913
0.0349908
0.0349906
0.0349907
0.0349907
0.0349904
0.0349901
0.0349898
0.0349895
0.0349891
0.0349889
0.0349891
0.0349909
0.00289395
0.0259717
0.0346249
0.0352603
0.0352522
0.0352193
0.0351867
0.0351564
0.0351295
0.0351061
0.0350862
0.03507
0.0350568
0.0350466
0.0350384
0.0350311
0.0350241
0.0350171
0.0350098
0.0350026
0.0349959
0.0349904
0.0349868
0.0349853
0.0349852
0.0349856
0.0349863
0.0349875
0.0349889
0.0349901
0.034991
0.0349916
0.0349914
0.0349907
0.0349897
0.0349891
0.0349895
0.0349904
0.0349907
0.03499
0.0349887
0.0349875
0.0349874
0.0349885
0.0349897
0.0349908
0.0349916
0.0349916
0.0349912
0.0349909
0.0349908
0.0349908
0.0349906
0.0349903
0.0349899
0.0349895
0.0349892
0.0349889
0.0349891
0.0349909
0.00291782
0.0262515
0.0347258
0.0353184
0.0353089
0.0352745
0.0352391
0.0352062
0.0351769
0.0351511
0.0351284
0.0351088
0.0350919
0.0350775
0.0350647
0.0350526
0.0350406
0.0350286
0.0350173
0.0350076
0.0350001
0.0349945
0.0349911
0.0349896
0.0349892
0.034989
0.0349889
0.0349893
0.0349903
0.0349911
0.0349913
0.0349912
0.0349911
0.0349912
0.0349913
0.0349909
0.0349907
0.0349909
0.034991
0.0349907
0.0349897
0.0349883
0.0349875
0.0349877
0.0349888
0.0349901
0.0349913
0.0349918
0.0349916
0.0349912
0.034991
0.0349909
0.0349907
0.0349904
0.03499
0.0349895
0.0349892
0.034989
0.0349891
0.0349909
0.00294247
0.0263153
0.0348058
0.0353951
0.0353888
0.0353538
0.0353156
0.0352788
0.0352445
0.0352124
0.0351823
0.0351545
0.0351289
0.0351057
0.0350847
0.0350655
0.035048
0.0350326
0.0350198
0.0350102
0.0350037
0.0349992
0.0349962
0.0349942
0.0349932
0.0349927
0.0349921
0.0349919
0.0349918
0.0349917
0.0349912
0.034991
0.0349913
0.0349922
0.034993
0.0349927
0.0349917
0.0349913
0.0349915
0.0349915
0.0349907
0.034989
0.0349875
0.0349872
0.0349881
0.0349896
0.034991
0.0349918
0.0349918
0.0349914
0.0349911
0.034991
0.0349909
0.0349905
0.03499
0.0349895
0.0349892
0.034989
0.0349891
0.0349909
0.00296822
0.0262895
0.0348505
0.0354567
0.0354589
0.0354292
0.0353928
0.0353541
0.0353148
0.0352745
0.0352334
0.0351931
0.0351555
0.0351219
0.035093
0.0350689
0.0350492
0.0350336
0.0350217
0.035013
0.0350071
0.0350034
0.0350009
0.034999
0.0349975
0.0349963
0.0349952
0.0349941
0.034993
0.0349922
0.0349916
0.0349916
0.0349924
0.0349933
0.0349941
0.0349939
0.0349927
0.0349921
0.0349923
0.0349925
0.0349915
0.0349895
0.0349876
0.0349871
0.0349879
0.0349893
0.0349905
0.0349914
0.0349918
0.0349917
0.0349914
0.0349912
0.0349909
0.0349905
0.0349899
0.0349895
0.0349892
0.0349891
0.0349891
0.0349909
0.00299453
0.026313
0.0348884
0.035497
0.0355031
0.0354803
0.035451
0.0354173
0.0353781
0.0353321
0.0352812
0.035229
0.0351795
0.0351356
0.0350992
0.0350707
0.0350495
0.0350341
0.0350233
0.0350157
0.0350102
0.0350066
0.0350043
0.0350028
0.0350014
0.0349997
0.0349977
0.0349957
0.0349943
0.0349937
0.0349934
0.0349934
0.0349938
0.0349942
0.0349946
0.0349947
0.0349939
0.0349933
0.0349933
0.0349932
0.034992
0.0349899
0.034988
0.0349874
0.034988
0.0349891
0.03499
0.0349909
0.0349916
0.0349918
0.0349916
0.0349913
0.0349909
0.0349904
0.0349899
0.0349894
0.0349892
0.0349891
0.0349891
0.0349908
0.00302247
0.0263984
0.0349592
0.0355489
0.0355459
0.0355233
0.0355017
0.0354765
0.0354411
0.0353926
0.0353342
0.0352719
0.0352119
0.035158
0.0351132
0.0350781
0.0350523
0.0350346
0.0350234
0.0350167
0.0350124
0.0350094
0.0350072
0.0350056
0.0350041
0.0350024
0.0350003
0.034998
0.0349964
0.034996
0.034996
0.0349956
0.0349951
0.0349948
0.034995
0.0349956
0.0349955
0.0349947
0.034994
0.0349934
0.0349924
0.0349907
0.0349889
0.0349879
0.0349881
0.0349888
0.0349896
0.0349906
0.0349915
0.0349918
0.0349917
0.0349913
0.0349909
0.0349903
0.0349898
0.0349894
0.0349892
0.034989
0.0349891
0.0349908
0.00305146
0.0265937
0.0351286
0.0356711
0.035639
0.0356046
0.0355854
0.0355643
0.0355252
0.0354656
0.0353938
0.035319
0.0352482
0.0351855
0.0351332
0.0350917
0.0350607
0.0350389
0.0350252
0.0350177
0.0350138
0.0350118
0.0350101
0.0350083
0.0350064
0.0350048
0.0350033
0.0350015
0.0349997
0.0349987
0.0349983
0.0349975
0.0349964
0.0349959
0.0349961
0.0349969
0.034997
0.0349957
0.0349943
0.0349935
0.034993
0.0349919
0.0349902
0.0349886
0.0349881
0.0349884
0.0349893
0.0349904
0.0349913
0.0349918
0.0349917
0.0349912
0.0349907
0.0349902
0.0349897
0.0349893
0.0349891
0.034989
0.034989
0.0349907
0.00308346
0.027043
0.0355524
0.0359832
0.0358761
0.0358073
0.0357778
0.035746
0.0356784
0.0355797
0.0354729
0.0353738
0.0352872
0.0352146
0.0351561
0.0351106
0.0350762
0.0350514
0.0350342
0.0350235
0.0350174
0.0350144
0.0350128
0.0350113
0.0350094
0.0350077
0.0350065
0.0350054
0.0350034
0.0350014
0.0350001
0.0349991
0.0349982
0.0349977
0.0349977
0.034998
0.0349979
0.0349964
0.0349946
0.0349939
0.0349939
0.0349933
0.0349916
0.0349894
0.0349881
0.0349881
0.0349891
0.0349903
0.0349913
0.0349916
0.0349915
0.034991
0.0349905
0.03499
0.0349896
0.0349892
0.034989
0.0349889
0.0349889
0.0349906
0.00312315
0.0279251
0.0365187
0.0366892
0.0364156
0.036279
0.0362264
0.0361522
0.0359994
0.0358065
0.0356197
0.0354672
0.0353499
0.0352599
0.0351909
0.0351389
0.0351001
0.0350717
0.0350509
0.0350361
0.0350258
0.0350192
0.0350156
0.0350138
0.0350125
0.0350111
0.0350097
0.0350086
0.0350068
0.0350043
0.0350023
0.0350012
0.0350006
0.035
0.0349993
0.0349988
0.0349983
0.034997
0.0349954
0.0349948
0.0349948
0.0349945
0.0349928
0.0349901
0.0349883
0.0349881
0.0349891
0.0349903
0.0349912
0.0349914
0.0349912
0.0349908
0.0349903
0.0349899
0.0349895
0.0349891
0.0349889
0.0349887
0.0349887
0.0349905
0.003181
0.0296782
0.0384958
0.0380435
0.0374557
0.0372631
0.0372076
0.0370302
0.0366594
0.0362552
0.0359098
0.0356502
0.0354679
0.035341
0.0352502
0.0351837
0.0351342
0.0350979
0.0350711
0.0350516
0.0350374
0.035027
0.0350202
0.0350166
0.035015
0.0350141
0.0350128
0.0350114
0.0350098
0.0350077
0.0350055
0.035004
0.035003
0.0350019
0.0350006
0.0349995
0.0349989
0.0349982
0.034997
0.0349959
0.0349956
0.0349952
0.0349936
0.034991
0.0349889
0.0349884
0.0349891
0.0349902
0.0349909
0.0349912
0.034991
0.0349905
0.0349901
0.0349897
0.0349894
0.034989
0.0349887
0.0349885
0.0349886
0.0349903
0.00327809
0.033268
0.0422292
0.0404541
0.0393797
0.0392848
0.0393509
0.0388616
0.0379223
0.0370517
0.0364087
0.0359635
0.0356664
0.0354705
0.0353382
0.0352458
0.0351787
0.0351296
0.0350938
0.035068
0.0350503
0.0350375
0.0350283
0.0350221
0.0350186
0.035017
0.0350159
0.0350147
0.0350132
0.0350113
0.0350091
0.0350069
0.0350051
0.0350034
0.0350019
0.0350007
0.0350002
0.0349999
0.0349988
0.0349971
0.034996
0.0349955
0.0349943
0.0349921
0.0349899
0.0349889
0.0349892
0.0349899
0.0349906
0.0349909
0.0349908
0.0349903
0.0349898
0.0349895
0.0349892
0.0349889
0.0349886
0.0349883
0.0349883
0.03499
0.0034689
0.0410647
0.0505345
0.0452145
0.0432058
0.0439149
0.044432
0.0427751
0.0402377
0.0383285
0.0371315
0.0363978
0.0359421
0.0356514
0.0354594
0.0353285
0.0352363
0.0351703
0.0351235
0.0350901
0.0350672
0.0350513
0.0350396
0.0350311
0.0350251
0.0350215
0.0350198
0.0350186
0.035017
0.0350148
0.0350121
0.0350094
0.035007
0.0350051
0.0350039
0.0350028
0.035002
0.0350015
0.0350002
0.0349981
0.0349964
0.0349957
0.034995
0.0349933
0.0349911
0.0349897
0.0349892
0.0349895
0.0349902
0.0349907
0.0349907
0.0349902
0.0349896
0.0349892
0.034989
0.0349887
0.0349883
0.034988
0.034988
0.0349897
0.00403245
0.062846
0.0738852
0.0558005
0.050852
0.0554395
0.0574181
0.0514294
0.0444902
0.040314
0.0380808
0.0368987
0.0362478
0.0358624
0.0356131
0.0354413
0.0353181
0.0352288
0.035166
0.035122
0.0350913
0.0350698
0.035054
0.0350426
0.0350343
0.0350286
0.0350252
0.035023
0.0350207
0.0350178
0.0350147
0.0350118
0.0350095
0.0350078
0.0350066
0.0350054
0.0350039
0.0350026
0.035001
0.034999
0.0349972
0.0349962
0.0349957
0.0349945
0.0349923
0.0349904
0.0349893
0.0349892
0.0349898
0.0349905
0.0349906
0.0349901
0.0349894
0.0349889
0.0349887
0.0349884
0.0349881
0.0349877
0.0349876
0.0349893
0.00666144
0.139601
0.146599
0.0800514
0.0662533
0.0833753
0.0899294
0.069696
0.0520377
0.0434
0.0393362
0.0374473
0.0365406
0.036064
0.0357767
0.0355788
0.0354294
0.0353129
0.0352267
0.0351654
0.0351228
0.0350934
0.0350719
0.0350565
0.0350456
0.0350377
0.0350321
0.035028
0.0350243
0.0350207
0.0350176
0.0350151
0.0350131
0.0350113
0.0350095
0.0350076
0.0350054
0.0350034
0.0350016
0.035
0.0349985
0.0349972
0.0349964
0.0349954
0.0349933
0.034991
0.0349895
0.0349891
0.0349895
0.0349903
0.0349905
0.0349901
0.0349893
0.0349887
0.0349883
0.0349881
0.0349878
0.0349873
0.0349872
0.0349888
0.0151766
0.359842
0.338033
0.0368283
0.061593
0.149267
0.166216
0.102617
0.0646005
0.0479675
0.0409454
0.0380381
0.0368087
0.0362356
0.0359197
0.0357104
0.0355501
0.0354157
0.035306
0.0352232
0.035164
0.0351235
0.0350951
0.0350747
0.03506
0.0350489
0.0350405
0.0350343
0.0350293
0.035025
0.0350217
0.0350195
0.0350175
0.0350149
0.035012
0.0350092
0.0350066
0.0350042
0.0350025
0.0350013
0.0349999
0.0349985
0.0349972
0.0349959
0.034994
0.0349916
0.0349899
0.0349892
0.0349894
0.03499
0.0349903
0.03499
0.0349891
0.0349884
0.0349879
0.0349876
0.0349873
0.0349869
0.0349867
0.0349883
0.0279397
0.643743
0.265608
0.0184649
0.0875046
0.326684
0.270222
0.145579
0.0827798
0.0541037
0.0426781
0.0385376
0.0370141
0.0363734
0.0360379
0.0358181
0.0356534
0.0355149
0.0353945
0.0352956
0.0352192
0.0351646
0.0351262
0.0350987
0.0350789
0.0350637
0.0350517
0.0350432
0.035037
0.0350317
0.0350275
0.0350244
0.0350217
0.0350181
0.0350139
0.0350104
0.0350077
0.0350056
0.035004
0.0350026
0.0350012
0.0349997
0.0349981
0.0349964
0.0349944
0.0349922
0.0349905
0.0349896
0.0349895
0.0349898
0.0349901
0.0349897
0.0349889
0.0349881
0.0349874
0.0349871
0.0349868
0.0349864
0.0349863
0.0349877
0.0384867
0.526059
0.0534272
0.138491
0.26182
0.309302
0.228607
0.165454
0.104307
0.060842
0.043867
0.0386747
0.0370847
0.0364797
0.0361532
0.0359206
0.0357422
0.0355993
0.0354767
0.0353723
0.0352854
0.0352175
0.0351669
0.0351297
0.035103
0.0350829
0.0350669
0.0350553
0.0350472
0.0350406
0.0350344
0.0350292
0.035025
0.0350207
0.0350158
0.0350118
0.0350093
0.0350075
0.0350058
0.0350039
0.0350022
0.0350007
0.034999
0.034997
0.0349948
0.0349928
0.0349911
0.0349902
0.0349897
0.0349896
0.0349896
0.0349894
0.0349887
0.0349877
0.034987
0.0349866
0.0349862
0.0349859
0.0349857
0.0349871
0.0424972
0.226404
0.104559
0.250443
0.151524
0.128236
0.0944158
0.131591
0.114845
0.0637056
0.0433764
0.0382625
0.037035
0.0365871
0.0362995
0.036051
0.0358426
0.0356797
0.0355482
0.0354405
0.0353502
0.0352749
0.0352147
0.0351675
0.0351327
0.0351071
0.0350866
0.0350708
0.0350595
0.0350503
0.0350418
0.035034
0.035028
0.0350231
0.0350182
0.0350139
0.0350112
0.0350095
0.0350076
0.035005
0.0350028
0.0350014
0.035
0.0349979
0.0349955
0.0349934
0.0349919
0.0349909
0.0349901
0.0349895
0.0349892
0.0349889
0.0349883
0.0349873
0.0349865
0.034986
0.0349856
0.0349852
0.0349851
0.0349865
0.0375012
0.124134
0.145488
0.198983
0.11734
0.040238
0.0392822
0.0836672
0.0911587
0.0558594
0.0406356
0.0376064
0.0370859
0.0367941
0.036516
0.0362314
0.0359752
0.0357731
0.0356169
0.0354975
0.0354043
0.0353275
0.0352639
0.0352107
0.0351686
0.0351368
0.0351107
0.0350896
0.0350735
0.0350606
0.0350496
0.0350397
0.0350318
0.0350261
0.0350213
0.0350166
0.0350133
0.0350111
0.0350089
0.035006
0.0350035
0.0350021
0.0350011
0.0349992
0.0349965
0.0349941
0.0349926
0.0349916
0.0349905
0.0349894
0.0349887
0.0349883
0.0349877
0.0349868
0.0349859
0.0349853
0.0349848
0.0349845
0.0349844
0.0349858
0.0329912
0.0887525
0.171997
0.200068
0.147999
0.0375162
0.0241417
0.0477109
0.0479135
0.0423331
0.0384525
0.0378588
0.0376269
0.0372387
0.0368405
0.0364636
0.0361344
0.0358849
0.0356944
0.0355515
0.0354487
0.0353711
0.035309
0.0352551
0.0352088
0.0351711
0.0351387
0.0351115
0.0350897
0.0350721
0.0350584
0.035047
0.0350372
0.0350298
0.0350244
0.0350194
0.0350152
0.0350123
0.0350098
0.035007
0.0350044
0.0350029
0.0350023
0.0350007
0.0349978
0.0349951
0.0349934
0.0349922
0.0349908
0.0349893
0.0349882
0.0349876
0.034987
0.0349862
0.0349853
0.0349846
0.0349841
0.0349837
0.0349837
0.0349851
0.0268187
0.0733086
0.209502
0.184603
0.174514
0.0667758
0.0118829
0.019269
0.0431241
0.0478253
0.043207
0.0402038
0.0389154
0.0379982
0.0373051
0.0367349
0.0362993
0.0360019
0.0357841
0.0356154
0.035494
0.0354089
0.0353469
0.0352952
0.0352487
0.0352079
0.0351702
0.0351367
0.0351092
0.0350863
0.0350687
0.0350555
0.0350437
0.0350339
0.035027
0.0350216
0.0350169
0.0350133
0.0350106
0.0350081
0.0350057
0.0350042
0.0350035
0.0350023
0.0349994
0.0349963
0.0349943
0.0349928
0.034991
0.0349892
0.0349877
0.0349868
0.0349861
0.0349854
0.0349846
0.0349838
0.0349832
0.0349829
0.034983
0.0349844
0.0226216
0.0545701
0.164227
0.168977
0.206475
0.119166
0.00631538
0.0531742
0.117575
0.0849183
0.0545586
0.0444011
0.0409607
0.0390437
0.03785
0.03703
0.0364616
0.0361104
0.035875
0.0356905
0.0355504
0.0354501
0.0353813
0.0353294
0.0352852
0.0352453
0.0352048
0.0351661
0.0351328
0.0351035
0.0350803
0.0350639
0.0350501
0.0350378
0.035029
0.0350233
0.0350186
0.0350148
0.0350118
0.0350095
0.0350074
0.0350058
0.0350048
0.0350037
0.0350012
0.034998
0.0349955
0.0349934
0.0349912
0.0349889
0.0349871
0.0349858
0.0349851
0.0349845
0.0349838
0.034983
0.0349824
0.0349821
0.0349822
0.0349836
0.10927
0.0415035
0.187462
0.182226
0.290773
0.246558
0.0256301
0.0118491
0.0514186
0.0778936
0.0640536
0.0507763
0.0437067
0.0400846
0.0382967
0.0372625
0.0366018
0.0362093
0.0359569
0.0357639
0.0356143
0.0355013
0.0354211
0.0353634
0.0353199
0.0352835
0.0352432
0.0352004
0.0351605
0.035123
0.035092
0.0350706
0.0350546
0.0350408
0.0350308
0.0350249
0.0350208
0.0350169
0.0350137
0.0350115
0.0350097
0.0350077
0.035006
0.0350047
0.035003
0.0350003
0.0349974
0.0349944
0.0349912
0.0349884
0.0349862
0.0349848
0.034984
0.0349835
0.0349829
0.0349822
0.0349816
0.0349812
0.0349813
0.0349827
0.10797
0.204475
0.224409
0.420159
0.522063
0.431737
0.143145
0.0407494
0.00855945
0.00884374
0.0476497
0.0575709
0.0458051
0.0405365
0.0384135
0.0373377
0.0367067
0.0363276
0.0360563
0.0358444
0.0356884
0.0355705
0.0354798
0.0354103
0.0353625
0.0353278
0.0352879
0.0352409
0.0351918
0.0351434
0.0351039
0.0350768
0.0350575
0.0350428
0.0350329
0.0350276
0.035024
0.03502
0.0350164
0.0350146
0.0350131
0.03501
0.0350065
0.0350048
0.0350046
0.0350035
0.0350002
0.0349954
0.0349907
0.034987
0.0349846
0.0349832
0.0349825
0.0349822
0.0349818
0.0349812
0.0349807
0.0349804
0.0349805
0.0349818
1.3542
2.32094
3.17264
3.93919
4.63505
5.26582
5.83203
6.33105
6.75816
7.10707
7.36998
7.53726
7.59645
7.53069
7.31575
6.91508
6.27029
5.28313
3.78742
1.65636
1.3606
2.33264
3.18947
3.96376
4.67067
5.31607
5.90046
6.42109
6.87309
7.25017
7.54478
7.74773
7.84738
7.82801
7.66708
7.3306
6.76514
5.88599
4.57486
2.79096
1.36899
2.34165
3.20262
3.98395
4.70174
5.36218
5.96579
6.5096
6.98864
7.39669
7.72653
7.96976
8.11598
8.15161
8.05781
7.80757
7.3623
6.67136
5.69155
4.48627
1.38908
2.35645
3.22015
4.00722
4.73504
5.41027
6.0333
6.60091
7.10799
7.54841
7.91545
8.20162
8.39819
8.4944
8.47641
8.3265
8.0237
7.54982
6.91106
6.19072
1.4346
2.38872
3.25298
4.0434
4.77928
5.46779
6.10908
6.69957
7.23393
7.70618
8.11011
8.43923
8.68654
8.84421
8.90335
8.85459
8.6903
8.41095
8.03813
7.63246
1.5253
2.45462
3.3157
4.10525
4.84536
5.54369
6.19999
6.8102
7.36879
7.86989
8.30775
8.67679
8.9715
9.18647
9.31662
9.35818
9.31087
9.1819
8.99158
8.77708
1.68985
2.57648
3.42771
4.20908
4.94659
5.64835
6.31352
6.93751
7.51458
8.03894
8.50514
8.9082
9.24365
9.50767
9.69749
9.81225
9.8545
9.83209
9.75984
9.65924
1.97025
2.78479
3.6138
4.37455
5.09816
5.793
6.45744
7.08627
7.67344
8.21306
8.69974
9.12869
9.49587
9.7982
10.0339
10.2032
10.3089
10.3573
10.3581
10.323
2.42929
3.12013
3.90294
4.62227
5.31488
5.98822
6.63914
7.26139
7.84825
8.39338
8.89105
9.33624
9.7248
10.0537
10.3211
10.5272
10.6741
10.7659
10.8081
10.8066
3.1674
3.62856
4.31903
4.96636
5.60643
6.24145
6.8648
7.46812
8.04337
8.58331
9.08153
9.53244
9.93141
10.2749
10.5607
10.7878
10.957
11.0705
11.1307
11.1401
4.39081
4.33222
4.85712
5.40314
5.97309
6.55588
7.13938
7.71242
8.26515
8.7891
9.27696
9.72249
10.1204
10.4667
10.758
10.9919
11.1675
11.2839
11.3422
11.3484
5.39471
5.15362
5.48162
5.91852
6.41121
6.93339
7.46774
8.00072
8.52094
9.01855
9.48519
9.91395
10.2991
10.6362
10.9215
11.1492
11.3182
11.4231
11.4568
11.4269
6.11608
5.91448
6.16756
6.51128
6.92356
7.3782
7.85482
8.33855
8.81727
9.27935
9.7152
10.1171
10.4782
10.7926
11.0573
11.2591
11.3949
11.46
11.4473
11.3606
6.83762
6.63621
6.85957
7.14704
7.48917
7.87359
8.28581