/*--------------------------------*- C++ -*----------------------------------*\
| =========                 |                                                 |
| \\      /  F ield         | OpenFOAM: The Open Source CFD Toolbox           |
|  \\    /   O peration     | Version:  v1912                                 |
|   \\  /    A nd           | Website:  www.openfoam.com                      |
|    \\/     M anipulation  |                                                 |
\*---------------------------------------------------------------------------*/
FoamFile
{
    version     2.0;
    format      ascii;
    class       volScalarField;
    location    "6";
    object      p;
}
// * * * * * * * * * * * * * * * * * * * * * * * * * * * * * * * * * * * * * //

dimensions      [1 -1 -2 0 0 0 0];


internalField   nonuniform List<scalar> 
20320
(
390039
400366
400475
400580
400690
400810
400929
401056
401189
401354
401549
401776
402015
402229
402380
402456
402482
402494
402517
402544
370180
380144
380260
380371
380489
380623
380764
380908
381075
381277
381514
381772
382025
382240
382386
382456
382466
382451
382458
382549
350954
360591
360712
360825
360953
361089
361236
361397
361574
361770
361981
362199
362408
362589
362728
362821
362880
362935
363036
363258
332350
341680
341801
341916
342045
342183
342332
342492
342663
342843
343028
343214
343390
343549
343686
343801
343906
344026
344204
344497
314347
323383
323500
323617
323745
323881
324027
324180
324341
324506
324672
324836
324993
325141
325278
325410
325546
325709
325933
326260
296926
305676
305790
305908
306034
306167
306307
306452
306602
306753
306904
307053
307199
307340
307479
307621
307778
307968
308220
308568
280072
288542
288656
288773
288896
289025
289158
289294
289432
289571
289710
289847
289983
290119
290258
290408
290580
290789
291061
291427
263770
271971
272084
272200
272320
272442
272568
272694
272820
272946
273072
273197
273324
273454
273593
273748
273930
274154
274445
274830
248013
255949
256062
256175
256290
256406
256521
256636
256749
256861
256972
257084
257200
257323
257460
257617
257807
258044
258353
258760
232789
240467
240577
240688
240797
240903
241007
241106
241203
241298
241392
241489
241591
241704
241834
241991
242186
242436
242764
243197
218090
225511
225619
225725
225825
225920
226008
226091
226168
226241
226314
226390
226473
226571
226691
226844
227042
227303
227651
228114
203908
211075
211180
211278
211367
211447
211516
211577
211629
211676
211722
211771
211829
211905
212008
212150
212347
212617
212988
213487
190233
197149
197248
197337
197412
197472
197518
197552
197574
197588
197600
197613
197637
197681
197757
197881
198070
198346
198740
199281
177058
183722
183814
183890
183948
183985
184004
184005
183990
183965
183933
183901
183878
183877
183912
184003
184172
184448
184866
185458
164376
170791
170873
170934
170970
170980
170966
170930
170873
170799
170714
170624
170540
170474
170448
170484
170613
170875
171315
171972
152179
158346
158416
158458
158469
158449
158399
158321
158216
158087
157938
157776
157611
157458
157339
157285
157338
157554
158005
158747
140457
146379
146434
146454
146438
146386
146298
146175
146018
145828
145607
145360
145094
144823
144570
144370
144279
144381
144797
145645
129202
134880
134918
134916
134871
134785
134658
134490
134280
134026
133727
133384
132998
132578
132139
131715
131365
131200
131423
132335
118401
123840
123860
123833
123759
123641
123477
123267
123006
122690
122313
121868
121350
120754
120079
119334
118550
117815
117368
117854
108042
113247
113247
113196
113095
112947
112751
112504
112199
111827
111377
110835
110184
109403
108462
107318
105906
104131
101836
99470.2
8.37366
10.948
10.9762
11.0047
11.0287
11.0435
11.0476
11.0391
11.0174
10.9823
10.9342
10.8733
10.7985
10.7104
10.6102
10.4999
10.3802
10.2526
10.1173
9.97547
9.82755
9.67583
9.52169
9.36551
9.20979
9.0541
8.89848
8.74341
8.58943
8.4378
8.28868
8.14372
8.00333
7.86815
7.7375
7.61003
7.48692
7.36763
7.2531
7.14354
7.03919
6.94183
6.85058
6.76382
6.68123
6.60297
6.52909
6.45976
6.39579
6.3376
6.28423
6.23518
6.1905
6.14989
6.11457
6.08492
6.06001
6.03957
6.02419
6.01477
3.19425
5.81884
5.84787
5.87776
5.90394
5.92168
5.92919
5.9239
5.90536
5.87344
5.82788
5.76882
5.69602
5.61036
5.51208
5.40312
5.28446
5.15773
5.02293
4.88146
4.73417
4.58212
4.42777
4.27152
4.11505
3.95849
3.80225
3.64642
3.49156
3.33915
3.18906
3.04324
2.90177
2.76535
2.63363
2.50521
2.38119
2.26104
2.14577
2.03545
1.93022
1.83173
1.73945
1.65189
1.56851
1.48958
1.41523
1.34545
1.28081
1.22192
1.16795
1.11862
1.07367
1.03262
0.997023
0.967047
0.941996
0.92137
0.905732
0.896003
-2.08527
0.593415
0.625322
0.658326
0.68751
0.709878
0.721422
0.720332
0.705816
0.677317
0.634345
0.576767
0.505774
0.421845
0.325277
0.217647
0.0997076
-0.0271076
-0.161849
-0.303392
-0.450478
-0.602543
-0.757398
-0.913765
-1.07133
-1.22924
-1.38674
-1.54337
-1.69895
-1.85245
-2.00311
-2.14991
-2.29257
-2.43052
-2.56368
-2.69297
-2.81792
-2.9386
-3.05454
-3.16549
-3.2713
-3.37127
-3.46518
-3.5538
-3.63787
-3.71749
-3.79248
-3.86244
-3.9275
-3.98755
-4.04215
-4.09162
-4.13697
-4.17821
-4.21398
-4.24432
-4.26977
-4.29048
-4.30645
-4.31699
-7.46641
-4.73091
-4.69403
-4.65601
-4.62165
-4.59429
-4.5777
-4.57342
-4.58343
-4.60833
-4.64839
-4.70345
-4.77291
-4.85612
-4.95136
-5.05838
-5.17591
-5.30325
-5.43827
-5.58012
-5.7277
-5.8794
-6.03484
-6.19203
-6.35084
-6.51034
-6.66963
-6.82755
-6.98383
-7.13828
-7.28962
-7.43752
-7.58131
-7.72099
-7.85599
-7.98601
-8.11188
-8.23309
-8.34954
-8.46121
-8.5676
-8.66909
-8.76481
-8.85467
-8.93957
-9.01998
-9.09564
-9.16592
-9.23136
-9.29223
-9.34749
-9.39751
-9.44334
-9.48433
-9.52031
-9.55115
-9.57685
-9.5979
-9.61431
-9.62561
-12.9515
-10.1563
-10.1124
-10.0677
-10.0262
-9.99249
-9.96968
-9.95951
-9.96463
-9.9852
-10.022
-10.0742
-10.142
-10.2241
-10.3189
-10.4261
-10.5438
-10.6716
-10.8073
-10.9499
-11.0982
-11.2499
-11.406
-11.5646
-11.7249
-11.8861
-12.0473
-12.2069
-12.3644
-12.5198
-12.6719
-12.821
-12.9662
-13.1076
-13.2444
-13.3755
-13.5022
-13.624
-13.7411
-13.8537
-13.9609
-14.0635
-14.1608
-14.2522
-14.3383
-14.4193
-14.4956
-14.5667
-14.6326
-14.6937
-14.7497
-14.8007
-14.8469
-14.8876
-14.9237
-14.9551
-14.9811
-15.0028
-15.0195
-15.0312
-18.5408
-15.6854
-15.6323
-15.5789
-15.5292
-15.4871
-15.4564
-15.4401
-15.4394
-15.4551
-15.4882
-15.5376
-15.6034
-15.684
-15.7789
-15.8862
-16.0049
-16.1334
-16.2705
-16.4142
-16.5629
-16.716
-16.8729
-17.033
-17.1953
-17.3582
-17.521
-17.6826
-17.8418
-17.9981
-18.1515
-18.302
-18.4488
-18.5918
-18.7303
-18.8632
-18.991
-19.1135
-19.2315
-19.345
-19.4532
-19.5565
-19.6551
-19.7483
-19.8358
-19.9174
-19.9942
-20.0663
-20.1329
-20.1942
-20.2507
-20.3027
-20.3493
-20.39
-20.4265
-20.4583
-20.4849
-20.5068
-20.5239
-20.5358
-24.2406
-21.32
-21.2564
-21.1921
-21.132
-21.0803
-21.0407
-21.0164
-21.0089
-21.0196
-21.0486
-21.0952
-21.1585
-21.238
-21.3325
-21.4401
-21.5601
-21.6899
-21.8288
-21.974
-22.1237
-22.2788
-22.4373
-22.5993
-22.7634
-22.9281
-23.0925
-23.2561
-23.417
-23.5747
-23.7298
-23.8818
-24.0305
-24.1753
-24.3156
-24.4506
-24.5797
-24.7034
-24.8223
-24.9367
-25.046
-25.1501
-25.2498
-25.3448
-25.4338
-25.516
-25.5932
-25.666
-25.7336
-25.7956
-25.8528
-25.9054
-25.9521
-25.9934
-26.0302
-26.0626
-26.0899
-26.1118
-26.1291
-26.1411
-30.0554
-27.0647
-26.9882
-26.9104
-26.8373
-26.7738
-26.7239
-26.6899
-26.6748
-26.6799
-26.7043
-26.7481
-26.8093
-26.8876
-26.9814
-27.0898
-27.2113
-27.3428
-27.483
-27.63
-27.7826
-27.9397
-28.1006
-28.265
-28.4307
-28.5972
-28.7636
-28.9287
-29.0916
-29.2513
-29.4083
-29.5621
-29.7129
-29.8597
-30.0018
-30.1392
-30.27
-30.3953
-30.5153
-30.6305
-30.7409
-30.8462
-30.9471
-31.0434
-31.1335
-31.2169
-31.2947
-31.3678
-31.4362
-31.4995
-31.5576
-31.6104
-31.6574
-31.6997
-31.737
-31.7698
-31.7978
-31.8198
-31.8371
-31.8491
-35.9903
-32.9241
-32.8316
-32.7375
-32.6487
-32.5707
-32.5077
-32.4634
-32.4393
-32.4372
-32.4569
-32.4972
-32.5571
-32.6343
-32.7278
-32.8374
-32.9598
-33.0934
-33.2355
-33.3847
-33.5406
-33.7006
-33.8646
-34.0312
-34.1989
-34.3677
-34.5359
-34.7026
-34.8678
-35.03
-35.1893
-35.3451
-35.498
-35.6467
-35.7908
-35.9302
-36.0634
-36.1908
-36.3124
-36.4284
-36.5401
-36.6468
-36.7488
-36.846
-36.9371
-37.0219
-37.1007
-37.1738
-37.243
-37.3076
-37.3669
-37.42
-37.4676
-37.5107
-37.5487
-37.5819
-37.6105
-37.6328
-37.6499
-37.6617
-42.0508
-38.9037
-38.7912
-38.6771
-38.5689
-38.4735
-38.3953
-38.338
-38.3041
-38.2935
-38.3074
-38.3437
-38.4017
-38.4788
-38.5733
-38.6835
-38.8069
-38.9428
-39.0874
-39.2403
-39.399
-39.5627
-39.7304
-39.8992
-40.0698
-40.241
-40.4111
-40.5802
-40.7476
-40.9127
-41.0745
-41.2328
-41.3877
-41.5383
-41.6844
-41.8255
-41.9614
-42.0913
-42.2149
-42.3324
-42.4451
-42.5534
-42.6565
-42.7543
-42.8462
-42.9326
-43.0126
-43.0864
-43.1561
-43.2217
-43.2819
-43.3361
-43.3845
-43.4283
-43.4672
-43.5009
-43.5294
-43.5526
-43.5699
-43.581
-48.2436
-45.0077
-44.8716
-44.7324
-44.6008
-44.4839
-44.3879
-44.3154
-44.2696
-44.2503
-44.2573
-44.2891
-44.3445
-44.4218
-44.5174
-44.6289
-44.7545
-44.8922
-45.0404
-45.1972
-45.3597
-45.5282
-45.6993
-45.8717
-46.0455
-46.219
-46.392
-46.5636
-46.7336
-46.9015
-47.066
-47.2272
-47.3841
-47.5368
-47.6849
-47.8277
-47.966
-48.0984
-48.2244
-48.3438
-48.4581
-48.5677
-48.6718
-48.7702
-48.8632
-48.951
-49.0323
-49.1074
-49.1779
-49.244
-49.305
-49.3603
-49.4101
-49.4546
-49.4943
-49.5284
-49.5571
-49.581
-49.5985
-49.6094
-54.575
-51.2427
-51.077
-50.908
-50.7479
-50.6055
-50.4873
-50.3974
-50.3372
-50.3079
-50.3073
-50.335
-50.3879
-50.4638
-50.5604
-50.674
-50.8028
-50.9436
-51.0959
-51.2565
-51.4246
-51.5975
-51.7726
-51.95
-52.1274
-52.3041
-52.4804
-52.655
-52.8278
-52.9985
-53.1662
-53.3301
-53.4895
-53.6444
-53.7946
-53.9396
-54.08
-54.2144
-54.3423
-54.4644
-54.5805
-54.6915
-54.7966
-54.8959
-54.9902
-55.0789
-55.1617
-55.2387
-55.3104
-55.3769
-55.4382
-55.4947
-55.546
-55.5917
-55.6322
-55.6668
-55.6958
-55.72
-55.7378
-55.749
-61.0563
-57.6156
-57.4137
-57.2084
-57.0136
-56.8408
-56.6963
-56.5855
-56.5089
-56.4673
-56.4585
-56.4811
-56.5317
-56.6068
-56.7042
-56.8205
-56.9526
-57.0981
-57.255
-57.4207
-57.5941
-57.7717
-57.9521
-58.1345
-58.3163
-58.4977
-58.6779
-58.8562
-59.0326
-59.2063
-59.3772
-59.5441
-59.7058
-59.8631
-60.0158
-60.1633
-60.3056
-60.4416
-60.5715
-60.6959
-60.8139
-60.9262
-61.0327
-61.1334
-61.2291
-61.3189
-61.4032
-61.4822
-61.555
-61.6224
-61.6844
-61.7416
-61.7943
-61.8415
-61.8827
-61.9178
-61.9474
-61.9718
-61.9898
-62.0018
-67.699
-64.1355
-63.8887
-63.638
-63.4012
-63.1912
-63.0164
-62.8806
-62.785
-62.7292
-62.7112
-62.7276
-62.7758
-62.8513
-62.9501
-63.0696
-63.2057
-63.3566
-63.5189
-63.6906
-63.8693
-64.0524
-64.2393
-64.4268
-64.614
-64.8009
-64.9859
-65.1688
-65.3492
-65.5266
-65.701
-65.8708
-66.0354
-66.1954
-66.3504
-66.5006
-66.6448
-66.7825
-66.9144
-67.0407
-67.1606
-67.2741
-67.3821
-67.4845
-67.5817
-67.6731
-67.7591
-67.8395
-67.9136
-67.9822
-68.0453
-68.1034
-68.1572
-68.2055
-68.2477
-68.2836
-68.314
-68.3383
-68.3566
-68.3694
-74.5184
-70.8131
-70.5108
-70.2039
-69.9151
-69.6602
-69.4484
-69.2832
-69.1659
-69.0939
-69.0654
-69.0762
-69.1218
-69.1977
-69.2989
-69.4219
-69.5634
-69.7204
-69.889
-70.0674
-70.2522
-70.4423
-70.6353
-70.8288
-71.0227
-71.2154
-71.4061
-71.5945
-71.7795
-71.961
-72.1391
-72.3122
-72.4803
-72.6433
-72.801
-72.9537
-73.0996
-73.2393
-73.3733
-73.5013
-73.6229
-73.7381
-73.8474
-73.9513
-74.0501
-74.1436
-74.2314
-74.3131
-74.3884
-74.4583
-74.523
-74.5826
-74.6371
-74.6863
-74.7293
-74.7664
-74.7973
-74.8218
-74.8407
-74.8539
-81.5298
-77.6638
-77.2905
-76.9137
-76.5611
-76.2514
-75.9947
-75.7953
-75.6522
-75.5622
-75.5217
-75.5261
-75.5694
-75.646
-75.7508
-75.8785
-76.0263
-76.1904
-76.3668
-76.5529
-76.7453
-76.9427
-77.1421
-77.343
-77.5441
-77.7434
-77.9408
-78.1349
-78.3252
-78.5113
-78.6929
-78.8699
-79.042
-79.2084
-79.3693
-79.5244
-79.6723
-79.8144
-79.9505
-80.0799
-80.2033
-80.3205
-80.4313
-80.5367
-80.6368
-80.7321
-80.822
-80.9051
-80.9819
-81.0531
-81.1195
-81.1808
-81.2363
-81.2861
-81.3298
-81.368
-81.3995
-81.4243
-81.4439
-81.4573
-88.7584
-84.7039
-84.2399
-83.7749
-83.3433
-82.9667
-82.6571
-82.4168
-82.2437
-82.1334
-82.0794
-82.0763
-82.1172
-82.1957
-82.3057
-82.4408
-82.5962
-82.7684
-82.9537
-83.1484
-83.3497
-83.5553
-83.763
-83.9721
-84.1803
-84.3871
-84.5918
-84.7925
-84.9884
-85.1792
-85.3649
-85.5461
-85.7223
-85.8925
-86.0568
-86.2143
-86.365
-86.5099
-86.648
-86.7792
-86.9045
-87.0236
-87.1363
-87.2434
-87.3446
-87.4412
-87.5327
-87.6178
-87.6966
-87.7693
-87.837
-87.9
-87.9569
-88.0072
-88.0516
-88.0904
-88.1226
-88.1482
-88.1682
-88.1819
-96.2373
-91.9514
-91.375
-90.7973
-90.2656
-89.8077
-89.4343
-89.1459
-88.9384
-88.8045
-88.7365
-88.7259
-88.7652
-88.8469
-88.963
-89.1071
-89.2727
-89.4551
-89.6504
-89.8554
-90.0673
-90.2824
-90.5
-90.7176
-90.934
-91.1491
-91.3613
-91.5689
-91.7709
-91.967
-92.1573
-92.3429
-92.5232
-92.6975
-92.8651
-93.0254
-93.1796
-93.3273
-93.468
-93.6016
-93.7289
-93.8498
-93.9645
-94.0734
-94.1761
-94.2739
-94.3663
-94.4534
-94.5346
-94.609
-94.6782
-94.7424
-94.8002
-94.8518
-94.8969
-94.9359
-94.9687
-94.9951
-95.0156
-95.0298
-104.011
-99.4374
-98.7117
-97.9912
-97.3353
-96.7771
-96.327
-95.9825
-95.735
-95.5746
-95.4911
-95.4734
-95.5123
-95.5982
-95.7228
-95.8775
-96.0554
-96.2504
-96.4585
-96.676
-96.8997
-97.1264
-97.3544
-97.5817
-97.808
-98.0321
-98.2518
-98.4665
-98.6752
-98.8773
-99.0727
-99.2631
-99.4476
-99.6259
-99.797
-99.9608
-100.119
-100.269
-100.413
-100.549
-100.679
-100.802
-100.918
-101.029
-101.134
-101.233
-101.326
-101.415
-101.498
-101.575
-101.646
-101.711
-101.769
-101.822
-101.868
-101.908
-101.94
-101.968
-101.989
-102.003
-112.139
-107.198
-106.274
-105.368
-104.558
-103.876
-103.336
-102.924
-102.63
-102.44
-102.339
-102.315
-102.355
-102.447
-102.583
-102.751
-102.944
-103.155
-103.378
-103.61
-103.847
-104.087
-104.327
-104.566
-104.803
-105.036
-105.264
-105.487
-105.703
-105.911
-106.113
-106.308
-106.497
-106.68
-106.854
-107.022
-107.183
-107.337
-107.484
-107.624
-107.756
-107.881
-108
-108.113
-108.219
-108.32
-108.415
-108.505
-108.59
-108.669
-108.741
-108.806
-108.866
-108.919
-108.967
-109.007
-109.04
-109.067
-109.089
-109.104
-120.703
-115.284
-114.093
-112.945
-111.937
-111.11
-110.459
-109.969
-109.62
-109.396
-109.277
-109.248
-109.292
-109.394
-109.544
-109.729
-109.941
-110.17
-110.411
-110.66
-110.913
-111.167
-111.422
-111.674
-111.922
-112.165
-112.402
-112.633
-112.857
-113.073
-113.282
-113.482
-113.676
-113.862
-114.041
-114.213
-114.378
-114.535
-114.685
-114.828
-114.963
-115.091
-115.213
-115.327
-115.436
-115.539
-115.635
-115.727
-115.813
-115.894
-115.967
-116.033
-116.093
-116.147
-116.195
-116.236
-116.27
-116.297
-116.319
-116.334
-129.821
-123.761
-122.205
-120.736
-119.48
-118.472
-117.692
-117.108
-116.696
-116.433
-116.297
-116.265
-116.317
-116.435
-116.604
-116.81
-117.044
-117.295
-117.557
-117.825
-118.097
-118.369
-118.639
-118.905
-119.166
-119.42
-119.667
-119.906
-120.138
-120.363
-120.579
-120.786
-120.985
-121.176
-121.359
-121.535
-121.704
-121.865
-122.018
-122.164
-122.302
-122.434
-122.557
-122.674
-122.785
-122.89
-122.989
-123.082
-123.169
-123.251
-123.326
-123.393
-123.454
-123.508
-123.556
-123.597
-123.632
-123.66
-123.682
-123.696
-139.66
-132.728
-130.663
-128.764
-127.192
-125.963
-125.026
-124.331
-123.847
-123.543
-123.39
-123.361
-123.427
-123.566
-123.76
-123.993
-124.254
-124.532
-124.819
-125.111
-125.403
-125.695
-125.982
-126.264
-126.538
-126.804
-127.062
-127.31
-127.552
-127.785
-128.009
-128.222
-128.427
-128.623
-128.811
-128.992
-129.164
-129.329
-129.487
-129.636
-129.778
-129.912
-130.038
-130.157
-130.27
-130.377
-130.478
-130.573
-130.662
-130.744
-130.82
-130.888
-130.95
-131.004
-131.052
-131.093
-131.129
-131.158
-131.179
-131.193
-150.476
-142.33
-139.538
-137.054
-135.077
-133.578
-132.45
-131.619
-131.049
-130.705
-130.542
-130.522
-130.612
-130.781
-131.009
-131.276
-131.57
-131.88
-132.197
-132.516
-132.832
-133.146
-133.453
-133.752
-134.041
-134.32
-134.589
-134.849
-135.1
-135.341
-135.573
-135.794
-136.005
-136.206
-136.4
-136.585
-136.761
-136.931
-137.092
-137.245
-137.391
-137.528
-137.657
-137.778
-137.893
-138.002
-138.105
-138.201
-138.291
-138.375
-138.452
-138.521
-138.583
-138.638
-138.686
-138.727
-138.764
-138.793
-138.814
-138.827
-162.74
-152.738
-148.916
-145.635
-143.147
-141.316
-139.945
-138.942
-138.272
-137.893
-137.731
-137.736
-137.861
-138.074
-138.346
-138.657
-138.993
-139.341
-139.693
-140.043
-140.388
-140.725
-141.054
-141.372
-141.678
-141.972
-142.254
-142.525
-142.785
-143.035
-143.276
-143.505
-143.722
-143.929
-144.128
-144.317
-144.498
-144.672
-144.838
-144.995
-145.145
-145.285
-145.416
-145.541
-145.657
-145.768
-145.872
-145.969
-146.061
-146.146
-146.223
-146.294
-146.357
-146.412
-146.46
-146.502
-146.538
-146.567
-146.588
-146.602
-177.065
-164.279
-158.943
-154.576
-151.441
-149.185
-147.476
-146.244
-145.467
-145.069
-144.932
-144.982
-145.164
-145.436
-145.767
-146.134
-146.52
-146.914
-147.308
-147.693
-148.069
-148.435
-148.788
-149.126
-149.451
-149.761
-150.058
-150.341
-150.611
-150.871
-151.12
-151.357
-151.581
-151.795
-151.999
-152.193
-152.379
-152.556
-152.726
-152.888
-153.041
-153.184
-153.319
-153.446
-153.566
-153.678
-153.783
-153.881
-153.973
-154.059
-154.138
-154.209
-154.273
-154.328
-154.376
-154.419
-154.455
-154.483
-154.505
-154.519
-194.398
-177.48
-169.913
-164.051
-160.075
-157.18
-154.938
-153.401
-152.54
-152.172
-152.107
-152.24
-152.507
-152.861
-153.269
-153.705
-154.154
-154.602
-155.043
-155.47
-155.882
-156.277
-156.656
-157.018
-157.363
-157.691
-158.003
-158.299
-158.581
-158.852
-159.109
-159.354
-159.586
-159.806
-160.015
-160.215
-160.405
-160.586
-160.76
-160.926
-161.082
-161.229
-161.367
-161.497
-161.619
-161.734
-161.839
-161.938
-162.031
-162.117
-162.197
-162.269
-162.333
-162.389
-162.438
-162.481
-162.517
-162.546
-162.567
-162.581
-216.171
-193.331
-182.507
-174.42
-169.198
-165.208
-162.064
-160.167
-159.339
-159.128
-159.218
-159.487
-159.876
-160.341
-160.847
-161.371
-161.894
-162.408
-162.904
-163.378
-163.83
-164.259
-164.666
-165.053
-165.419
-165.766
-166.094
-166.404
-166.7
-166.981
-167.247
-167.501
-167.74
-167.967
-168.182
-168.387
-168.582
-168.767
-168.945
-169.113
-169.272
-169.422
-169.564
-169.697
-169.822
-169.938
-170.045
-170.145
-170.238
-170.324
-170.404
-170.477
-170.542
-170.599
-170.648
-170.692
-170.728
-170.757
-170.778
-170.792
-244.561
-213.998
-198.154
-185.616
-178.486
-173.142
-168.553
-166.224
-165.68
-165.855
-166.224
-166.7
-167.258
-167.868
-168.5
-169.131
-169.745
-170.334
-170.894
-171.421
-171.917
-172.382
-172.821
-173.234
-173.623
-173.989
-174.334
-174.66
-174.969
-175.261
-175.537
-175.799
-176.046
-176.279
-176.501
-176.712
-176.911
-177.101
-177.281
-177.452
-177.614
-177.767
-177.912
-178.048
-178.175
-178.293
-178.402
-178.503
-178.596
-178.682
-178.763
-178.836
-178.901
-178.959
-179.009
-179.053
-179.089
-179.119
-179.14
-179.154
-282.411
-243.33
-219.195
-197.714
-187.074
-179.885
-174.137
-171.533
-171.549
-172.321
-173.105
-173.864
-174.644
-175.442
-176.23
-176.991
-177.711
-178.387
-179.018
-179.604
-180.148
-180.654
-181.126
-181.567
-181.979
-182.366
-182.729
-183.071
-183.393
-183.696
-183.983
-184.253
-184.508
-184.748
-184.976
-185.192
-185.396
-185.59
-185.773
-185.947
-186.112
-186.268
-186.414
-186.552
-186.681
-186.801
-186.912
-187.015
-187.108
-187.195
-187.275
-187.348
-187.414
-187.473
-187.524
-187.567
-187.604
-187.634
-187.656
-187.67
-331.772
-286.447
-251.907
-210.936
-192.92
-183.529
-177.877
-176.351
-177.127
-178.597
-179.873
-180.976
-182.035
-183.065
-184.044
-184.958
-185.801
-186.575
-187.287
-187.935
-188.531
-189.079
-189.586
-190.055
-190.493
-190.901
-191.283
-191.64
-191.975
-192.29
-192.586
-192.865
-193.128
-193.375
-193.608
-193.83
-194.039
-194.237
-194.423
-194.599
-194.767
-194.925
-195.074
-195.214
-195.344
-195.465
-195.578
-195.682
-195.776
-195.864
-195.944
-196.017
-196.083
-196.142
-196.194
-196.238
-196.274
-196.303
-196.326
-196.342
-391.056
-348.446
-309.562
-232.686
-189.114
-182.282
-179.901
-180.7
-182.593
-184.75
-186.552
-188.05
-189.442
-190.753
-191.959
-193.05
-194.031
-194.913
-195.707
-196.425
-197.075
-197.666
-198.208
-198.708
-199.171
-199.6
-200
-200.373
-200.721
-201.047
-201.353
-201.641
-201.911
-202.165
-202.404
-202.631
-202.845
-203.045
-203.234
-203.414
-203.584
-203.745
-203.895
-204.037
-204.168
-204.29
-204.404
-204.509
-204.605
-204.693
-204.773
-204.846
-204.913
-204.972
-205.024
-205.069
-205.105
-205.134
-205.157
-205.173
-452.882
-423.376
-411.899
-307.128
-166.185
-176.131
-182.625
-184.618
-187.512
-190.671
-193.159
-195.13
-196.904
-198.539
-200.003
-201.29
-202.421
-203.417
-204.298
-205.083
-205.787
-206.423
-207.001
-207.53
-208.017
-208.467
-208.884
-209.271
-209.633
-209.97
-210.286
-210.583
-210.86
-211.12
-211.365
-211.596
-211.814
-212.018
-212.21
-212.392
-212.564
-212.727
-212.879
-213.022
-213.155
-213.278
-213.392
-213.498
-213.595
-213.683
-213.764
-213.836
-213.903
-213.963
-214.016
-214.061
-214.097
-214.125
-214.148
-214.164
-497.303
-490.62
-542.195
-559.433
-169.108
-176.364
-184.111
-187.041
-191.828
-196.454
-199.818
-202.324
-204.504
-206.485
-208.223
-209.716
-210.998
-212.106
-213.073
-213.925
-214.682
-215.36
-215.972
-216.529
-217.039
-217.508
-217.941
-218.342
-218.716
-219.065
-219.39
-219.694
-219.978
-220.244
-220.494
-220.73
-220.952
-221.16
-221.355
-221.538
-221.712
-221.876
-222.03
-222.173
-222.308
-222.432
-222.547
-222.653
-222.751
-222.839
-222.919
-222.992
-223.059
-223.12
-223.174
-223.219
-223.255
-223.283
-223.304
-223.32
-503.555
-526.745
-608.39
-625.638
-127.156
-186.951
-184.793
-189.511
-197.37
-203.068
-206.904
-209.808
-212.362
-214.678
-216.684
-218.374
-219.798
-221.009
-222.055
-222.966
-223.77
-224.486
-225.129
-225.712
-226.243
-226.73
-227.178
-227.592
-227.977
-228.335
-228.669
-228.98
-229.271
-229.543
-229.797
-230.037
-230.262
-230.473
-230.671
-230.856
-231.031
-231.196
-231.35
-231.495
-231.63
-231.756
-231.872
-231.979
-232.076
-232.164
-232.244
-232.317
-232.384
-232.445
-232.5
-232.544
-232.58
-232.608
-232.629
-232.643
-472.305
-526.276
-611.081
-771.476
-178.28
-173.968
-186.368
-199.297
-206.916
-211.451
-214.759
-217.743
-220.608
-223.229
-225.47
-227.324
-228.862
-230.156
-231.263
-232.222
-233.065
-233.812
-234.482
-235.086
-235.636
-236.138
-236.6
-237.027
-237.421
-237.787
-238.128
-238.445
-238.742
-239.018
-239.277
-239.52
-239.748
-239.962
-240.162
-240.349
-240.525
-240.691
-240.845
-240.99
-241.126
-241.252
-241.369
-241.476
-241.574
-241.661
-241.741
-241.815
-241.881
-241.943
-241.997
-242.041
-242.076
-242.105
-242.125
-242.139
-432.582
-483.673
-559.664
-657.852
-786.88
-177.672
-195.224
-214.2
-219.299
-220.923
-223.268
-226.26
-229.411
-232.282
-234.68
-236.63
-238.234
-239.576
-240.72
-241.711
-242.58
-243.35
-244.039
-244.66
-245.224
-245.74
-246.213
-246.648
-247.05
-247.423
-247.769
-248.092
-248.394
-248.674
-248.936
-249.182
-249.413
-249.629
-249.83
-250.018
-250.196
-250.361
-250.516
-250.66
-250.796
-250.923
-251.039
-251.147
-251.245
-251.333
-251.413
-251.486
-251.553
-251.613
-251.666
-251.71
-251.746
-251.775
-251.794
-251.807
-413.426
-435.757
-478.692
-626.898
-445.345
-221.435
-216.513
-228.498
-230.503
-230.557
-232.476
-235.68
-239.06
-242.02
-244.423
-246.361
-247.957
-249.3
-250.45
-251.451
-252.331
-253.113
-253.814
-254.446
-255.02
-255.543
-256.023
-256.464
-256.872
-257.25
-257.601
-257.928
-258.233
-258.517
-258.782
-259.03
-259.262
-259.479
-259.681
-259.87
-260.047
-260.213
-260.369
-260.513
-260.649
-260.775
-260.89
-260.997
-261.095
-261.184
-261.264
-261.338
-261.404
-261.463
-261.514
-261.557
-261.594
-261.622
-261.642
-261.655
-431.964
-402.421
-450.12
-717.873
-734.998
-262.519
-253.683
-247.296
-242.216
-241.424
-243.403
-246.676
-249.923
-252.617
-254.78
-256.558
-258.059
-259.348
-260.469
-261.455
-262.33
-263.112
-263.814
-264.449
-265.026
-265.553
-266.036
-266.481
-266.892
-267.272
-267.626
-267.956
-268.263
-268.549
-268.816
-269.066
-269.298
-269.515
-269.718
-269.907
-270.083
-270.249
-270.405
-270.55
-270.684
-270.809
-270.924
-271.03
-271.127
-271.215
-271.296
-271.37
-271.436
-271.493
-271.542
-271.585
-271.622
-271.65
-271.67
-271.683
-1215.15
-408.613
-926.209
-1232.96
97.486
-331.605
-293.875
-270.559
-258.996
-256.183
-257.48
-259.88
-262.168
-264.084
-265.739
-267.22
-268.548
-269.733
-270.792
-271.739
-272.59
-273.356
-274.049
-274.677
-275.25
-275.775
-276.258
-276.703
-277.115
-277.495
-277.85
-278.18
-278.488
-278.775
-279.043
-279.292
-279.524
-279.741
-279.944
-280.131
-280.306
-280.472
-280.628
-280.772
-280.906
-281.03
-281.143
-281.248
-281.343
-281.431
-281.513
-281.586
-281.652
-281.707
-281.755
-281.797
-281.833
-281.86
-281.881
-281.894
98115.2
103087
103068
102993
102869
102697
102475
102199
101858
101440
100929
100303
99534.1
98584.5
97394.1
95860.1
93780
90679.6
85145.1
73879.4
88339.6
93262.5
93223.8
93129.2
92985.3
92795.1
92556
92260.2
91895.1
91443.7
90884.9
90191.9
89329.5
88247.8
86871.2
85074.9
82637.3
79143.6
73803.4
65871.8
78625.6
83496.9
83440.7
83329.3
83172
82971.6
82724.2
82419
82040.2
81567.2
80975
80232.8
79301
78125.3
76627.3
74688.1
72120.9
68633
63794.3
57156.9
68972.5
73793.4
73723.7
73601.7
73439
73238.4
72993.1
72689.4
72307.7
71824.1
71211
70435.1
69455.2
68217
66646.7
64640.4
62051.4
58681.3
54299.2
48758.1
59376.1
64153.3
64076.9
63953.2
63796.5
63607.8
63376.8
63085.1
62709.7
62224.1
61598.9
60800.1
59787
58508.2
56898
54871.5
52320.5
49120.6
45163.2
40444.9
49829.9
54576.9
54501.5
54387
54250.7
54089.4
53886
53616.3
53253.7
52770.6
52137.6
51321.6
50283.7
48977.5
47347.2
45327.6
42845.5
39831
36245.4
32136.4
40333.7
45066.3
44994.8
44900.4
44802.7
44687.8
44526.5
44286.9
43940
43459.2
42818
41985.9
40927.2
39600.7
37961.3
35962.3
33560.6
30724.7
27450.5
23794.7
30926.4
35622.2
35538.5
35481.4
35453.1
35411.2
35307
35101.8
34767.3
34282.9
33628.4
32778.7
31701.3
30358.9
28714.9
26738.8
24413.5
21738.5
18718.4
15400.4
22084
26185.9
26056.7
26099.2
26210
26283.1
26250.5
26075.6
25740.5
25237.6
24560.1
23690.8
22597.9
21242.7
19591.9
17627.4
15357.4
12833
10030.2
6942.24
16166
16292.4
16334.9
16717.1
17115.1
17354.9
17393
17226.7
16861.7
16312.9
15598.4
14713.2
13617.8
12258.4
10593.7
8601.88
6267.22
3828.27
1093.23
-2034.36
209.853
3298.59
5963.58
7419.63
8290.94
8692.33
8742.09
8523.71
8061.7
7398.22
6602.79
5696.51
4594.09
3185.6
1416.27
-554.682
-2698.29
-3342.49
-2307.28
-1031.67
-407.682
-439.557
-210.816
661.089
1061.97
1097.85
918.912
585.432
64.5497
-521.666
-999.428
-1323.38
-1508.19
-1479.43
-1251.4
-971.155
-602.848
-464.415
-410.696
-396.336
-432.126
-427.907
-422.693
-428.453
-429.786
-435.081
-439.925
-442.803
-441.762
-444.409
-446.597
-447.517
-449.203
-442.879
-415.443
-413.727
-413.581
-421.717
-419.972
-419.067
-441.029
-434.723
-433.281
-431.673
-431.493
-431.952
-431.782
-430.732
-430.818
-431.183
-431.418
-431.67
-431.879
-431.139
-430.613
-431.487
-430.799
-430.584
-429.713
-429.073
-450.316
-443.659
-443.076
-442.437
-442.12
-442.039
-441.887
-441.604
-441.5
-441.579
-441.693
-441.786
-441.763
-441.339
-440.743
-440.552
-440.312
-440.095
-439.722
-439.374
-459.997
-453.681
-453.316
-452.856
-452.491
-452.228
-451.971
-451.7
-451.508
-451.432
-451.427
-451.416
-451.327
-451.108
-450.839
-450.615
-450.361
-450.065
-449.725
-449.385
-469.834
-463.716
-463.528
-463.212
-462.899
-462.59
-462.27
-461.952
-461.699
-461.546
-461.466
-461.388
-461.25
-461.04
-460.791
-460.528
-460.24
-459.925
-459.579
-459.21
-479.501
-473.678
-473.534
-473.243
-472.914
-472.567
-472.222
-471.906
-471.648
-471.46
-471.319
-471.179
-471.002
-470.781
-470.529
-470.255
-469.954
-469.62
-469.247
-468.834
-488.557
-483.193
-483.06
-482.78
-482.464
-482.147
-481.853
-481.592
-481.364
-481.161
-480.965
-480.759
-480.53
-480.274
-479.993
-479.687
-479.352
-478.983
-478.578
-478.14
-496.895
-491.942
-491.843
-491.632
-491.403
-491.176
-490.964
-490.764
-490.568
-490.361
-490.135
-489.888
-489.621
-489.333
-489.024
-488.692
-488.338
-487.961
-487.565
-487.157
-504.848
-500.093
-500.049
-499.925
-499.787
-499.641
-499.49
-499.332
-499.159
-498.966
-498.749
-498.508
-498.247
-497.968
-497.673
-497.364
-497.043
-496.714
-496.381
-496.052
-512.776
-508.066
-508.059
-507.986
-507.899
-507.798
-507.682
-507.551
-507.404
-507.239
-507.055
-506.852
-506.635
-506.404
-506.165
-505.92
-505.672
-505.427
-505.186
-504.954
-520.811
-516.08
-516.095
-516.046
-515.984
-515.906
-515.815
-515.709
-515.59
-515.458
-515.314
-515.16
-514.998
-514.831
-514.662
-514.495
-514.333
-514.177
-514.031
-513.895
-528.803
-524.289
-524.324
-524.287
-524.235
-524.167
-524.084
-523.989
-523.883
-523.768
-523.649
-523.526
-523.405
-523.287
-523.177
-523.078
-522.991
-522.919
-522.862
-522.82
16677.5
38703.6
45513.3
49933.4
52304.8
53202.3
52787.2
51021.1
47842.6
43310.8
37707.9
31534.1
25309.9
19065.6
11349
50666.7
41145.5
39933.7
40554.6
41019.7
40771.3
39525.9
37152.1
33610.7
29016.2
23691.7
18107.9
12714.5
7834.51
3341.79
47791.6
40186.2
36032.5
33910.7
32395.2
30732.4
28494.1
25442.1
21480.9
16675.9
11260.9
5803.53
1420.66
190.529
-369.336
42085.1
35605.9
30844.4
27448.9
24725
22102.3
19165.8
15639.8
11341.3
6278.89
1428.37
-335.667
-331.384
-325.962
-329.489
35086.3
29528.7
24802.4
20907
17541.1
14347.5
10994.3
7201.26
3006.31
67.5532
-338.598
-332.557
-336.214
-338.732
-338.361
27584.8
22710.4
18234.2
14248
10642.5
7187.91
3621.95
677.03
-342.678
-339.47
-344.265
-345.672
-346.174
-346.517
-346.204
19796.2
15452.9
11308.4
7452.13
3772.15
390.132
-614.537
-361.253
-355.183
-353.658
-354.647
-355.208
-355.582
-355.612
-355.133
11807.6
7897.48
4028.79
228.332
-2118.41
-710.436
-373.271
-361.304
-364.973
-364.617
-364.962
-365.288
-365.378
-365.128
-364.57
3535.16
-268.089
-3121.75
-1830.3
-447.793
-368.631
-376.715
-375.348
-375.143
-375.211
-375.382
-375.441
-375.27
-374.862