/*--------------------------------*- C++ -*----------------------------------*\
| =========                 |                                                 |
| \\      /  F ield         | OpenFOAM: The Open Source CFD Toolbox           |
|  \\    /   O peration     | Version:  v1912                                 |
|   \\  /    A nd           | Website:  www.openfoam.com                      |
|    \\/     M anipulation  |                                                 |
\*---------------------------------------------------------------------------*/
FoamFile
{
    version     2.0;
    format      ascii;
    class       volScalarField;
    location    "6";
    object      p_rgh;
}
// * * * * * * * * * * * * * * * * * * * * * * * * * * * * * * * * * * * * * //

dimensions      [1 -1 -2 0 0 0 0];


internalField   nonuniform List<scalar> 
20320
(
405306
405456
405565
405669
405779
405899
406018
406145
406279
406443
406638
406865
407104
407318
407469
407545
407571
407583
407606
407633
405257
405408
405524
405634
405753
405887
406028
406171
406338
406540
406778
407036
407288
407503
407650
407720
407729
407714
407721
407813
405132
405306
405428
405540
405668
405805
405952
406112
406290
406485
406696
406914
407123
407305
407443
407536
407596
407650
407751
407973
404943
405150
405271
405386
405515
405653
405802
405962
406133
406313
406498
406684
406860
407020
407156
407271
407376
407496
407674
407967
404697
404936
405053
405170
405298
405435
405580
405734
405894
406059
406225
406389
406546
406694
406832
406963
407099
407262
407486
407813
404396
404664
404779
404896
405022
405155
405295
405440
405590
405741
405892
406042
406187
406328
406467
406609
406766
406956
407208
407556
404048
404341
404455
404572
404695
404824
404957
405093
405232
405370
405509
405646
405782
405918
406057
406207
406379
406588
406860
407226
403662
403978
404091
404207
404327
404450
404575
404701
404828
404954
405079
405205
405331
405462
405601
405756
405937
406162
406453
406838
403250
403585
403697
403810
403925
404041
404157
404271
404384
404496
404607
404719
404835
404958
405095
405252
405442
405679
405989
406396
402822
403170
403280
403390
403499
403606
403709
403809
403906
404001
404095
404192
404294
404406
404537
404694
404889
405139
405467
405900
402389
402743
402851
402956
403057
403151
403240
403322
403399
403473
403546
403621
403705
403803
403922
404075
404273
404534
404883
405346
401961
402314
402418
402517
402606
402686
402755
402815
402868
402915
402961
403010
403068
403144
403246
403389
403586
403856
404227
404725
401547
401893
401992
402081
402156
402216
402262
402296
402318
402333
402344
402357
402381
402425
402501
402625
402814
403090
403484
404025
401159
401489
401581
401657
401714
401752
401770
401771
401757
401732
401699
401668
401645
401644
401679
401770
401939
402215
402633
403225
400806
401113
401195
401256
401292
401302
401288
401252
401195
401122
401036
400946
400862
400797
400770
400806
400935
401197
401637
402295
400495
400774
400843
400885
400897
400877
400827
400749
400644
400515
400366
400204
400039
399886
399767
399712
399765
399982
400432
401175
400234
400478
400533
400554
400538
400486
400398
400275
400118
399928
399707
399459
399193
398922
398669
398469
398379
398481
398896
399744
400029
400233
400272
400269
400225
400139
400012
399844
399634
399380
399081
398737
398352
397931
397493
397068
396718
396553
396777
397688
399883
400044
400064
400037
399963
399845
399681
399471
399210
398894
398517
398072
397554
396958
396283
395538
394754
394018
393572
394058
399798
399912
399913
399861
399761
399613
399417
399170
398865
398493
398042
397501
396850
396069
395128
393983
392572
390796
388502
386136
12.1951
12.2221
12.2503
12.2788
12.3028
12.3176
12.3217
12.3132
12.2915
12.2565
12.2083
12.1474
12.0726
11.9845
11.8843
11.774
11.6543
11.5267
11.3914
11.2496
11.1017
10.95
10.7958
10.6396
10.4839
10.3282
10.1726
10.0175
9.86352
9.71193
9.56281
9.41785
9.27746
9.14228
9.01163
8.88416
8.76101
8.64176
8.52723
8.41762
8.31332
8.21596
8.12467
8.03795
7.95536
7.87709
7.80321
7.73389
7.66992
7.61172
7.55832
7.50931
7.46463
7.42398
7.3887
7.35905
7.33413
7.3137
7.29832
7.28889
12.1789
12.2105
12.2395
12.2693
12.2955
12.3133
12.3208
12.3155
12.297
12.2651
12.2194
12.1604
12.0877
12.0019
11.9037
11.7948
11.6761
11.5493
11.4145
11.2731
11.1257
10.9737
10.8194
10.6631
10.5067
10.3501
10.1939
10.0381
9.88317
9.73071
9.58071
9.43485
9.29338
9.15696
9.02528
8.89681
8.77276
8.65269
8.53738
8.42701
8.32183
8.22339
8.13102
8.04345
7.96016
7.88124
7.8068
7.73705
7.67246
7.61349
7.55956
7.51027
7.46527
7.42423
7.38863
7.3587
7.33356
7.31298
7.29734
7.28761
12.1551
12.1943
12.2263
12.2592
12.2884
12.3108
12.3223
12.3212
12.3068
12.2782
12.2352
12.1777
12.1067
12.0227
11.9262
11.8185
11.7006
11.5738
11.4391
11.2975
11.1505
10.9984
10.8435
10.6872
10.5296
10.3717
10.2142
10.0575
9.90195
9.7485
9.59779
9.45099
9.30837
9.17039
9.03722
8.90797
8.78299
8.6623
8.5464
8.43541
8.3296
8.22967
8.13572
8.04711
7.96307
7.88341
7.80842
7.7385
7.6734
7.61335
7.55879
7.50929
7.46393
7.42274
7.38692
7.35658
7.33118
7.31043
7.29446
7.28395
12.124
12.1727
12.2096
12.2476
12.2819
12.3093
12.3259
12.3302
12.3202
12.2953
12.2552
12.2001
12.1307
12.0475
11.9522
11.8452
11.7277
11.6003
11.4653
11.3235
11.1759
11.0242
10.8688
10.7116
10.5528
10.3933
10.234
10.0761
9.91977
9.76532
9.61398
9.46608
9.32229
9.18261
9.04757
8.91759
8.79172
8.67051
8.55406
8.44239
8.336
8.23451
8.13879
8.04894
7.96403
7.88362
7.80796
7.73768
7.67225
7.61137
7.55611
7.50604
7.46026
7.41927
7.38329
7.35245
7.32675
7.30566
7.2893
7.27799
12.0848
12.145
12.1889
12.2336
12.2751
12.3088
12.3317
12.3418
12.3367
12.3161
12.2793
12.2271
12.1593
12.0772
11.9824
11.8753
11.7575
11.6296
11.494
11.3514
11.2031
11.0513
10.8953
10.7367
10.5764
10.4152
10.254
10.0944
9.9369
9.78155
9.6294
9.48028
9.33512
9.19375
9.05689
8.9258
8.79905
8.67726
8.56013
8.44757
8.34043
8.23777
8.14048
8.0491
7.96303
7.88198
7.80567
7.73457
7.66872
7.60758
7.55165
7.5006
7.45439
7.41371
7.37752
7.34617
7.32012
7.29853
7.28175
7.27006
12.039
12.1105
12.1636
12.2169
12.2667
12.3087
12.3394
12.3558
12.3564
12.3407
12.3077
12.2582
12.1925
12.1119
12.017
11.9097
11.791
11.6624
11.5253
11.3816
11.2329
11.0799
10.923
10.7629
10.6006
10.4377
10.2749
10.1132
9.95403
9.79772
9.6443
9.49385
9.34709
9.20401
9.0655
8.93269
8.8049
8.68232
8.56438
8.45084
8.3427
8.23931
8.14073
8.04755
7.96003
7.87843
7.80167
7.72955
7.66297
7.60165
7.54512
7.49311
7.44656
7.40584
7.36939
7.33753
7.31099
7.28904
7.27191
7.26007
11.9823
12.0689
12.1325
12.1968
12.257
12.3086
12.3482
12.3725
12.3799
12.3693
12.3404
12.2937
12.2304
12.1509
12.0564
11.9489
11.8288
11.699
11.5601
11.4149
11.2652
11.1102
10.9517
10.7896
10.6255
10.4609
10.2964
10.1329
9.97189
9.81424
9.65911
9.5071
9.35848
9.21361
9.07337
8.93835
8.80926
8.68555
8.56667
8.45228
8.34295
8.23884
8.13912
8.04414
7.95519
7.87289
7.79575
7.72291
7.65535
7.59336
7.53614
7.48361
7.4368
7.3955
7.35869
7.32633
7.29911
7.27709
7.25983
7.24783
11.9117
12.0177
12.0941
12.1719
12.245
12.3085
12.3584
12.3924
12.4075
12.4024
12.378
12.3342
12.273
12.1947
12.1008
11.9924
11.871
11.7395
11.5992
11.4523
11.2997
11.1426
10.9817
10.8172
10.6516
10.485
10.3187
10.1536
9.9907
9.83101
9.67395
9.52014
9.36941
9.22264
9.08049
8.94316
8.8123
8.68702
8.56698
8.45186
8.34135
8.23608
8.1352
8.03888
7.94876
7.86537
7.78761
7.71451
7.64605
7.58281
7.52467
7.47191
7.42483
7.38261
7.3453
7.31247
7.28451
7.26247
7.24527
7.23321
11.824
11.9537
12.0462
12.1402
12.229
12.3071
12.3701
12.4143
12.4384
12.4407
12.4209
12.3806
12.3206
12.2435
12.15
12.0404
11.918
11.7844
11.6424
11.493
11.3372
11.1773
11.0132
10.8466
10.6789
10.5101
10.3419
10.1752
10.0101
9.84776
9.68857
9.53267
9.37982
9.2311
9.087
8.94763
8.81441
8.68699
8.56541
8.44937
8.33775
8.23099
8.12898
8.03181
7.94077
7.8559
7.77715
7.70394
7.63479
7.57021
7.51097
7.45774
7.4102
7.36712
7.32911
7.29582
7.26738
7.245
7.22785
7.21606
11.7155
11.8735
11.9859
12.1001
12.2082
12.3037
12.3819
12.4391
12.473
12.4837
12.4698
12.4335
12.3755
12.2984
12.2039
12.0937
11.9703
11.8344
11.6898
11.5369
11.3782
11.2144
11.0467
10.878
10.7074
10.5362
10.366
10.197
10.0296
9.86441
9.70273
9.54435
9.38949
9.23885
9.09275
8.95169
8.81582
8.68585
8.56227
8.44481
8.33202
8.22376
8.12073
8.02293
7.93095
7.84454
7.76457
7.69081
7.62105
7.55549
7.49526
7.44106
7.39264
7.34892
7.31003
7.27629
7.24772
7.22461
7.20733
7.19615
11.5815
11.7746
11.9108
12.0499
12.1815
12.2984
12.3944
12.4669
12.5127
12.532
12.525
12.4932
12.4379
12.3606
12.265
12.1535
12.0279
11.8901
11.7419
11.5852
11.4226
11.2542
11.083
10.9107
10.7368
10.5633
10.3903
10.2187
10.0488
9.88081
9.7163
9.55519
9.39821
9.24556
9.09741
8.9546
8.81626
8.68384
8.55802
8.43852
8.32424
8.21459
8.11058
8.01212
7.91906
7.83135
7.75005
7.67497
7.60442
7.5383
7.47741
7.42199
7.37223
7.32778
7.288
7.25384
7.22522
7.20135
7.18381
7.17292
11.4175
11.6525
11.8182
11.9872
12.1473
12.2898
12.408
12.4978
12.558
12.5873
12.5879
12.5602
12.5073
12.4313
12.3348
12.2212
12.0924
11.9515
11.7993
11.6387
11.4706
11.2977
11.1226
10.9453
10.7678
10.5911
10.4148
10.2402
10.0674
9.89662
9.72902
9.56507
9.40579
9.25088
9.10056
8.95562
8.81514
8.68075
8.55282
8.43086
8.31474
8.20379
8.09863
7.99923
7.90496
7.81623
7.73348
7.65647
7.58486
7.5183
7.45695
7.40048
7.34914
7.30353
7.263
7.22843
7.19948
7.17517
7.1574
7.14623
11.2143
11.502
11.7039
11.9093
12.1041
12.2769
12.4214
12.5323
12.6088
12.6505
12.6592
12.6366
12.5861
12.5109
12.4135
12.2972
12.1651
12.0196
11.8627
11.6969
11.5236
11.346
11.1656
10.9831
10.8013
10.62
10.4398
10.2615
10.0852
9.91144
9.7405
9.57367
9.41191
9.25459
9.10197
8.95448
8.81212
8.67604
8.54616
8.42183
8.30375
8.19153
8.08502
7.98429
7.8886
7.79878
7.71449
7.6355
7.56268
7.49537
7.43337
7.37612
7.32338
7.27627
7.23502
7.19992
7.17031
7.14595
7.12796
7.11596
10.9622
11.3162
11.5631
11.8138
12.0506
12.2605
12.4354
12.5711
12.6668
12.7226
12.7405
12.7241
12.6759
12.6005
12.5016
12.3821
12.2461
12.0952
11.9328
11.7611
11.5825
11.3993
11.2124
11.025
10.8377
10.6508
10.4659
10.283
10.1025
9.92523
9.75075
9.58096
9.41627
9.2564
9.10135
8.95114
8.80706
8.66925
8.53735
8.41104
8.29114
8.17757
8.06968
7.96734
7.87003
7.77866
7.69267
7.61219
7.53812
7.46959
7.40648
7.34834
7.2946
7.24618
7.20405
7.1681
7.13779
7.11351
7.09514
7.0824
10.648
11.0862
11.3886
11.6955
11.9843
12.2392
12.451
12.6162
12.7334
12.8055
12.834
12.8232
12.7776
12.7016
12.6005
12.4776
12.336
12.179
12.0104
11.832
11.6471
11.4571
11.2641
11.0706
10.8767
10.6839
10.4933
10.305
10.1199
9.93839
9.76035
9.58723
9.41902
9.25617
9.09843
8.94569
8.79983
8.66007
8.52608
8.39812
8.27651
8.16132
8.05203
7.94811
7.84925
7.75587
7.66797
7.58634
7.51098
7.44102
7.37638
7.31687
7.26232
7.21312
7.17007
7.13296
7.10205
7.07768
7.0587
7.04552
10.2584
10.7989
11.1722
11.5489
11.9015
12.2113
12.4679
12.6674
12.8104
12.9004
12.9409
12.9366
12.8933
12.8166
12.7119
12.5841
12.4363
12.2723
12.0959
11.9097
11.7174
11.52
11.3205
11.1197
10.9186
10.7192
10.5219
10.3277
10.1374
9.95136
9.76975
9.59276
9.4206
9.25425
9.09337
8.93829
8.7903
8.64824
8.51223
8.38276
8.2593
8.14221
8.03138
7.92593
7.82585
7.73058
7.64066
7.55761
7.48073
7.40945
7.34317
7.28186
7.22632
7.17664
7.13286
7.09467
7.06312
7.03834
7.01871
7.00535
9.77061
10.4397
10.9038
11.3687
11.8003
12.1769
12.4865
12.7268
12.9001
13.0102
13.0642
13.0673
13.0264
12.948
12.8379
12.7028
12.5474
12.3752
12.1899
11.9952
11.7939
11.5883
11.3806
11.1715
10.9633
10.7565
10.5518
10.3512
10.1552
9.96436
9.77875
9.59755
9.42131
9.25112
9.08684
8.92931
8.77856
8.63378
8.49562
8.36442
8.23906
8.12002
8.00737
7.90025
7.79901
7.7024
7.61088
7.52586
7.44701
7.37437
7.30657
7.24358
7.1868
7.13641
7.09207
7.05325
7.02099
6.99545
6.97536
6.96175
9.1528
9.99293
10.5693
11.147
11.6788
12.1366
12.51
12.7984
13.0058
13.1399
13.2078
13.2184
13.1791
13.0974
12.9813
12.8372
12.6716
12.4893
12.2939
12.0889
11.8771
11.6618
11.4444
11.2267
11.0103
10.7952
10.583
10.3754
10.1734
9.9773
9.78707
9.60144
9.42113
9.24688
9.07921
8.91885
8.76471
8.61697
8.47631
8.34274
8.21544
8.09459
7.97988
7.87091
7.76816
7.67048
7.57801
7.49092
7.40973
7.33533
7.2661
7.202
7.14409
7.09254
7.04741
7.00837
6.97562
6.94921
6.92872
6.91461
8.36373
9.42992
10.1556
10.8761
11.532
12.0902
12.5403
12.8847
13.1322
13.2927
13.3761
13.3938
13.355
13.2691
13.1445
12.9898
12.8119
12.6169
12.4088
12.1912
11.9676
11.7409
11.5129
11.2856
11.0592
10.8352
10.6154
10.4008
10.192
9.99002
9.79455
9.60417
9.41966
9.24136
9.07025
8.90652
8.74874
8.59797
8.45444
8.31787
8.18838
8.06561
7.94874
7.83792
7.73323
7.63426
7.54096
7.45218
7.36885
7.29221
7.22149
7.15675
7.09807
7.04532
6.99895
6.95964
6.92682
6.89975
6.87869
6.86404
7.34597
8.71543
9.63933
10.5456
11.3562
12.0376
12.5781
12.9894
13.2836
13.4738
13.5745
13.5985
13.559
13.4667
13.3312
13.1626
12.9696
12.7591
12.5358
12.3039
12.0667
11.8269
11.5867
11.3477
11.1104
10.8773
10.6494
10.427
10.2112
10.0025
9.80084
9.60546
9.41658
9.23417
9.05945
8.89175
8.7304
8.57656
8.42986
8.29008
8.15802
8.03284
7.91373
7.80116
7.69437
7.59369
7.49897
7.40875
7.32391
7.24505
7.17281
7.10749
7.04823
6.99467
6.94706
6.90708
6.8743
6.84683
6.82516
6.81018
6.01938
7.80321
8.99394
10.1427
11.15
11.9776
12.6283
13.1185
13.4671
13.6917
13.81
13.8394
13.7959
13.693
13.5438
13.3582
13.1465
12.9175
12.6765
12.4279
12.1749
11.9202
11.6659
11.4137
11.165
10.9222
10.6852
10.4544
10.2307
10.0145
9.80586
9.60516
9.41159
9.22496
9.04624
8.87421
8.70939
8.55223
8.40206
8.2592
8.12426
7.99615
7.87476
7.76037
7.65144
7.5488
7.45198
7.36024
7.27431
7.19374
7.12015
7.05401
6.99406
6.94009
6.89191
6.85111
6.81777
6.78995
6.76804
6.7533
4.26786
6.62822
8.18431
9.65325
10.9089
11.9168
12.6971
13.2809
13.6926
13.9557
14.0919
14.1237
14.0717
13.9539
13.7854
13.5789
13.3452
13.0941
12.8323
12.5636
12.2921
12.0202
11.7502
11.4839
11.2232
10.9693
10.7223
10.4829
10.2507
10.026
9.81002
9.60336
9.40447
9.21345
9.03015
8.85373
8.68544
8.52444
8.37064
8.22472
8.08655
7.95535
7.83168
7.7152
7.60416
7.49943
7.40032
7.30695
7.2198
7.13798
7.06335
6.99623
6.93545
6.88112
6.83313
6.79184
6.75724
6.72887
6.7073
6.69314
1.92765
5.09356
7.15935
9.05801
10.6299
11.859
12.7958
13.4908
13.9756
14.2793
14.4315
14.4612
14.3951
14.2561
14.0621
13.8288
13.568
13.2902
13.0032
12.7116
12.419
12.1274
11.8399
11.5581
11.2841
11.018
10.7605
10.5117
10.2702
10.0369
9.8134
9.59989
9.39516
9.19927
9.01087
8.83026
8.65819
8.49289
8.33534
8.18606
8.04427
7.91005
7.78403
7.66516
7.55222
7.44538
7.34417
7.24926
7.16051
7.07762
7.00213
6.93404
6.87251
6.81769
6.77008
6.72874
6.69284
6.66388
6.6428
6.62919
-1.25385
3.05849
5.85038
8.33439
10.3114
11.8099
12.938
13.7694
14.3391
14.6835
14.846
14.8659
14.7764
14.6068
14.3795
14.1121
13.8178
13.508
13.1909
12.8724
12.5555
12.2421
11.935
11.636
11.347
11.0677
10.7989
10.5394
10.2884
10.0468
9.8152
9.5941
9.38344
9.18193
8.98819
8.8036
8.6272
8.45749
8.29601
8.14275
7.99711
7.86001
7.73134
7.60982
7.49516
7.38637
7.28341
7.18723
7.09679
7.01284
6.93647
6.86732
6.80519
6.74994
6.70233
6.66096
6.62455
6.59536
6.57436
6.56075
-5.7474
0.351398
4.17438
7.45475
9.94306
11.7734
13.1446
14.148
14.8175
15.1966
15.3584
15.3543
15.2288
15.0164
14.7442
14.4331
14.0974
13.7491
13.397
13.0474
12.7024
12.3645
12.0357
11.7178
11.412
11.1182
10.8363
10.565
10.3047
10.0545
9.81419
9.58536
9.36838
9.16069
8.96183
8.77295
8.59176
8.41795
8.25233
8.09463
7.94521
7.80516
7.6735
7.54908
7.43248
7.32194
7.21772
7.1205
7.02877
6.94391
6.86647
6.79608
6.73334
6.67795
6.62995
6.58812
6.55194
6.52305
6.50169
6.4877
-12.1633
-3.34979
1.98664
6.35316
9.48858
11.7441
13.4541
14.6857
15.4628
15.861
15.998
15.9473
15.7657
15.4939
15.1629
14.7959
14.4095
14.0152
13.6221
13.2365
12.8602
12.495
12.1419
11.8032
11.4788
11.1686
10.8721
10.5888
10.3185
10.0585
9.80946
9.57292
9.34873
9.13473
8.93103
8.73706
8.55103
8.37356
8.20374
8.04179
7.88886
7.74548
7.6105
7.48316
7.36405
7.25177
7.14672
7.04865
6.95623
6.87074
6.79208
6.7204
6.65696
6.60155
6.55308
6.51044
6.47451
6.44607
6.42444
6.41021
-21.4449
-8.5708
-1.00326
4.85812
8.83459
11.73
13.972
15.509
16.3692
16.7372
16.8023
16.6695
16.4028
16.0487
15.6411
15.2044
14.7561
14.3074
13.8669
13.4395
13.0278
12.6323
12.2531
11.8914
11.5466
11.2186
10.9065
10.6107
10.3285
10.058
9.80041
9.55558
9.32367
9.10352
8.89455
8.69489
8.50438
8.32331
8.14947
7.98394
7.8279
7.68092
7.54239
7.41222
7.29027
7.17606
7.0702
6.97128
6.87862
6.79283
6.71308
6.64039
6.57627
6.52051
6.47157
6.42827
6.3921
6.36371
6.34225
6.32831
-35.0215
-16.2978
-5.47366
2.61301
7.83491
11.8255
14.9692
16.8664
17.6943
17.9056
17.815
17.5463
17.1574
16.6927
16.1862
15.6625
15.1388
14.6255
14.1296
13.6551
13.2038
12.7747
12.3675
11.9807
11.614
11.2675
10.9394
10.6292
10.3335
10.0527
9.78614
9.53247
9.29297
9.06662
8.85144
8.64598
8.45134
8.2663
8.08881
7.92036
7.76138
7.61106
7.46921
7.33624
7.21158
7.09538
6.98815
6.88817
6.79538
6.70951
6.62915
6.55595
6.49122
6.43456
6.38504
6.34161
6.30496
6.27602
6.25488
6.24141
-55.0685
-28.6957
-12.8511
-0.313522
6.81695
12.1602
16.7496
19.0786
19.6229
19.448
19.0788
18.603
18.045
17.4345
16.8024
16.1715
15.5573
14.9683
14.4088
13.8814
13.3861
12.9204
12.4819
12.0685
11.6796
11.3135
10.9684
10.6423
10.3333
10.0421
9.76549
9.50323
9.25631
9.02324
8.80146
8.5904
8.39129
8.20192
8.02141
7.85037
7.68831
7.53513
7.39069
7.25502
7.12799
7.00998
6.90077
6.79947
6.70642
6.62037
6.53994
6.46668
6.40136
6.34353
6.29325
6.25006
6.21325
6.1836
6.16228
6.14882
-84.4259
-49.6099
-25.4746
-3.99416
6.64573
13.8354
19.5831
22.1869
22.1711
21.3991
20.6155
19.8564
19.0757
18.2786
17.4899
16.7295
16.0089
15.333
14.7024
14.1164
13.5718
13.066
12.5943
12.1532
11.7409
11.3541
10.9909
10.6488
10.3273
10.0245
9.7377
9.46731
9.21259
8.97243
8.74446
8.5281
8.32383
8.13018
7.94709
7.77344
7.60831
7.45251
7.30596
7.16797
7.03902
6.91953
6.80828
6.70558
6.61194
6.52536
6.44508
6.37195
6.30607
6.24733
6.1963
6.15313
6.11663
6.08669
6.06457
6.05036
-125.141
-84.1591
-49.6192
-8.64805
9.36786
18.7595
24.4115
25.937
25.1614
23.6913
22.4157
21.3118
20.2528
19.2235
18.2444
17.3305
16.4873
15.7132
15.0016
14.3532
13.757
13.209
12.7026
12.2328
11.7952
11.3869
11.0054
10.6479
10.3135
9.99868
9.70223
9.42335
9.16054
8.91352
8.67977
8.45835
8.2489
8.05148
7.86567
7.68905
7.52128
7.36296
7.21421
7.07441
6.94401
6.82333
6.7106
6.60664
6.512
6.42456
6.34432
6.27135
6.205
6.14587
6.09424
6.05047
6.01437
5.98482
5.96185
5.94658
-175.625
-137.435
-98.5514
-21.6753
21.8972
28.7286
31.11
30.311
28.4178
26.2606
24.459
22.9606
21.5686
20.2578
19.0522
17.9609
16.9795
16.0975
15.3041
14.5861
13.9361
13.3446
12.8025
12.3026
11.8398
11.4106
11.0109
10.6383
10.2902
9.96362
9.65775
9.36983
9.09953
8.84608
8.60657
8.38019
8.16618
7.96548
7.77659
7.59689
7.4269
7.26631
7.11531
6.97403
6.84245
6.72062
6.60705
6.50214
6.40629
6.318
6.23771
6.16483
6.0982
6.03884
5.98667
5.94194
5.906
5.87724
5.85406
5.8381
-228.494
-203.487
-192.01
-87.239
53.7037
43.9729
37.2636
35.271
32.377
29.2183
26.7296
24.7594
22.9853
21.3496
19.8863
18.5985
17.4681
16.4721
15.5913
14.8058
14.1017
13.466
12.8879
12.3587
11.8718
11.4223
11.0053
10.6178
10.2564
9.91854
9.6026
9.30618
9.02919
8.76928
8.52427
8.29311
8.07497
7.87086
7.67888
7.49686
7.32484
7.1623
7.00954
6.86695
6.73413
6.61093
6.49667
6.39116
6.29434
6.20568
6.12541
6.05252
5.98571
5.92583
5.87296
5.82763
5.79169
5.76357
5.74089
5.72504
-263.798
-261.694
-313.268
502.733
2443.79
52.5621
44.8159
41.8858
37.0984
32.4727
29.1085
26.602
24.4222
22.4415
20.7036
19.2106
17.9288
16.8208
15.8533
15.0013
14.2444
13.5665
12.9545
12.3975
11.8877
11.4186
10.9854
10.584
10.2103
9.86176
9.53604
9.23222
8.94843
8.68195
8.43212
8.19658
7.97461
7.76671
7.57174
7.38829
7.21456
7.05056
6.89682
6.75296
6.61879
6.49414
6.37899
6.27298
6.17573
6.08734
6.00726
5.93417
5.86723
5.80651
5.75281
5.70766
5.67182
5.64381
5.62197
5.60685
-260.767
-288.619
-370.264
1392.02
13187.8
51.1751
53.3328
48.615
40.7561
35.0578
31.2222
28.3187
25.7646
23.4487
21.4421
19.7523
18.3289
17.117
16.0718
15.1601
14.3563
13.6403
12.9972
12.4147
11.8836
11.3965
10.9482
10.5338
10.1489
9.79088
9.45715
9.14657
8.85573
8.5834
8.3292
8.08966
7.86439
7.65305
7.45524
7.2703
7.09517
6.93038
6.77631
6.63148
6.49607
6.37029
6.25425
6.14765
6.05021
5.96237
5.88257
5.80918
5.74217
5.68081
5.62655
5.58209
5.54641
5.51807
5.49703
5.48287
-220.069
-278.785
-351.968
24640.2
8103
73.5233
61.1235
48.1946
40.575
36.0409
32.7327
29.7486
26.884
24.2622
22.0213
20.167
18.6295
17.3352
16.2287
15.269
14.4264
13.6789
13.0096
12.4052
11.8557
11.3529
10.891
10.4649
10.0706
9.7043
9.36378
9.04665
8.74982
8.47302
8.21461
7.97156
7.74339
7.52943
7.32952
7.14257
6.96613
6.80087
6.64675
6.50173
6.36564
6.23922
6.12273
6.01556
5.91771
5.83011
5.75052
5.6769
5.60999
5.54878
5.4947
5.45084
5.4151
5.3864
5.36601
5.35266
-170.728
-226.649
-297.809
-365.771
56904.4
79.3513
61.7996
42.8232
37.724
36.1006
33.7559
30.7636
27.6119
24.7418
22.3437
20.3931
18.7897
17.4474
16.3033
15.3127
14.4436
13.6731
12.9842
12.3633
11.7989
11.2834
10.8106
10.3755
9.97367
9.60072
9.25412
8.93097
8.62969
8.3493
8.08714
7.84142
7.61069
7.39482
7.1937
7.00501
6.8277
6.66196
6.50742
6.36284
6.22693
6.10038
5.98399
5.87664
5.77836
5.69049
5.61078
5.53704
5.47036
5.41021
5.35729
5.31367
5.27755
5.24883
5.2289
5.21595
-141.782
-169.03
-210.707
-360.171
162117
45.2925
50.2142
38.2295
36.2248
36.1706
34.2516
31.048
27.6673
24.707
22.3049
20.3663
18.7702
17.4277
16.2774
15.277
14.3965
13.6142
12.9136
12.2818
11.7079
11.1841
10.7044
10.2632
9.85576
9.47775
9.12653
8.7991
8.4943
8.21059
7.94545
7.69771
7.46538
7.24851
7.04655
6.85705
6.67994
6.51397
6.35849
6.2141
6.07891
5.95285
5.83702
5.73013
5.63209
5.54381
5.4635
5.38962
5.32318
5.26458
5.21362
5.17017
5.1337
5.10534
5.08552
5.07247
-150.352
-125.752
-173.225
18843.9
190962
14.0858
22.9224
29.3088
34.3889
35.1811
33.2022
29.9296
26.682
23.9881
21.8252
20.0471
18.5462
17.2573
16.136
15.1501
14.275
13.4932
12.7907
12.1558
11.5791
11.0524
10.5693
10.1245
9.71355
9.33281
8.97895
8.64943
8.34231
8.056
7.78891
7.53963
7.30695
7.08999
6.88738
6.69823
6.52211
6.35628
6.20012
6.0555
5.92102
5.79597
5.68107
5.57527
5.47836
5.38998
5.30889
5.23493
5.16884
5.11174
5.06285
5.01986
4.9835
4.95567
4.93558
4.92218
31615.4
-121.953
45104.6
279720
84535
-44.9453
-7.21594
16.0999
27.6634
30.477
29.1799
26.779
24.4917
22.5755
20.9201
19.4395
18.1116
16.9262
15.8679
14.9205
14.0699
13.3033
12.6106
11.9822
11.4091
10.8842
10.4016
9.95621
9.54485
9.16411
8.80963
8.47946
8.1716
7.88449
7.617
7.36745
7.13531
6.91848
6.71589
6.52824
6.35302
6.18724
6.03155
5.88723
5.75342
5.62969
5.51604
5.41166
5.31616
5.228
5.14659
5.07317
5.00795
4.95208
4.90456
4.86217
4.82649
4.79925
4.7788
4.76526
399773
399840
399820
399746
399621
399449
399227
398951
398611
398193
397681
397055
396287
395337
394147
392613
390532
387432
381898
370632
399807
399825
399786
399692
399548
399357
399118
398823
398458
398006
397447
396754
395892
394810
393434
391637
389200
385706
380366
372434
399903
399869
399813
399702
399544
399344
399096
398792
398413
397940
397348
396605
395673
394498
393000
391061
388493
385005
380167
373529
400060
399976
399906
399784
399622
399421
399176
398872
398490
398007
397394
396618
395638
394399
392829
390823
388234
384864
380482
374941
400274
400146
400069
399945
399789
399600
399369
399078
398702
398217
397591
396793
395779
394501
392891
390864
388313
385113
381156
376437
400537
400379
400304
400189
400053
399892
399689
399419
399056
398573
397940
397124
396086
394780
393150
391130
388648
385634
382048
377939
400851
400679
400607
400513
400415
400300
400139
399899
399553
399072
398430
397598
396540
395213
393574
391575
389173
386337
383063
379407
401254
401045
400961
400904
400876
400834
400730
400524
400190
399705
399051
398201
397124
395781
394137
392161
389836
387161
384141
380823
402222
401418
401289
401332
401442
401516
401483
401308
400973
400470
399792
398923
397830
396475
394824
392860
390590
388065
385263
382175
406114
401335
401377
401760
402158
402397
402436
402269
401904
401355
400641
399756
398660
397301
395636
393644
391310
388871
386136
383008
34389.5
371741
400816
402272
403143
403545
403595
403376
402914
402251
401455
400549
399447
398038
396269
394298
392154
391510
342868
38894.1
1.88553
-34.8942
72344.6
306902
389963
405760
405581
405248
404727
399543
387337
373578
349421
303365
208212
76616.5
7899.44
-59.7524
-6.03306
8.3261
-12.7482
-13.4343
-8.22058
-13.981
-15.314
-20.6087
287.61
569.016
21.4347
-29.9364
-32.1244
-33.0444
-34.7307
-28.4064
-0.970594
0.745164
0.891467
-7.24457
-5.49961
-4.59427
-11.8414
-10.441
-8.99861
-7.39024
-7.2106
-7.66914
-7.49906
-6.44995
-6.53548
-6.90067
-7.13595
-7.3872
-7.59629
-6.85644
-6.33053
-7.20417
-6.51625
-6.30101
-5.43035
-4.7909
-11.3181
-9.56611
-8.98349
-8.34449
-8.02769
-7.94668
-7.79494
-7.5113
-7.40788
-7.48666
-7.60098
-7.6936
-7.67057
-7.24627
-6.65006
-6.4594
-6.21973
-6.00251
-5.62988
-5.28165
-11.1891
-9.77831
-9.41305
-8.95339
-8.58846
-8.32521
-8.06864
-7.79707
-7.60558
-7.5295
-7.52451
-7.51394
-7.42441
-7.20596
-6.93605
-6.71282
-6.45841
-6.16234
-5.82207
-5.48252
-11.2163
-10.0038
-9.81532
-9.49977
-9.18624
-8.87791
-8.55701
-8.23965
-7.98643
-7.83387
-7.75343
-7.67504
-7.5379
-7.32775
-7.07855
-6.81589
-6.52761
-6.21224
-5.86698
-5.4978
-11.0736
-10.1552
-10.0112
-9.72098
-9.39192
-9.0448
-8.69986
-8.38329
-8.12517
-7.93738
-7.79687
-7.65662
-7.47984
-7.25875
-7.00648
-6.73257
-6.4315
-6.09713
-5.72476
-5.31169
-10.3197
-9.8603
-9.72725
-9.44749
-9.13146
-8.81419
-8.52012
-8.25926
-8.03159
-7.82824
-7.63224
-7.42602
-7.1974
-6.94166
-6.66022
-6.35405
-6.01958
-5.65098
-5.24551
-4.80737
-8.84713
-8.79992
-8.70078
-8.4893
-8.26013
-8.03356
-7.82103
-7.62161
-7.42516
-7.21823
-6.99225
-6.74536
-6.47821
-6.19053
-5.88122
-5.54977
-5.19561
-4.81875
-4.42244
-4.01402
-6.99047
-7.14097
-7.09697
-6.97234
-6.83461
-6.68849
-6.53747
-6.37919
-6.20693
-6.01374
-5.79626
-5.55555
-5.29456
-5.01573
-4.72089
-4.41179
-4.09069
-3.76129
-3.42883
-3.09929
-5.10826
-5.30327
-5.29694
-5.22354
-5.13676
-5.03502
-4.91938
-4.78892
-4.64183
-4.47646
-4.29216
-4.09
-3.87229
-3.64194
-3.40247
-3.15728
-2.90982
-2.66402
-2.42348
-2.19146
-3.33331
-3.50719
-3.52203
-3.473
-3.41108
-3.33379
-3.24212
-3.13635
-3.01706
-2.88518
-2.74147
-2.58752
-2.42571
-2.25875
-2.08999
-1.92284
-1.76019
-1.60477
-1.45864
-1.32281
-1.5156
-1.90656
-1.94178
-1.9044
-1.85239
-1.78435
-1.70189
-1.60655
-1.5004
-1.38599
-1.26603
-1.14368
-1.02216
-0.904626
-0.794649
-0.695187
-0.608315
-0.53609
-0.479267
-0.437087
313430
335456
342266
346686
349057
349955
349540
347774
344595
339958
334355
328250
322062
315818
308003
357229
347708
346496
347117
347582
347334
346088
343715
340173
335579
330254
324670
319277
314397
309904
364164
356559
352405
350283
348768
347105
344867
341815
337853
333048
327633
322176
296572
204320
-52.9634
368268
361788
357027
353631
350908
348285
345348
341822
337524
332461
305465
13125.4
-5.20147
0.220387
-3.30694
371079
365521
360795
356900
353534
350340
346987
343194
338999
117045
-2.60373
3.43666
-0.221306
-2.73939
-2.36882
373387
368513
364037
360051
356445
352990
349424
333779
7139.05
6.44025
1.58461
0.130087
-0.371801
-0.714534
-0.401247
375409
371065
366921
363065
359385
356003
275516
-5.64041
0.459591
2.15995
0.965697
0.404674
0.0302919
0.000722725
0.479655
377230
373320
369451
365651
363304
99742.1
-7.84856
4.11948
0.449011
0.805029
0.460112
0.134786
0.0444124
0.294036
0.852487
378768
374964
372111
292617
-72.5604
6.60181
-1.48203
-0.115918
0.0897266
0.0210987
-0.149958
-0.208943
-0.0370319
0.370115
0.92102
378876
323546
-90.6263
-2.83827
-1.65037
-2.57992
-1.80277
-0.90277
-0.704783
-0.694141
-0.650895
-0.483396
-0.162125
0.296617
0.8145
-49.6844
-1.18878
-0.623369
-4.78943
-4.33244
-2.84047
-2.06934
-1.62423
-1.39858
-1.21035
-0.986728
-0.692081
-0.300849
0.168155
0.655173
-4.04171
-5.3137
-4.73242
-4.00424
-3.49175
-2.93424
-2.46454
-2.11375
-1.80994
-1.5109
-1.18874
-0.818752
-0.390528
0.0734368
0.530645
-4.93446
-4.51084
-4.06925
-3.77988
-3.47111
-3.0928
-2.71087
-2.35143
-2.00437
-1.64809
-1.26656
-0.849903
-0.405844
0.0371486
0.453708
-4.70078
-4.47937
-4.17126
-3.87725
-3.55388
-3.19346
-2.82111
-2.44683
-2.06067
-1.65673
-1.23354
-0.797918
-0.369139
0.0304253
0.395238
-5.00369
-4.65829
-4.30289
-3.95032
-3.59527
-3.22384
-2.83208
-2.42018
-1.99102
-1.55243
-1.11763
-0.701789
-0.320832
0.0209564
0.334478
-5.12977
-4.71402
-4.31252
-3.92835
-3.54137
-3.13304
-2.70101
-2.25314
-1.80294
-1.36875
-0.966117
-0.605286
-0.28697
-0.000328479
0.269967
-5.08886
-4.62747
-4.18754
-3.76048
-3.32705
-2.87874
-2.42258
-1.97285
-1.548
-1.163
-0.824599
-0.530393
-0.269837
-0.0283804
0.206638
-4.85051
-4.34853
-3.8713
-3.40758
-2.94762
-2.49432
-2.05831
-1.65395
-1.29306
-0.979876
-0.71064
-0.475471
-0.261495
-0.0564698
0.149264
-4.33464
-3.83454
-3.36045
-2.90641
-2.4724
-2.06441
-1.69094
-1.35981
-1.07381
-0.82958
-0.619029
-0.430985
-0.254187
-0.0795452
0.101022
-3.59327
-3.15569
-2.74154
-2.35199
-1.99
-1.65978
-1.36566
-1.10972
-0.890575
-0.703111
-0.538951
-0.388253
-0.242172
-0.0940321
0.0629027
-2.77111
-2.43354
-2.11508
-1.81882
-1.54735
-1.30236
-1.08519
-0.895744
-0.731817
-0.589249
-0.46138
-0.340832
-0.221187
-0.0975816
0.0350988
-1.96603
-1.7374
-1.52333
-1.32577
-1.14542
-0.982102
-0.835466
-0.704274
-0.58665
-0.479907
-0.380387
-0.284159
-0.188005
-0.0891322
0.0179077
-1.19593
-1.0722
-0.959262
-0.856946
-0.76356
-0.677227
-0.596126
-0.518225
-0.442165
-0.366664
-0.290936
-0.214687
-0.140002
-0.0676531
0.00833037
-0.40738
-0.392543
-0.387932
-0.388773
-0.389745
-0.385656
-0.372017
-0.345716
-0.305642
-0.25331
-0.192645
-0.128457
-0.0728231
-0.0313964
0.00327543
295889
296067
296335
136308
2.12738
-23.5386
-12.4185
6.89547
17.3722
21.7758
22.7572
22.4111
21.672
20.7295
19.6443
18.5085
17.4014
16.3626
15.4048
14.5278
13.7274
12.9975
12.3318
11.7229
11.1643
10.6502
10.1754
9.73663
9.33067
8.95428
8.60346
8.2758
7.97023
7.68556
7.42055
7.17354
6.94359
6.72833
6.52781
6.34272
6.16861
6.00377
5.85012
5.70756
5.57546
5.45378
5.34203
5.2395