/*--------------------------------*- C++ -*----------------------------------*\
| =========                 |                                                 |
| \\      /  F ield         | OpenFOAM: The Open Source CFD Toolbox           |
|  \\    /   O peration     | Version:  v1912                                 |
|   \\  /    A nd           | Website:  www.openfoam.com                      |
|    \\/     M anipulation  |                                                 |
\*---------------------------------------------------------------------------*/
FoamFile
{
    version     2.0;
    format      ascii;
    class       surfaceScalarField;
    location    "6";
    object      phi;
}
// * * * * * * * * * * * * * * * * * * * * * * * * * * * * * * * * * * * * * //

dimensions      [0 3 -1 0 0 0 0];
oriented        oriented;


internalField   nonuniform List<scalar> 
40282
(
0.00330656
0.00108568
2.04856
-2.05714
2.05538
0.00176168
-2.05246
2.04888
0.00357317
-2.04451
2.0394
0.00511045
-2.03334
2.02815
0.00518314
-2.02442
2.02062
0.00380013
-2.01711
2.01466
0.00244482
-2.01182
2.00581
0.0060113
-1.99399
1.97407
0.0199216
-1.94396
1.90186
0.0420921
-1.84634
1.77627
0.070065
-1.69102
1.59045
0.100572
-1.47491
1.3453
0.129607
-1.20339
1.05218
0.151204
-0.895966
0.739737
0.156229
-0.588464
0.446533
0.141931
-0.317569
0.204509
0.113061
-0.109729
0.0351317
0.0745974
0.0178873
-0.0485395
0.0306522
0.0570193
-0.0424055
-0.0146137
-0.00212586
0.00283696
1.9787
-1.97621
1.97336
-0.00645732
0.00930761
-1.96865
1.96306
-0.00953662
0.0151279
-1.95712
1.9498
-0.0115075
0.0188316
-1.94183
1.93298
-0.0126565
0.0215093
-1.92126
1.90443
-0.0129409
0.0297665
-1.88009
1.84729
-0.0195707
0.0523756
-1.80649
1.75886
-0.0373097
0.084938
-1.70552
1.64744
-0.0658941
0.123976
-1.58539
1.51999
-0.102661
0.168067
-1.45175
1.38117
-0.144496
0.215069
-1.30874
1.23492
-0.187281
0.261101
-1.16019
1.085
-0.225349
0.300543
-1.00968
0.934365
-0.251376
0.326691
-0.858966
0.783278
-0.257867
0.333555
-0.707134
0.630513
-0.241995
0.318615
-0.553572
0.476618
-0.206656
0.28361
-0.400085
0.324537
-0.156855
0.232404
-0.2507
0.179512
-0.0963657
0.167554
-0.112127
0.0504137
-0.0219359
0.0836494
-0.00371875
0.00482443
1.90739
-1.90492
1.90121
-0.0133627
0.0170719
-1.89631
1.88944
-0.0208851
0.0277537
-1.88139
1.87157
-0.0272178
0.0370318
-1.85665
1.83414
-0.0356135
0.0581146
-1.80403
1.76734
-0.0592677
0.0959631
-1.72515
1.67834
-0.0957027
0.142509
-1.62761
1.57353
-0.13861
0.192692
-1.51665
1.45756
-0.185078
0.24417
-1.39684
1.33506
-0.233734
0.295507
-1.27281
1.21059
-0.282674
0.344896
-1.14884
1.08789
-0.328552
0.389501
-1.02794
0.969059
-0.366591
0.425476
-0.911123
0.853868
-0.391343
0.448597
-0.796896
0.739719
-0.39819
0.455366
-0.681835
0.622778
-0.385044
0.444101
-0.562171
0.499745
-0.352835
0.415262
-0.43533
0.368822
-0.304188
0.370697
-0.300115
0.229055
-0.241025
0.312086
-0.155443
0.0790976
-0.158172
0.234518
-0.00546259
0.00609382
1.8395
-1.83709
1.83213
-0.0208454
0.0258104
-1.82618
1.81829
-0.0350194
0.042915
-1.8047
1.78353
-0.0522951
0.0734609
-1.75531
1.72129
-0.0884802
0.122507
-1.68257
1.64004
-0.137479
0.180012
-1.59434
1.54599
-0.191692
0.240038
-1.49545
1.44309
-0.2473
0.299653
-1.38931
1.33448
-0.302313
0.357147
-1.27896
1.22311
-0.355295
0.411147
-1.16726
1.11171
-0.404546
0.460096
-1.05669
1.00237
-0.447691
0.502009
-0.948827
0.896022
-0.48171
0.534515
-0.843833
0.792039
-0.50341
0.555204
-0.740339
0.688376
-0.510192
0.562155
-0.635763
0.582109
-0.500759
0.554413
-0.527039
0.470207
-0.475369
0.532202
-0.4113
0.350038
-0.435444
0.496706
-0.286175
0.219498
-0.382442
0.449118
-0.149828
0.0768868
-0.311442
0.384382
-0.00723079
0.00854007
1.77289
-1.77012
1.76621
-0.0303135
0.0342227
-1.75763
1.74171
-0.0545258
0.0704521
-1.71867
1.68981
-0.0998728
0.128731
-1.65634
1.61918
-0.159424
0.196582
-1.57901
1.53634
-0.223797
0.266467
-1.49159
1.44512
-0.28853
0.335003
-1.39723
1.3482
-0.351332
0.40036
-1.2983
1.24776
-0.410729
0.461269
-1.19681
1.14567
-0.465459
0.516597
-1.09453
1.04353
-0.514135
0.565132
-0.992799
0.9424
-0.555109
0.605509
-0.892351
0.842612
-0.586529
0.636268
-0.793087
0.743626
-0.606586
0.656047
-0.694031
0.644071
-0.613882
0.663842
-0.593485
0.542003
-0.607767
0.659249
-0.489354
0.435275
-0.588502
0.642581
-0.379526
0.321896
-0.557112
0.614743
-0.262209
0.200333
-0.514505
0.57638
-0.136157
0.0694972
-0.455454
0.522114
-0.00941008
0.00987677
1.71028
-1.70729
1.69908
-0.0397226
0.0479359
-1.68346
1.66145
-0.0904156
0.112425
-1.63442
1.60344
-0.159682
0.190661
-1.56928
1.5325
-0.234502
0.271283
-1.49353
1.45272
-0.30912
0.349935
-1.41035
1.36668
-0.380956
0.424628
-1.32192
1.27628
-0.448541
0.494178
-1.22995
1.18307
-0.510793
0.557667
-1.13581
1.0883
-0.566722
0.614239
-1.04063
0.992904
-0.615284
0.66301
-0.945176
0.897476
-0.655357
0.703058
-0.8498
0.802113
-0.685799
0.733486
-0.754347
0.706402
-0.705594
0.753539
-0.658151
0.609448
-0.71404
0.762743
-0.560127
0.510016
-0.71093
0.76104
-0.458943
0.406743
-0.696629
0.74883
-0.353266
0.298384
-0.671937
0.726818
-0.241999
0.184037
-0.637265
0.695227
-0.124442
0.0631195
-0.587095
0.648418
-0.0104266
0.0117308
1.6479
-1.64276
1.6294
-0.0592225
0.0725879
-1.61002
1.58603
-0.136234
0.160221
-1.55844
1.52793
-0.222182
0.252693
-1.49499
1.45999
-0.307944
0.342941
-1.42323
1.38496
-0.390257
0.428531
-1.34538
1.30467
-0.467598
0.508302
-1.26301
1.22053
-0.539019
0.5815
-1.17736
1.13362
-0.603754
0.647492
-1.08941
1.04482
-0.661078
0.705671
-0.999914
0.954744
-0.710249
0.755419
-0.909345
0.863732
-0.750521
0.796134
-0.817899
0.771819
-0.781196
0.827275
-0.725448
0.678722
-0.801723
0.848449
-0.631562
0.583879
-0.811806
0.85949
-0.535572
0.48654
-0.811498
0.86053
-0.436682
0.385905
-0.801219
0.851996
-0.334126
0.281279
-0.781593
0.83444
-0.227317
0.172212
-0.752678
0.807783
-0.115947
0.0584987
-0.708722
0.766171
-0.0141936
0.0181291
1.58631
-1.57814
1.56224
-0.0877998
0.103702
-1.54187
1.51807
-0.184737
0.208543
-1.49148
1.46258
-0.283038
0.311943
-1.43168
1.39904
-0.377421
0.410057
-1.36488
1.32937
-0.466111
0.501624
-1.29266
1.25489
-0.548247
0.58602
-1.21617
1.17661
-0.62324
0.662796
-1.13631
1.09535
-0.690579
0.731541
-1.0538
1.01171
-0.74976
0.791846
-0.969142
0.926123
-0.800279
0.843299
-0.882677
0.838813
-0.841655
0.885519
-0.794529
0.74981
-0.873478
0.918198
-0.704628
0.658946
-0.895476
0.941158
-0.612721
0.5659
-0.907585
0.954406
-0.518429
0.470256
-0.909991
0.958165
-0.421328
0.371601
-0.90312
0.952847
-0.321039
0.269619
-0.887453
0.938873
-0.21733
0.164178
-0.862796
0.915949
-0.110177
0.0553572
-0.823187
0.878007
-0.0233675
0.0299586
1.52667
-1.51611
1.4996
-0.120387
0.1369
-1.47971
1.45714
-0.232248
0.254817
-1.43233
1.40557
-0.340334
0.367094
-1.37709
1.34707
-0.441981
0.472004
-1.31565
1.28296
-0.536352
0.569041
-1.24911
1.21419
-0.62302
0.657934
-1.1783
1.14151
-0.701653
0.738449
-1.10387
1.06547
-0.771932
0.81034
-1.02633
0.986513
-0.833525
0.873344
-0.946043
0.904948
-0.886105
0.9272
-0.863244
0.82094
-0.929374
0.971678
-0.778036
0.734526
-0.963105
1.00662
-0.690398
0.645634
-0.987194
1.03196
-0.600213
0.554113
-1.0017
1.0478
-0.50731
0.459786
-1.00686
1.05439
-0.411522
0.36251
-1.00308
1.05209
-0.312747
0.262241
-0.990709
1.04121
-0.21101
0.159084
-0.969368
1.02129
-0.106508
0.0533507
-0.932873
0.98603
-0.0374139
0.0457577
1.47011
-1.4584
1.44238
-0.153569
0.169589
-1.42376
1.40297
-0.276943
0.297727
-1.38031
1.35596
-0.393143
0.417494
-1.33007
1.30275
-0.501206
0.528519
-1.27412
1.24424
-0.600896
0.630772
-1.2132
1.18106
-0.692068
0.724207
-1.14788
1.11372
-0.774569
0.808732
-1.07862
1.04262
-0.848215
0.884215
-1.00575
0.968056
-0.912803
0.950502
-0.929545
0.89024
-0.968129
1.00743
-0.850153
0.80929
-1.01402
1.05488
-0.767655
0.725247
-1.05035
1.09276
-0.682063
0.6381
-1.07713
1.12109
-0.593354
0.54782
-1.09444
1.13997
-0.5015
0.454397
-1.10254
1.14965
-0.406521
0.357888
-1.10177
1.1504
-0.308523
0.258458
-1.09237
1.14243
-0.207736
0.156411
-1.07379
1.12512
-0.10455
0.0522589
-1.03963
1.09192
-0.05441
0.0634593
1.41637
-1.40445
1.38958
-0.18538
0.200243
-1.37268
1.35399
-0.317855
0.336541
-1.33369
1.31188
-0.441009
0.462815
-1.28866
1.26409
-0.55494
0.57951
-1.23823
1.21114
-0.659775
0.686865
-1.18287
1.15345
-0.755546
0.784965
-1.12293
1.09133
-0.84221
0.873804
-1.0587
1.02505
-0.919678
0.953328
-0.990406
0.954784
-0.987837
1.02346
-0.918197
0.880654
-1.04657
1.08411
-0.84216
0.802718
-1.09577
1.13522
-0.762331
0.720997
-1.13541
1.17674
-0.67872
0.6355
-1.16548
1.2087
-0.591345
0.546264
-1.1861
1.23118
-0.500272
0.453392
-1.19748
1.24436
-0.405653
0.357095
-1.19985
1.24841
-0.307763
0.257716
-1.19336
1.2434
-0.207019
0.155751
-1.17729
1.22856
-0.104004
0.051913
-1.14499
1.19708
-0.072345
0.0812228
1.3655
-1.35389
1.3406
-0.21462
0.227909
-1.32568
1.30926
-0.354431
0.370848
-1.29142
1.2722
-0.483705
0.502921
-1.25166
1.22981
-0.603141
0.624986
-1.2067
1.18235
-0.713052
0.737399
-1.1568
1.13006
-0.813558
0.840297
-1.10216
1.07311
-0.904683
0.933727
-1.04294
1.01165
-0.986403
1.01769
-0.979254
0.945751
-1.05867
1.09217
-0.911144
0.875429
-1.12143
1.15715
-0.838602
0.800657
-1.17464
1.21259
-0.761586
0.721385
-1.21827
1.25847
-0.680051
0.637585
-1.25234
1.2948
-0.593995
0.549294
-1.2769
1.3216
-0.503508
0.456671
-1.29206
1.3389
-0.408827
0.360036
-1.29795
1.34674
-0.310368
0.259905
-1.29453
1.34499
-0.208743
0.156989
-1.28095
1.33271
-0.104769
0.0522482
-1.25027
1.30279
-0.0895991
0.0976703
1.31723
-1.30667
1.2952
-0.240539
0.252008
-1.2824
1.26831
-0.386388
0.400483
-1.25293
1.23627
-0.521183
0.537845
-1.21833
1.19914
-0.645873
0.665064
-1.17871
1.15704
-0.760824
0.782494
-1.13415
1.11005
-0.866182
0.890277
-1.08476
1.05828
-0.962009
0.98849
-1.03061
1.00176
-1.04834
1.07719
-0.971708
0.940454
-1.12518
1.15643
-0.907979
0.874266
-1.19254
1.22625
-0.839291
0.803033
-1.25041
1.28667
-0.765466
0.726569
-1.29879
1.33768
-0.686325
0.644721
-1.33764
1.37925
-0.601753
0.55743
-1.36694
1.41127
-0.511773
0.464819
-1.38665
1.4336
-0.416624
0.367263
-1.39668
1.44604
-0.316831
0.265442
-1.39679
1.44818
-0.213232
0.160351
-1.3859
1.43878
-0.106974
0.0533165
-1.35677
1.41043
-0.105029
0.111889
1.27076
-1.2618
1.25226
-0.262711
0.27225
-1.24161
1.22979
-0.413666
0.425476
-1.2168
1.20259
-0.553548
0.567756
-1.18716
1.17051
-0.683298
0.699944
-1.15265
1.13358
-0.803231
0.822301
-1.11331
1.09185
-0.913479
0.934944
-1.06919
1.04534
-1.01413
1.03798
-1.0203
0.994039
-1.10528
1.13154
-0.96655
0.937801
-1.18703
1.21578
-0.907759
0.876382
-1.25945
1.29083
-0.843624
0.809435
-1.32261
1.3568
-0.773762
0.736553
-1.37651
1.41372
-0.697756
0.657329
-1.42108
1.46151
-0.615237
0.571462
-1.45617
1.49994
-0.526
0.478876
-1.48151
1.52864
-0.43014
0.379874
-1.49673
1.547
-0.328196
0.27526
-1.50122
1.55415
-0.221257
0.166414
-1.49352
1.54837
-0.110991
0.0552982
-1.46601
1.5217
-0.117941
0.123394
1.22646
-1.21909
1.21147
-0.280978
0.288603
-1.20286
1.1932
-0.436389
0.446055
-1.18241
1.17047
-0.581041
0.592978
-1.15737
1.1431
-0.715661
0.72993
-1.12768
1.1111
-0.840438
0.857018
-1.09338
1.07452
-0.955471
0.974322
-1.05454
1.03343
-1.06089
1.082
-1.01118
0.987757
-1.15687
1.1803
-0.963136
0.937272
-1.24364
1.26951
-0.910108
0.881579
-1.32141
1.34994
-0.851606
0.820101
-1.39035
1.42185
-0.786969
0.75211
-1.45052
1.48538
-0.71542
0.676796
-1.50187
1.54049
-0.636145
0.593383
-1.5441
1.58686
-0.54845
0.501314
-1.57668
1.62382
-0.451982
0.400513
-1.59877
1.65024
-0.347025
0.291708
-1.60916
1.66447
-0.234829
0.176737
-1.60569
1.66378
-0.117869
0.0587615
-1.58006
1.63917
-0.128033
0.132057
1.18376
-1.17783
1.17198
-0.295438
0.301287
-1.16523
1.15747
-0.454891
0.462649
-1.14865
1.13872
-0.604071
0.613995
-1.1277
1.11558
-0.743332
0.755447
-1.1024
1.08817
-0.872687
0.886917
-1.07292
1.05666
-0.992197
1.00845
-1.03941
1.02117
-1.10206
1.1203
-1.00193
0.981657
-1.20259
1.22286
-0.960316
0.937848
-1.29419
1.31666
-0.914179
0.889215
-1.37729
1.40225
-0.862845
0.83494
-1.45224
1.48015
-0.805353
0.773919
-1.51931
1.55074
-0.74046
0.704786
-1.57851
1.61419
-0.666701
0.626008
-1.62954
1.67024
-0.582522
0.53608
-1.67161
1.71806
-0.486562
0.433911
-1.70331
1.75596
-0.37816
0.319468
-1.72241
1.7811
-0.258155
0.194745
-1.7254
1.78881
-0.130033
0.0651895
-1.70249
1.76733
-0.135338
0.138056
1.14253
-1.13832
1.13399
-0.30643
0.310758
-1.12879
1.1226
-0.469702
0.47589
-1.11538
1.10712
-0.623205
0.631462
-1.09785
1.08759
-0.766798
0.777053
-1.0764
1.06433
-0.900285
0.912358
-1.05142
1.0377
-1.02371
1.03742
-1.02322
1.00798
-1.13737
1.15261
-0.991978
0.975197
-1.24178
1.25856
-0.957598
0.939119
-1.33759
1.35607
-0.919676
0.899159
-1.42554
1.44605
-0.877432
0.854331
-1.5063
1.5294
-0.829662
0.803197
-1.58046
1.60693
-0.774677
0.743806
-1.64837
1.67924
-0.710253
0.673655
-1.70994
1.74654
-0.633622
0.589743
-1.76441
1.80829
-0.541612
0.488854
-1.80991
1.86267
-0.431175
0.36844
-1.84297
1.90571
-0.300778
0.228778
-1.85756
1.92956
-0.153841
0.0789476
-1.84032
1.91521
-0.140163
0.141822
1.10243
-1.09952
1.09636
-0.31452
0.317686
-1.09229
1.08725
-0.481549
0.486594
-1.08121
1.0742
-0.639178
0.646187
-1.06628
1.05754
-0.78668
0.795424
-1.04805
1.0379
-0.923642
0.933792
-1.02716
1.01592
-1.05012
1.06136
-1.00421
0.992076
-1.16656
1.17869
-0.979538
0.966591
-1.27374
1.28668
-0.95321
0.939345
-1.37262
1.38649
-0.92492
0.909829
-1.46431
1.4794
-0.893937
0.877072
-1.54994
1.5668
-0.859023
0.839533
-1.63061
1.6501
-0.818294
0.794935
-1.70725
1.73061
-0.769014
0.740002
-1.7805
1.80951
-0.707272
0.670084
-1.85029
1.88748
-0.627571
0.578748
-1.91524
1.96406
-0.522528
0.457802
-1.97137
2.03609
-0.383617
0.299647
-2.00962
2.09359
-0.207484
0.114021
-2.0095
2.10296
-0.14305
0.144
1.06357
-1.06182
1.05936
-0.320487
0.322949
-1.05594
1.05153
-0.49134
0.495754
-1.04615
1.03991
-0.652871
0.659118
-1.0329
1.02526
-0.803712
0.811349
-1.01713
1.00862
-0.943255
0.951764
-0.999853
0.990938
-1.07161
1.08052
-0.981959
0.972983
-1.18944
1.19842
-0.964055
0.955202
-1.29781
1.30666
-0.946424
0.9377
-1.39805
1.40677
-0.928985
0.920205
-1.49166
1.50044
-0.91126
0.902017
-1.58026
1.5895
-0.892308
0.881919
-1.66557
1.67596
-0.870585
0.857973
-1.74935
1.76196
-0.843664
0.827123
-1.8334
1.84994
-0.807661
0.784377
-1.91941
1.94269
-0.756075
0.721161
-2.00853
2.04344
-0.677495
0.622221
-2.10004
2.15531
-0.55165
0.46165
-2.18723
2.27723
-0.350095
0.222233
-2.24778
2.37564
-0.144737
0.145413
1.02585
-1.02443
1.02214
-0.325296
0.327592
-1.0188
1.01445
-0.50014
0.504492
-1.00919
1.00319
-0.665287
0.671291
-0.996615
0.989661
-0.818723
0.825678
-0.982512
0.975343
-0.959707
0.966876
-0.968316
0.96157
-1.08847
1.09522
-0.955229
0.94939
-1.20595
1.21179
-0.944133
0.939515
-1.31353
1.31815
-0.935573
0.932327
-1.41289
1.41614
-0.929777
0.927907
-1.50591
1.50778
-0.926685
0.926063
-1.59462
1.59524
-0.925976
0.926342
-1.68122
1.68085
-0.927057
0.927995
-1.76818
1.76725
-0.928993
0.929839
-1.85846
1.85761
-0.93025
0.929823
-1.95585
1.95628
-0.927961
0.923731
-2.06584
2.07007
-0.915604
0.900967
-2.19712
2.21175
-0.87513
0.829797
-2.36495
2.41028
-0.75368
0.661197
-2.61673
2.70921
0.00992338
-0.0178954
0.00797198
-0.0167075
0.0222277
-0.00552015
-0.0268354
0.0308149
-0.00397948
-0.0343814
0.0376394
-0.00325791
-0.0406461
0.0434371
-0.00279102
-0.046033
0.0484517
-0.00241866
-0.0507071
0.0528024
-0.00209536
-0.0547416
0.0565316
-0.00179001
-0.0581716
0.0596698
-0.00149822
-0.0610347
0.0622781
-0.00124347
-0.0633923
0.0643868
-0.000994535
-0.0652617
0.066023
-0.000761306
-0.0666796
0.0672212
-0.000541529
-0.0676578
0.0679926
-0.000334823
-0.0682375
0.0683986
-0.000161096
-0.0684766
0.0684699
6.65207e-06
-0.0683923
0.0682421
0.000150198
-0.068026
0.0677509
0.000275108
-0.0674166
0.0670276
0.000388968
-0.0665938
0.0661215
0.000472315
-0.0656222
0.065087
0.000535272
-0.0645193
0.063918
0.000601329
-0.0632883
0.0626273
0.000660989
-0.061937
0.0612121
0.000724872
-0.060454
0.0596724
0.000781618
-0.0588705
0.0580541
0.00081643
-0.0572201
0.0563771
0.00084301
-0.055531
0.0546807
0.000850312
-0.0538272
0.0529646
0.000862681
-0.0520901
0.0512106
0.000879474
-0.0503208
0.0494368
0.000883972
-0.0485454
0.0476696
0.000875726
-0.0467957
0.0459503
0.00084538
-0.0451151
0.0443031
0.000811997
-0.0435037
0.0427144
0.000789278
-0.0419358
0.0411577
0.000778176
-0.0403874
0.0396114
0.000775948
-0.038838
0.0380555
0.000782443
-0.0372734
0.0364833
0.000790174
-0.0356899
0.0348871
0.000802754
-0.0340779
0.0332611
0.000816748
-0.0324423
0.0316227
0.000819624
-0.0308032
0.0299833
0.00081991
-0.0291592
0.0283303
0.000828862
-0.0274977
0.0266634
0.000834274
-0.025832
0.0250039
0.000828083
-0.0241807
0.0233617
0.000819039
-0.0225447
0.0217302
0.000814552
-0.0209155
0.0201014
0.000814144
-0.0192874
0.0184741
0.000813306
-0.0176637
0.0168556
0.000808086
-0.0160513
0.0152503
0.000801009
-0.0144531
0.0136595
0.000793637
-0.0128689
0.0120802
0.000788689
-0.0112937
0.0105078
0.000785929
-0.00972354
0.00893927
0.000784272
-0.00815571
0.00737116
0.000784549
-0.00658514
0.00579538
0.000789761
-0.00500002
0.00418885
0.000811172
-0.00337711
0.00249092
0.000886194
0.0250988
-0.031475
0.00637617
-0.0128696
0.0178316
0.0106208
-0.0155829
-0.0223094
0.0263522
0.00791664
-0.0119594
-0.0300116
0.0333502
0.00646882
-0.00980748
-0.0364314
0.0392906
0.00554018
-0.0083994
-0.0419518
0.0444421
0.00481551
-0.00730578
-0.0467677
0.0489348
0.00418626
-0.00635329
-0.0509539
0.0528267
0.00358916
-0.00546198
-0.0545599
0.0561581
0.00303282
-0.00463104
-0.0576228
0.0589643
0.00252745
-0.00386901
-0.0601851
0.061286
0.00204594
-0.00314682
-0.0622696
0.0631356
0.00158512
-0.0024511
-0.0638872
0.0645303
0.00114405
-0.00178723
-0.0650699
0.0655127
0.000744263
-0.00118712
-0.065865
0.0661316
0.000394849
-0.000661405
-0.066318
0.0664321
7.44983e-05
-0.000188528
-0.0664755
0.0664549
-0.000205639
0.000226281
-0.0663738
0.0662272
-0.000463039
0.000609616
-0.066021
0.0657546
-0.000690764
0.000957176
-0.0654326
0.0650584
-0.000869874
0.00124407
-0.064639
0.0641823
-0.000997519
0.00145424
-0.0636896
0.0631676
-0.00112245
0.00164447
-0.0626148
0.0620323
-0.00124472
0.00182728
-0.0614205
0.0607792
-0.00137027
0.00201156
-0.0601086
0.0594094
-0.00149001
0.00218916
-0.0586843
0.0579351
-0.0015769
0.00232609
-0.0571692
0.0563883
-0.00162784
0.00240866
-0.055599
0.0548048
-0.00164372
0.00243793
-0.0540093
0.053212
-0.00166292
0.00246024
-0.0524119
0.0516096
-0.00169007
0.00249233
-0.0508038
0.0499905
-0.00170697
0.00252021
-0.0491779
0.0483616
-0.00170104
0.00251733
-0.0475516
0.0467461
-0.00165159
0.00245706
-0.0459541
0.045172
-0.00158756
0.00236968
-0.0444015
0.0436383
-0.00154205
0.00230528
-0.0428804
0.0421236
-0.00152173
0.00227861
-0.0413634
0.040603
-0.00152263
0.00228306
-0.0398363
0.039066
-0.00153468
0.00230495
-0.0382903
0.0375084
-0.00155589
0.00233785
-0.036716
0.0359153
-0.0015865
0.0023873
-0.0351026
0.0342826
-0.00161663
0.00243659
-0.0334565
0.0326261
-0.00162947
0.00245992
-0.0317943
0.0309618
-0.00163649
0.00246894
-0.030127
0.0292903
-0.00164972
0.00248652
-0.0284486
0.0276029
-0.00165982
0.00250552
-0.0267555
0.0259072
-0.00165656
0.00250487
-0.0250605
0.0242165
-0.00164398
0.00248797
-0.0233744
0.0225347
-0.00163379
0.00247349
-0.0216971
0.0208592
-0.00163136
0.00246923
-0.0200222
0.0191863
-0.00163201
0.00246794
-0.0183506
0.017517
-0.0016238
0.00245749
-0.0166858
0.0158561
-0.00160846
0.00243807
-0.0150295
0.0142056
-0.00159722
0.0024212
-0.0133836
0.0125628
-0.00159062
0.00241136
-0.0117439
0.0109258
-0.00158522
0.00240332
-0.010109
0.00929153
-0.0015813
0.00239878
-0.00847454
0.00765733
-0.00158279
0.00239999
-0.00683851
0.00601728
-0.0015927
0.00241393
-0.00519125
0.00435965
-0.00162688
0.00245849
-0.00351611
0.00266721
-0.00174986
0.00259876
0.0372625
-0.0425405
0.00527799
-0.0110402
0.0158064
0.0203977
-0.025164
-0.0201949
0.0242707
0.0159873
-0.0200631
-0.0280497
0.0315512
0.0132093
-0.0167108
-0.034803
0.0378273
0.0113169
-0.0143412
-0.0406497
0.0432805
0.00983989
-0.0124706
-0.0457364
0.0480295
0.00856429
-0.0108574
-0.0501661
0.0521499
0.00737822
-0.00936204
-0.0539877
0.0556856
0.00626533
-0.00796326
-0.0572464
0.0586704
0.00524246
-0.00666644
-0.0599667
0.0611363
0.00427625
-0.00544588
-0.0621843
0.0631143
0.00333748
-0.00426748
-0.0639255
0.0646267
0.00245247
-0.00315365
-0.0652192
0.0657118
0.00165218
-0.00214478
-0.0661134
0.066428
0.000949242
-0.00126392
-0.0666651
0.066829
0.000329538
-0.000493434
-0.0669238
0.0669542
-0.000219116
0.000188722
-0.0669234
0.0668322
-0.000728432
0.000819608
-0.0666827
0.0664709
-0.00119765
0.00140949
-0.0661978
0.0658657
-0.00159636
0.0019285
-0.0654773
0.0650368
-0.00190287
0.00234342
-0.0645526
0.0640301
-0.00216207
0.00268465
-0.0634722
0.0628878
-0.00240186
0.00298625
-0.062279
0.0616475
-0.00264159
0.00327301
-0.0609979
0.0603273
-0.00286924
0.00353988
-0.0596362
0.0589266
-0.00305132
0.00376084
-0.0581991
0.0574488
-0.00317112
0.00392138
-0.0566815
0.0558991
-0.00322479
0.00400714
-0.0551063
0.0543117
-0.0032521
0.0040467
-0.0535191
0.0527315
-0.00328027
0.00406786
-0.051953
0.0511794
-0.00330533
0.00407892
-0.0504108
0.0496444
-0.00330176
0.00406816
-0.0488787
0.0481078
-0.00323766
0.00400856
-0.047335
0.0465583
-0.00314477
0.00392153
-0.0457794
0.0449973
-0.00307405
0.00385613
-0.0442124
0.0434237
-0.00304444
0.00383316
-0.0426326
0.0418387
-0.00305317
0.00384707
-0.0410391
0.0402368
-0.00308098
0.00388326
-0.0394295
0.0386151
-0.00312557
0.00393996
-0.0377936
0.0369654
-0.00319242
0.00402063
-0.036129
0.0352874
-0.00325712
0.00409867
-0.0344404
0.0335883
-0.00329077
0.0041428
-0.0327349
0.0318785
-0.00330724
0.00416362
-0.0310196
0.0301595
-0.00332897
0.00418912
-0.0292964
0.0284296
-0.0033513
0.00421812
-0.0275608
0.026691
-0.00335619
0.00422604
-0.0258211
0.0249524
-0.00333828
0.00420697
-0.0240861
0.023221
-0.00331844
0.00418353
-0.0223588
0.0214974
-0.0033119
0.00417329
-0.0206358
0.0197754
-0.00330972
0.00417012
-0.0189164
0.0180573
-0.00329623
0.00415538
-0.0172006
0.0163456
-0.00327389
0.00412884
-0.0154924
0.0146413
-0.00325452
0.00410565
-0.0137923
0.0129438
-0.00323988
0.00408836
-0.0120987
0.0112541
-0.0032301
0.00407473
-0.0104099
0.00956685
-0.00322306
0.00406613
-0.0087242
0.00788059
-0.00322438
0.004068
-0.00703746
0.00619254
-0.00324296
0.00408788
-0.00534594
0.00449735
-0.003292
0.00414059
-0.00364434
0.00280455
-0.00343401
0.0042738
0.0475189
-0.0521817
0.00466282
-0.00968074
0.0142249
0.0297948
-0.034339
-0.0185236
0.0225842
0.0240921
-0.0281528
-0.0264016
0.029993
0.0202293
-0.0238206
-0.033358
0.0365083
0.0174087
-0.020559
-0.0394521
0.0422088
0.0151493
-0.0179061
-0.0447794
0.0471854
0.0131826
-0.0155887
-0.0494263
0.051513
0.0113848
-0.0134716
-0.0534447
0.0552352
0.00969172
-0.0114822
-0.0568805
0.0583901
0.00812447
-0.00963409
-0.0597623
0.0610065
0.00664126
-0.0078854
-0.0621219
0.0631195
0.00522585
-0.00622346
-0.0639993
0.0647688
0.00388508
-0.0046546
-0.0654309
0.065992
0.00266129
-0.0032224
-0.0664542
0.0668269
0.00160459
-0.00197727
-0.0671169
0.0673256
0.000677931
-0.000886613
-0.0674609
0.0675239
-0.000142014
7.90141e-05
-0.0675208
0.0674569
-0.000890934
0.00095487
-0.0673334
0.0671539
-0.00160198
0.00178153
-0.0669188
0.0666278
-0.00223592
0.00252695
-0.0662779
0.0658714
-0.00276471
0.00317115
-0.0654128
0.0649071
-0.00319704
0.0037028
-0.0643637
0.0637882
-0.00356204
0.0041376
-0.0631897
0.0625723
-0.00389242
0.00450987
-0.0619411
0.0612956
-0.00419077
0.00483621
-0.0606382
0.0599634
-0.00444557
0.00512043
-0.0592711
0.0585567
-0.00464639
0.00536074
-0.0578201
0.0570625
-0.00477181
0.00552935
-0.0562911
0.0555119
-0.00482987
0.00560909
-0.0547363
0.053967
-0.00484076
0.0056101
-0.0532111
0.0524672
-0.00482914
0.00557307
-0.0517359
0.0510071
-0.00480585
0.00553472
-0.0502769
0.0495338
-0.00475494
0.0054981
-0.048777
0.0480016
-0.00468952
0.00546486
-0.047212
0.0464092
-0.00464463
0.00544745
-0.045596
0.0447753
-0.004631
0.0054517
-0.0439507
0.0431214
-0.00465121
0.00548053
-0.0422883
0.0414493
-0.00469425
0.00553329
-0.0406053
0.039755
-0.00476168
0.00561194
-0.0389008
0.0380422
-0.00485443
0.005713
-0.0371831
0.0363187
-0.00494348
0.00580786
-0.0354513
0.0345776
-0.00499551
0.00586919
-0.0336994
0.0328159
-0.00502295
0.00590639
-0.0319305
0.0310427
-0.00505481
0.00594264
-0.0301555
0.0292661
-0.00508859
0.00597794
-0.028377
0.0274855
-0.00509807
0.00598957
-0.0265952
0.0257025
-0.0050781
0.00597078
-0.0248116
0.0239208
-0.00505427
0.00594503
-0.0230332
0.0221456
-0.00504157
0.00592922
-0.02126
0.0203739
-0.00503352
0.00591965
-0.0194893
0.0186049
-0.00501772
0.00590218
-0.0177232
0.0168424
-0.00499357
0.00587435
-0.0159636
0.0150843
-0.00496596
0.00584524
-0.0142082
0.0133325
-0.00494318
0.00581888
-0.01246
0.0115879
-0.00492668
0.00579879
-0.0107183
0.0098485
-0.00491577
0.00578562
-0.00898069
0.00811168
-0.0049173
0.00578631
-0.00724396
0.00637517
-0.00494149
0.00581029
-0.00550692
0.00463821
-0.00499426
0.00586297
-0.00377185
0.00291614
-0.0051116
0.0059673
0.0566213
-0.0608029
0.00418161
-0.00874649
0.0130076
0.0386895
-0.0429506
-0.0171663
0.0211628
0.0321532
-0.0361497
-0.0249867
0.028606
0.027398
-0.0310172
-0.0320288
0.0352525
0.0237202
-0.0269439
-0.0382882
0.0411363
0.0206818
-0.02353
-0.0438101
0.0463153
0.018023
-0.0205281
-0.048648
0.0508283
0.0155833
-0.0177636
-0.0528522
0.054732
0.0132995
-0.0151794
-0.0564663
0.0580666
0.011174
-0.0127743
-0.0595296
0.0608643
0.00916192
-0.0104966
-0.0620702
0.0631538
0.00725159
-0.00833516
-0.0641184
0.0649722
0.00545963
-0.00631349
-0.065717
0.0663587
0.00382056
-0.00446225
-0.0668983
0.0673368
0.00237373
-0.00281222
-0.067678
0.0679299
0.00111146
-0.00136329
-0.0680923
0.0681758
-4.37802e-06
-7.91095e-05
-0.0681852
0.0681282
-0.00101486
0.00107185
-0.0680078
0.067835
-0.00194712
0.00211987
-0.0676129
0.0673431
-0.00280173
0.00307153
-0.0670251
0.0666598
-0.00355271
0.00391803
-0.0662454
0.0657884
-0.00418114
0.00463806
-0.0652899
0.0647557
-0.0046903
0.00522457
-0.0641903
0.0636024
-0.0051053
0.00569314
-0.0629953
0.0623728
-0.00546252
0.00608504
-0.0617354
0.0610799
-0.00577693
0.00643248
-0.060409
0.0597205
-0.00605253
0.00674095
-0.0590156
0.0582949
-0.00626035
0.00698107
-0.0575623
0.0568213
-0.00636308
0.00710407
-0.0560777
0.0553372
-0.00635764
0.00709813
-0.0546052
0.0538799
-0.00629825
0.00702357
-0.0531635
0.0524457
-0.00624727
0.00696504
-0.0517241
0.0509862
-0.00622766
0.0069655
-0.0502314
0.0494529
-0.00623338
0.00701187
-0.0486526
0.0478349
-0.00625003
0.00706776
-0.046997
0.0461516
-0.00627688
0.00712234
-0.0452957
0.0444361
-0.00631875
0.00717838
-0.043569
0.0426981
-0.00638082
0.00725174
-0.0418196
0.0409379
-0.00646928
0.00735098
-0.0400518
0.0391663
-0.00657677
0.00746225
-0.0382797
0.037392
-0.00667386
0.0075615
-0.036501
0.0356054
-0.00674325
0.00763884
-0.0347003
0.033789
-0.00679098
0.00770225
-0.0328747
0.031958
-0.00683579
0.00775245
-0.0310442
0.0301306
-0.00687328
0.00778691
-0.0292201
0.0283075
-0.00688237
0.00779501
-0.0273935
0.0264776
-0.00686367
0.00777966
-0.0255612
0.0246431
-0.00684022
0.00775829
-0.0237275
0.022812
-0.00682349
0.00773892
-0.0219002
0.0209883
-0.0068091
0.00772101
-0.0200793
0.0191696
-0.00679029
0.00770004
-0.0182623
0.0173537
-0.00676407
0.00767265
-0.0164448
0.0155393
-0.00673159
0.00763701
-0.0146347
0.0137336
-0.0067007
0.00760184
-0.0128332
0.0119356
-0.00667669
0.0075743
-0.0110381
0.010143
-0.00666144
0.0075565
-0.00924806
0.00835464
-0.00666184
0.00755526
-0.00746018
0.00656565
-0.00668421
0.00757874
-0.00567248
0.00478292
-0.00673726
0.00762682
-0.00389489
0.00301565
-0.00682637
0.00770561
0.0648875
-0.06885
0.00396252
-0.00807551
0.0121035
0.0470704
-0.0510983
-0.0161
0.0200037
0.0400751
-0.0439787
-0.023757
0.0273751
0.0346146
-0.0382327
-0.0308261
0.0341012
0.0301694
-0.0334445
-0.0371983
0.040121
0.0263936
-0.0293163
-0.042872
0.0454531
0.0230523
-0.0256334
-0.0478762
0.0501443
0.0199633
-0.0222314
-0.0522634
0.0542353
0.0170915
-0.0190635
-0.0560675
0.0577643
0.0144056
-0.0161024
-0.0593246
0.0607547
0.0118665
-0.0132966
-0.0620596
0.0632407
0.00945677
-0.0106378
-0.0643016
0.065244
0.00719952
-0.00814194
-0.0660735
0.0667894
0.00513694
-0.00585283
-0.0673984
0.067902
0.00328352
-0.00378713
-0.0682992
0.0685976
0.0016358
-0.00193419
-0.0687972
0.0689084
0.000175083
-0.000286229
-0.0689361
0.0688877
-0.00112757
0.001176
-0.0687727
0.0685987
-0.00229187
0.00246588
-0.0683748
0.0681124
-0.00333455
0.00359691
-0.0678145
0.0674829
-0.00426055
0.00459212
-0.0671176
0.0667172
-0.00506471
0.00546507
-0.0662801
0.0658075
-0.00572475
0.00619733
-0.0652994
0.0647578
-0.00625127
0.00679293
-0.064187
0.0635857
-0.00669031
0.00729159
-0.0629574
0.0623091
-0.00707528
0.00772355
-0.0616444
0.06097
-0.00741008
0.00808447
-0.060289
0.0596065
-0.00767318
0.00835567
-0.0589187
0.0582296
-0.00780899
0.00849807
-0.0575352
0.0568348
-0.00780898
0.00850933
-0.0561263
0.0554093
-0.00773668
0.0084537
-0.0546863
0.053952
-0.00768177
0.00841605
-0.0532073
0.0524485
-0.00770135
0.00846014
-0.0516742
0.0508818
-0.00778471
0.00857715
-0.0500705
0.0492426
-0.00788359
0.00871142
-0.0483936
0.047529
-0.00796876
0.00883341
-0.0466518
0.0457636
-0.00804561
0.00893382
-0.0448676
0.0439673
-0.00813148
0.00903182
-0.0430642
0.0421561
-0.00823912
0.00914726
-0.0412453
0.0403332
-0.00835362
0.00926567
-0.0394203
0.0385054
-0.00845528
0.00937018
-0.0375884
0.0366632
-0.00854127
0.00946639
-0.035731
0.0347925
-0.00861533
0.00955384
-0.0338499
0.0329066
-0.00867209
0.00961539
-0.0319647
0.0310274
-0.00870637
0.00964367
-0.0300906
0.029154
-0.00871021
0.00964681
-0.0282159
0.0272746
-0.00869795
0.00963929
-0.02633
0.0253837
-0.00867943
0.0096257
-0.0244391
0.0234948
-0.00865954
0.00960385
-0.0225534
0.0216144
-0.0086385
0.00957749
-0.0206782
0.0197425
-0.00861536
0.00955097
-0.0188076
0.0178739
-0.00858826
0.00952192
-0.0169407
0.0160068
-0.00855009
0.00948399
-0.0150753
0.0141459
-0.00851283
0.00944224
-0.0132187
0.0122925
-0.00848025
0.00940648
-0.0113696
0.0104457
-0.00846064
0.00938449
-0.00952368
0.00860203
-0.0084596
0.00938124
-0.00768133
0.0067611
-0.00847855
0.00939878
-0.00584249
0.00492831
-0.00852518
0.00943936
-0.00401593
0.00310816
-0.00859402
0.00950179
0.0727966