/*--------------------------------*- C++ -*----------------------------------*\
| =========                 |                                                 |
| \\      /  F ield         | OpenFOAM: The Open Source CFD Toolbox           |
|  \\    /   O peration     | Version:  v1912                                 |
|   \\  /    A nd           | Website:  www.openfoam.com                      |
|    \\/     M anipulation  |                                                 |
\*---------------------------------------------------------------------------*/
FoamFile
{
    version     2.0;
    format      ascii;
    class       volVectorField;
    location    "6";
    object      U;
}
// * * * * * * * * * * * * * * * * * * * * * * * * * * * * * * * * * * * * * //

dimensions      [0 1 -1 0 0 0 0];


internalField   nonuniform List<vector> 
20320
(
(1.98871 0.00365638 0)
(1.99023 -0.00999247 0)
(1.974 -0.00593284 0)
(1.96813 -0.0026193 0)
(1.95666 -0.000810838 0)
(1.9473 -0.004132 0)
(1.94435 -0.000587737 0)
(1.93436 0.00264082 0)
(1.91534 0.0195675 0)
(1.85617 0.0481589 0)
(1.75069 0.0889472 0)
(1.58663 0.137445 0)
(1.36395 0.188137 0)
(1.0892 0.229901 0)
(0.786619 0.237892 0)
(0.494564 0.205886 0)
(0.246477 0.148944 0)
(0.0647657 0.0793029 0)
(-0.0372549 0.00815629 0)
(-0.0556474 -0.043729 0)
(1.9886 0.00611216 0)
(1.97975 0.0139917 0)
(1.96194 0.0233422 0)
(1.95101 0.0283826 0)
(1.93781 0.0334694 0)
(1.91422 0.0372653 0)
(1.86476 0.0716516 0)
(1.78341 0.132857 0)
(1.67689 0.210374 0)
(1.55292 0.301455 0)
(1.41656 0.401697 0)
(1.27179 0.502318 0)
(1.1224 0.590216 0)
(0.971759 0.649189 0)
(0.820874 0.664145 0)
(0.668532 0.628975 0)
(0.514641 0.548809 0)
(0.361569 0.434045 0)
(0.213668 0.291784 0)
(0.0806671 0.111494 0)
(1.98868 0.00964498 0)
(1.97883 0.0346338 0)
(1.95902 0.0521856 0)
(1.94663 0.0685107 0)
(1.91533 0.0980844 0)
(1.85282 0.168769 0)
(1.76538 0.262775 0)
(1.66017 0.367475 0)
(1.54226 0.477301 0)
(1.41637 0.589123 0)
(1.2873 0.698832 0)
(1.15928 0.799596 0)
(1.03498 0.881871 0)
(0.914828 0.935006 0)
(0.79665 0.950108 0)
(0.676578 0.923005 0)
(0.550858 0.855067 0)
(0.417165 0.75104 0)
(0.274428 0.614917 0)
(0.124701 0.435699 0)
(1.98828 0.0125831 0)
(1.97927 0.0518537 0)
(1.95818 0.0853037 0)
(1.93148 0.136304 0)
(1.87053 0.232401 0)
(1.7873 0.351802 0)
(1.68902 0.479451 0)
(1.58031 0.608018 0)
(1.46466 0.73342 0)
(1.34526 0.852505 0)
(1.22516 0.96164 0)
(1.10685 1.056 0)
(0.991693 1.12969 0)
(0.879446 1.17658 0)
(0.768244 1.19175 0)
(0.655069 1.1727 0)
(0.536598 1.11993 0)
(0.40982 1.03626 0)
(0.272337 0.924648 0)
(0.12519 0.773916 0)
(1.98912 0.0176609 0)
(1.97478 0.0714063 0)
(1.95283 0.1363 0)
(1.90211 0.252548 0)
(1.82739 0.39496 0)
(1.73779 0.544641 0)
(1.63799 0.693046 0)
(1.53117 0.835667 0)
(1.41986 0.969467 0)
(1.30623 1.09178 0)
(1.19216 1.19971 0)
(1.079 1.28993 0)
(0.967365 1.35882 0)
(0.856895 1.40292 0)
(0.746266 1.4196 0)
(0.63342 1.40772 0)
(0.515961 1.36793 0)
(0.391553 1.30234 0)
(0.258324 1.21267 0)
(0.117685 1.08705 0)
(1.99001 0.0215358 0)
(1.97264 0.0955298 0)
(1.93603 0.224139 0)
(1.87367 0.388826 0)
(1.79462 0.561967 0)
(1.70447 0.732508 0)
(1.60645 0.895462 0)
(1.50292 1.04791 0)
(1.39572 1.18763 0)
(1.28639 1.31258 0)
(1.17612 1.42063 0)
(1.0657 1.50951 0)
(0.955403 1.577 0)
(0.844895 1.62115 0)
(0.733264 1.64069 0)
(0.619152 1.63535 0)
(0.50098 1.60599 0)
(0.377219 1.55427 0)
(0.246687 1.48088 0)
(0.111225 1.37339 0)
(1.99019 0.0239672 0)
(1.96465 0.145222 0)
(1.91814 0.328968 0)
(1.85203 0.527652 0)
(1.77299 0.723443 0)
(1.6848 0.910118 0)
(1.58984 1.08474 0)
(1.48987 1.24543 0)
(1.3863 1.39064 0)
(1.28024 1.5189 0)
(1.17249 1.6287 0)
(1.06357 1.71857 0)
(0.953602 1.78713 0)
(0.842343 1.83337 0)
(0.729191 1.85678 0)
(0.613282 1.85759 0)
(0.493648 1.83674 0)
(0.36938 1.79554 0)
(0.239832 1.73395 0)
(0.107213 1.63907 0)
(1.98852 0.0350003 0)
(1.95477 0.212209 0)
(1.90433 0.436954 0)
(1.83824 0.661326 0)
(1.76134 0.875335 0)
(1.67634 1.07567 0)
(1.585 1.26071 0)
(1.48867 1.42931 0)
(1.38839 1.58045 0)
(1.285 1.71312 0)
(1.17907 1.82632 0)
(1.07097 1.91909 0)
(0.960784 1.99065 0)
(0.848359 2.04052 0)
(0.733337 2.06863 0)
(0.615215 2.07546 0)
(0.493462 2.06193 0)
(0.367621 2.02906 0)
(0.237441 1.97629 0)
(0.10546 1.89026 0)
(1.9859 0.058494 0)
(1.94671 0.285695 0)
(1.89576 0.541375 0)
(1.83173 0.786389 0)
(1.75822 1.01597 0)
(1.67713 1.22866 0)
(1.58976 1.4237 0)
(1.49712 1.60048 0)
(1.4 1.75837 0)
(1.29899 1.89672 0)
(1.19454 2.01488 0)
(1.0869 2.11227 0)
(0.976164 2.18846 0)
(0.862267 2.24329 0)
(0.745033 2.27694 0)
(0.624231 2.28996 0)
(0.499655 2.28319 0)
(0.371187 2.25738 0)
(0.238885 2.21159 0)
(0.105612 2.13196 0)
(1.98337 0.091938 0)
(1.94164 0.359121 0)
(1.89222 0.638843 0)
(1.83155 0.901142 0)
(1.76225 1.14461 0)
(1.6856 1.36899 0)
(1.60251 1.57407 0)
(1.5137 1.75959 0)
(1.41975 1.92521 0)
(1.32108 2.07053 0)
(1.218 2.19516 0)
(1.11069 2.29876 0)
(0.99925 2.38111 0)
(0.88366 2.44223 0)
(0.763885 2.48237 0)
(0.639896 2.50206 0)
(0.511738 2.502 0)
(0.379575 2.48269 0)
(0.243734 2.44283 0)
(0.107423 2.36807 0)
(1.98143 0.130761 0)
(1.93957 0.428683 0)
(1.89307 0.727512 0)
(1.83669 1.00473 0)
(1.77222 1.261 0)
(1.70043 1.49675 0)
(1.62193 1.71212 0)
(1.53719 1.90706 0)
(1.44659 2.08142 0)
(1.35041 2.23499 0)
(1.24884 2.36753 0)
(1.14197 2.47888 0)
(1.02984 2.56893 0)
(0.912463 2.63775 0)
(0.789874 2.68554 0)
(0.662185 2.71273 0)
(0.529642 2.7198 0)
(0.392657 2.70697 0)
(0.251834 2.67263 0)
(0.110781 2.60182 0)
(1.9802 0.170643 0)
(1.9401 0.492018 0)
(1.89755 0.806324 0)
(1.84615 1.09676 0)
(1.78697 1.3651 0)
(1.72042 1.61211 0)
(1.64683 1.83808 0)
(1.56648 2.04308 0)
(1.47959 2.22711 0)
(1.38629 2.39008 0)
(1.28662 2.53192 0)
(1.18057 2.65253 0)
(1.06805 2.75187 0)
(0.949018 2.82995 0)
(0.823485 2.88688 0)
(0.691626 2.92282 0)
(0.553839 2.93796 0)
(0.410777 2.93214 0)
(0.263362 2.90337 0)
(0.115727 2.8361 0)
(1.97961 0.208244 0)
(1.94271 0.547661 0)
(1.90487 0.874786 0)
(1.85892 1.17721 0)
(1.80536 1.45711 0)
(1.74433 1.7153 0)
(1.67597 1.9521 0)
(1.60044 2.16766 0)
(1.51781 2.36209 0)
(1.42807 2.53545 0)
(1.33109 2.68779 0)
(1.22664 2.81912 0)
(1.11445 2.92943 0)
(0.99426 3.01862 0)
(0.865938 3.08658 0)
(0.72958 3.13311 0)
(0.585641 3.1579 0)
(0.435001 3.16026 0)
(0.278996 3.13765 0)
(0.122522 3.07382 0)
(1.97952 0.241285 0)
(1.94687 0.594821 0)
(1.91421 0.932863 0)
(1.87393 1.2464 0)
(1.82614 1.53744 0)
(1.77082 1.80665 0)
(1.70803 2.0543 0)
(1.63785 2.28062 0)
(1.56028 2.48584 0)
(1.47513 2.67023 0)
(1.38207 2.83403 0)
(1.28061 2.97742 0)
(1.17011 3.10042 0)
(1.04994 3.20286 0)
(0.91956 3.28433 0)
(0.778741 3.34412 0)
(0.627773 3.38116 0)
(0.467676 3.39384 0)
(0.300322 3.37872 0)
(0.131834 3.31852 0)
(1.97977 0.268462 0)
(1.95202 0.633286 0)
(1.92469 0.980946 0)
(1.89003 1.30493 0)
(1.84794 1.60669 0)
(1.79838 1.88656 0)
(1.74146 2.14474 0)
(1.67728 2.38154 0)
(1.60578 2.59743 0)
(1.52669 2.79298 0)
(1.43943 2.96875 0)
(1.34315 3.12519 0)
(1.23671 3.26254 0)
(1.11885 3.38063 0)
(0.988253 3.4788 0)
(0.843903 3.55571 0)
(0.685419 3.60919 0)
(0.513566 3.63609 0)
(0.330764 3.63115 0)
(0.145182 3.5752 0)
(1.98022 0.289304 0)
(1.95761 0.663412 0)
(1.93539 1.01988 0)
(1.90597 1.35381 0)
(1.86923 1.66574 0)
(1.82529 1.95559 0)
(1.77447 2.22348 0)
(1.71699 2.4699 0)
(1.65287 2.69565 0)
(1.58175 2.90173 0)
(1.50288 3.08921 0)
(1.41501 3.25906 0)
(1.31641 3.41197 0)
(1.20491 3.54811 0)
(1.078 3.6668 0)
(0.933076 3.76622 0)
(0.768049 3.84289 0)
(0.58223 3.89125 0)
(0.377823 3.90238 0)
(0.166171 3.85254 0)
(1.98072 0.30405 0)
(1.96306 0.68608 0)
(1.94533 1.05096 0)
(1.92037 1.39439 0)
(1.88832 1.71575 0)
(1.84965 2.01448 0)
(1.80504 2.29068 0)
(1.75499 2.5451 0)
(1.6997 2.77898 0)
(1.63889 2.99395 0)
(1.5717 3.19179 0)
(1.49662 3.37426 0)
(1.41137 3.54288 0)
(1.31281 3.69867 0)
(1.19686 3.84168 0)
(1.05851 3.97035 0)
(0.892153 4.08048 0)
(0.692767 4.16364 0)
(0.458803 4.20455 0)
(0.204328 4.16781 0)
(1.98113 0.313527 0)
(1.96779 0.702669 0)
(1.95345 1.0759 0)
(1.93178 1.42839 0)
(1.90341 1.75816 0)
(1.8694 2.0642 0)
(1.83093 2.34663 0)
(1.78897 2.60657 0)
(1.74403 2.84586 0)
(1.69607 3.06687 0)
(1.64436 3.27225 0)
(1.5874 3.46478 0)
(1.5227 3.64722 0)
(1.44657 3.82209 0)
(1.35365 3.99128 0)
(1.23631 4.15534 0)
(1.08387 4.31191 0)
(0.8822 4.45247 0)
(0.615814 4.55511 0)
(0.289574 4.5603 0)
(1.98133 0.319059 0)
(1.97122 0.715017 0)
(1.95871 1.09682 0)
(1.93873 1.45784 0)
(1.9127 1.79468 0)
(1.88245 2.1059 0)
(1.84988 2.39178 0)
(1.81651 2.65395 0)
(1.78333 2.89491 0)
(1.7507 3.11784 0)
(1.71831 3.32628 0)
(1.68506 3.52412 0)
(1.64898 3.71546 0)
(1.60685 3.9047 0)
(1.55366 4.09654 0)
(1.4813 4.29596 0)
(1.37604 4.50759 0)
(1.21352 4.73311 0)
(0.949876 4.96085 0)
(0.532681 5.12191 0)
(1.98118 0.322379 0)
(1.97274 0.725366 0)
(1.96004 1.11614 0)
(1.93977 1.48501 0)
(1.91443 1.82717 0)
(1.88688 2.1409 0)
(1.85979 2.42682 0)
(1.83534 2.68717 0)
(1.81508 2.92521 0)
(1.79988 3.14485 0)
(1.79005 3.35046 0)
(1.78534 3.54671 0)
(1.78501 3.73871 0)
(1.78778 3.93221 0)
(1.79163 4.1342 0)
(1.79324 4.35403 0)
(1.7861 4.60601 0)
(1.75493 4.91515 0)
(1.65337 5.3304 0)
(1.38115 5.93636 0)
(0.0314719 -0.0284617 0)
(0.0783378 -0.00603195 0)
(0.113288 -0.00420011 0)
(0.140434 -0.00344284 -2.61499e-22)
(0.163358 -0.00293556 0)
(0.183157 -0.0025281 0)
(0.200349 -0.00218111 0)
(0.215129 -0.00184345 0)
(0.227615 -0.00152296 0)
(0.238015 -0.0012504 2.13895e-22)
(0.246492 -0.000982323 0)
(0.253128 -0.000734852 0)
(0.258067 -0.000503434 -4.21602e-22)
(0.261341 -0.000281189 -4.83558e-22)
(0.263164 -0.000108526 0)
(0.263693 6.5916e-05 5.85996e-22)
(0.263036 0.000213387 -6.29714e-22)
(0.261339 0.000338115 1.33903e-21)
(0.258732 0.000454353 0)
(0.255371 0.000537708 7.38266e-22)
(0.251487 0.000597819 -7.6398e-22)
(0.247097 0.000671112 -1.55132e-21)
(0.242228 0.00073257 7.91228e-22)
(0.236892 0.000795247 -7.92579e-22)
(0.231063 0.000846981 0)
(0.224895 0.000871333 -7.90127e-22)
(0.218481 0.000900124 0)
(0.211963 0.000909712 7.8374e-22)
(0.205385 0.000928723 1.55019e-21)
(0.198667 0.000950086 0)
(0.191853 0.000946883 7.46463e-22)
(0.18504 0.000928659 -7.2243e-22)
(0.178371 0.000891997 3.49116e-22)
(0.171979 0.000858221 -3.35422e-22)
(0.165832 0.000836675 0)
(0.159828 0.000822488 0)
(0.153879 0.000815346 -3.06828e-22)
(0.147905 0.000821084 0)
(0.141872 0.000827107 2.83454e-22)
(0.135757 0.000838041 0)
(0.129526 0.000850556 0)
(0.123227 0.000849368 2.37874e-22)
(0.116921 0.00084869 0)
(0.11058 0.000862098 0)
(0.104176 0.000867211 -2.03534e-22)
(0.0977797 0.000856191 -1.92566e-22)
(0.0914468 0.00084377 0)
(0.0851635 0.000839789 8.45616e-23)
(0.0788974 0.000841076 -7.71316e-23)
(0.0726358 0.00084111 7.037e-23)
(0.0663996 0.000835041 0)
(0.0602107 0.000826747 -5.92476e-23)
(0.0540782 0.000818211 0)
(0.0479942 0.000812106 2.41516e-23)
(0.0419405 0.000808919 0)
(0.0359038 0.000806677 0)
(0.0298723 0.000806776 6.81531e-28)
(0.0238222 0.000813011 1.07525e-28)
(0.0177731 0.000838551 0)
(0.0121708 0.000931218 0)
(0.0410478 -0.0564389 0)
(0.0711676 -0.0261823 0)
(0.101908 -0.0198465 2.35078e-22)
(0.12775 -0.0162286 0)
(0.149856 -0.0138974 0)
(0.169076 -0.0120878 -1.14072e-22)
(0.185861 -0.0105104 9.14656e-24)
(0.200391 -0.00902503 0)
(0.212832 -0.00764182 4.14002e-25)
(0.223326 -0.00637742 1.7357e-22)
(0.232008 -0.005177 5.20704e-25)
(0.238931 -0.00402187 6.07581e-22)
(0.24415 -0.00291798 -3.67399e-22)
(0.247822 -0.00192163 0)
(0.250136 -0.00104612 0)
(0.251248 -0.000252869 -5.35289e-22)
(0.251327 0.000444001 0)
(0.250476 0.00108744 0)
(0.24872 0.00166082 -9.01172e-25)
(0.246139 0.00212251 0)
(0.242879 0.0024541 0)
(0.239082 0.0027646 0)
(0.23483 0.00307001 7.47639e-22)
(0.230132 0.00338368 -7.53801e-22)
(0.224997 0.00368389 7.55414e-22)
(0.219474 0.00390977 7.57051e-22)
(0.21367 0.00404103 0)
(0.207722 0.00408109 0)
(0.201724 0.00412125 7.49319e-22)
(0.195694 0.00418401 6.20316e-25)
(0.189614 0.00423344 0)
(0.183488 0.00422626 -6.16693e-25)
(0.177412 0.00411238 -6.81762e-22)
(0.171482 0.00395543 0)
(0.165707 0.00384058 0)
(0.160011 0.00379099 -6.23018e-22)
(0.154298 0.00379688 0)
(0.148528 0.00383085 0)
(0.142682 0.00388492 0)
(0.136712 0.00396641 -2.67414e-22)
(0.13059 0.00404622 -2.52793e-22)
(0.124366 0.00408289 4.72738e-22)
(0.118105 0.00409885 -2.2361e-22)
(0.111821 0.00412977 0)
(0.105485 0.00415916 2.02791e-22)
(0.0991062 0.00415488 0)
(0.0927379 0.00412495 -1.80576e-22)
(0.086406 0.00409993 8.42258e-23)
(0.0800992 0.00409388 7.741e-23)
(0.0738002 0.00409321 -7.06911e-23)
(0.0675156 0.00407397 6.48175e-23)
(0.0612597 0.00403935 5.91713e-23)
(0.0550412 0.00401147 -1.08516e-22)
(0.0488551 0.00399422 0)
(0.0426909 0.0039808 0)
(0.03654 0.00397286 0)
(0.0303909 0.0039756 0)
(0.0242287 0.00399932 5.74915e-24)
(0.0180482 0.00407908 -6.04093e-24)
(0.0122601 0.00434864 0)
(0.0497796 -0.0789358 0)
(0.0723114 -0.0451263 1.71253e-22)
(0.100028 -0.0356766 0)
(0.124981 -0.0295868 2.57883e-22)
(0.146941 -0.025366 2.34826e-22)
(0.166195 -0.0220609 1.64141e-22)
(0.182992 -0.0192024 0)
(0.197539 -0.016553 -4.06676e-23)
(0.209991 -0.014072 0)
(0.220498 -0.0117793 0)
(0.229133 -0.00961681 0)
(0.23599 -0.00752325 0)
(0.241176 -0.00554343 0)
(0.244841 -0.003752 0)
(0.247192 -0.00218335 0)
(0.24842 -0.000807331 0)
(0.248676 0.000407569 0)
(0.248048 0.00153635 -6.05714e-22)
(0.246576 0.00258618 0)
(0.244262 0.00349474 0)
(0.241169 0.00420586 0)
(0.237416 0.00479575 0)
(0.233149 0.00533056 0)
(0.228507 0.00585492 0)
(0.223575 0.00634841 0)
(0.21838 0.00675059 0)
(0.212939 0.00702851 0)
(0.207256 0.00716284 0)
(0.201414 0.00722672 7.48256e-22)
(0.19557 0.00727804 0)
(0.189825 0.00731783 -7.23685e-22)
(0.184178 0.00730665 0)
(0.178569 0.00718254 0)
(0.172923 0.00699749 0)
(0.167219 0.00685737 0)
(0.161451 0.00680371 0)
(0.155623 0.00682499 -3.02346e-22)
(0.149733 0.00688827 0)
(0.143767 0.00698942 0)
(0.137696 0.00713602 0)
(0.131521 0.00727884 2.53921e-22)
(0.125272 0.00735688 -2.3955e-22)
(0.118978 0.00739238 2.2607e-22)
(0.112653 0.00743908 0)
(0.106292 0.00749126 2.04078e-22)
(0.0998951 0.0075034 0)
(0.093495 0.00746639 0)
(0.0871202 0.00742397 0)
(0.0807726 0.00740666 0)
(0.0744347 0.00740149 -7.17417e-23)
(0.0681071 0.00737419 0)
(0.0618026 0.00732481 -1.18718e-22)
(0.0555266 0.0072825 0)
(0.0492755 0.00725164 0)
(0.0430476 0.00722782 -2.06727e-23)
(0.0368369 0.00721245 1.74213e-23)
(0.0306317 0.00721645 -2.8903e-23)
(0.024421 0.00725406 5.77339e-24)
(0.0182066 0.00735543 0)
(0.0124149 0.00762933 6.92931e-25)
(0.0579281 -0.0981225 0)
(0.0748373 -0.0632836 0)
(0.0999992 -0.051511 0)
(0.123683 -0.0434117 0)
(0.145107 -0.0374081 -2.79967e-22)
(0.164093 -0.0325653 0)
(0.180732 -0.0283443 0)
(0.195168 -0.024488 9.62782e-25)
(0.207517 -0.0208601 0)
(0.21794 -0.0174951 -1.53891e-24)
(0.2265 -0.0143107 -3.6619e-22)
(0.233304 -0.0112766 0)
(0.238498 -0.0084087 0)
(0.242243 -0.00578853 1.02246e-24)
(0.244712 -0.00352061 -1.07604e-24)
(0.246052 -0.00153539 1.07014e-24)
(0.246381 0.000217997 -5.55407e-22)
(0.245793 0.0018177 0)
(0.244383 0.00333535 6.37516e-22)
(0.242233 0.00469842 0)
(0.239337 0.00585648 9.88462e-25)
(0.235731 0.00680548 -1.00202e-24)
(0.23157 0.00759238 9.75119e-25)
(0.227046 0.00828498 7.46373e-22)
(0.222321 0.00890227 -7.55642e-22)
(0.217435 0.00943545 0)
(0.212333 0.00987173 0)
(0.206959 0.0101617 6.87235e-25)
(0.201374 0.0102963 -6.52567e-25)
(0.195784 0.0103072 0)
(0.190359 0.0102599 7.24723e-22)
(0.185113 0.0102 0)
(0.179879 0.0101124 0)
(0.174454 0.0100112 0)
(0.168782 0.00994475 -1.29313e-21)
(0.162929 0.00993408 0)
(0.156979 0.00998143 0)
(0.15096 0.0100754 -2.91772e-22)
(0.144853 0.0102193 5.61002e-22)
(0.138666 0.0104117 -2.68271e-22)
(0.132438 0.0105948 -5.12134e-22)
(0.126171 0.0107067 0)
(0.119837 0.0107693 -4.58842e-22)
(0.113449 0.0108363 0)
(0.107047 0.0109055 -2.05634e-22)
(0.100639 0.010927 1.94682e-22)
(0.0942229 0.0108882 0)
(0.0878101 0.0108385 8.44294e-23)
(0.0814167 0.0108103 0)
(0.0750382 0.0107934 -7.27566e-23)
(0.0686697 0.0107606 -6.56737e-23)
(0.0623198 0.010708 6.00155e-23)
(0.0559894 0.0106529 -5.44374e-23)
(0.0496789 0.0106045 -4.81798e-23)
(0.0433935 0.0105686 0)
(0.037129 0.0105449 1.76358e-23)
(0.0308754 0.0105471 1.46299e-23)
(0.0246209 0.0105939 -5.85921e-24)
(0.0183799 0.0106994 0)
(0.0126017 0.0109172 0)
(0.0651647 -0.115014 6.52649e-23)
(0.0783828 -0.0801864 -2.08117e-22)
(0.101124 -0.0670678 0)
(0.12341 -0.0573435 3.47575e-22)
(0.143945 -0.049726 -3.44595e-22)
(0.162406 -0.0433887 0)
(0.17872 -0.0378315 0)
(0.19291 -0.0327193 1.07096e-24)
(0.205107 -0.0279408 -1.41948e-24)
(0.215448 -0.0234931 1.65226e-22)
(0.224009 -0.019282 3.13643e-22)
(0.230877 -0.0152854 -2.14643e-24)
(0.236184 -0.0115439 -3.022e-22)
(0.240096 -0.00811732 0)
(0.242738 -0.00508064 -1.1784e-24)
(0.244159 -0.00242213 -9.76914e-22)
(0.244455 -7.19364e-05 0)
(0.24377 0.00204422 -5.92336e-22)
(0.242259 0.00398726 -6.29219e-22)
(0.240095 0.00576423 0)
(0.237343 0.00733933 6.93207e-22)
(0.23401 0.00866813 9.26019e-25)
(0.230169 0.00974444 0)
(0.225936 0.0106097 0)
(0.221459 0.0113388 7.58732e-22)
(0.216788 0.0119863 -8.0782e-25)
(0.211911 0.0125616 0)
(0.206837 0.0130062 0)
(0.201628 0.0132303 -6.10382e-25)
(0.196415 0.0132165 0)
(0.191301 0.0130794 -1.4541e-21)
(0.186287 0.012968 4.96619e-25)
(0.181214 0.0129489 6.9432e-22)
(0.175887 0.0130009 -1.35491e-21)
(0.170245 0.0130728 1.30429e-21)
(0.164348 0.0131505 1.25745e-21)
(0.158307 0.0132446 0)
(0.152178 0.0133771 9.11705e-26)
(0.145959 0.0135617 0)
(0.139683 0.0137772 2.69881e-22)
(0.133409 0.0139718 2.58121e-22)
(0.127115 0.0141143 2.47128e-22)
(0.120731 0.0142216 2.33069e-22)
(0.114272 0.0143149 -2.19602e-22)
(0.10782 0.0143863 2.07448e-22)
(0.101398 0.0144037 1.9579e-22)
(0.0949694 0.0143698 -3.67724e-22)
(0.088515 0.0143249 8.94241e-26)
(0.0820624 0.0142894 7.92214e-23)
(0.0756358 0.0142582 -7.31742e-23)
(0.0692305 0.0142193 6.67948e-23)
(0.0628366 0.0141665 0)
(0.0564508 0.0141008 5.4317e-23)
(0.0500858 0.014036 -4.79201e-23)
(0.0437488 0.0139854 0)
(0.0374323 0.0139529 1.79078e-23)
(0.0311303 0.0139521 1.48808e-23)
(0.024832 0.0139988 2.03222e-26)
(0.0185594 0.014097 0)
(0.0127697 0.0142607 -1.55016e-24)
(0.0723796 -0.130355 6.94603e-23)
(0.0826041 -0.0959539 0)
(0.103199 -0.0821528 -1.44012e-24)
(0.123928 -0.0711882 0)
(0.143445 -0.0621562 0)
(0.161219 -0.0544284 3.77995e-22)
(0.177068 -0.0475582 0)
(0.190955 -0.0412196 -1.80451e-22)
(0.202985 -0.0353173 4.83447e-23)
(0.213263 -0.0297992 2.00072e-22)
(0.221853 -0.024576 -2.52573e-22)
(0.228823 -0.0196232 -4.04911e-22)
(0.234281 -0.0149798 1.10085e-21)
(0.238338 -0.0107283 3.48769e-22)
(0.241079 -0.00690182 0)
(0.242552 -0.00348097 9.59714e-22)
(0.242833 -0.000446915 0)
(0.242064 0.00225118 0)
(0.240438 0.00464661 1.26041e-21)
(0.238185 0.00677196 0)
(0.235518 0.00865294 0)
(0.232482 0.0102989 -7.13993e-22)
(0.229064 0.0116621 -1.46839e-21)
(0.225248 0.0127559 0)
(0.221052 0.0136672 -7.65355e-22)
(0.216516 0.0144622 0)
(0.211766 0.0151434 7.6973e-22)
(0.206955 0.0156693 0)
(0.202173 0.0159464 1.50806e-21)
(0.197415 0.015955 0)
(0.192591 0.0158223 -7.30264e-22)
(0.187639 0.0157249 7.16141e-22)
(0.182508 0.0157858 0)
(0.17714 0.0159847 -6.83309e-22)
(0.171511 0.0162133 6.58813e-22)
(0.165628 0.0164167 -6.34536e-22)
(0.159542 0.016588 1.61116e-25)
(0.153338 0.0167675 2.93938e-22)
(0.147064 0.0169862 -2.84066e-22)
(0.14075 0.0172132 -3.11032e-26)
(0.134429 0.0174134 0)
(0.128073 0.0175913 -2.4904e-22)
(0.121629 0.01775 -2.3691e-22)
(0.115121 0.0178661 0)
(0.108628 0.0179252 -7.7948e-26)
(0.102176 0.0179336 -1.9633e-22)
(0.0957173 0.0179141 1.85657e-22)
(0.089216 0.0178826 1.72904e-22)
(0.0827029 0.0178416 -1.59304e-22)
(0.0762225 0.0177954 -7.34176e-23)
(0.0697767 0.0177471 6.78485e-23)
(0.0633402 0.0176906 6.18056e-23)
(0.0569054 0.017618 -5.42612e-23)
(0.0504929 0.0175407 0)
(0.0441085 0.0174737 4.29269e-23)
(0.0377406 0.017433 0)
(0.0313877 0.0174289 1.50823e-23)
(0.0250445 0.0174648 0)
(0.0187329 0.0175483 0)
(0.0129138 0.0176772 0)
(0.0793776 -0.144979 -7.97605e-23)
(0.0876166 -0.110652 0)
(0.106238 -0.0966369 0)
(0.125417 -0.0847927 -4.93862e-22)
(0.143804 -0.0746045 0)
(0.160823 -0.065614 0)
(0.176151 -0.0574899 0)
(0.189714 -0.0499821 0)
(0.201526 -0.0429676 0)
(0.211669 -0.0363964 0)
(0.220162 -0.0301763 0)
(0.22709 -0.0242689 -3.45591e-22)
(0.232554 -0.0187167 0)
(0.236613 -0.013591 0)
(0.239371 -0.00893809 8.03988e-22)
(0.240885 -0.00473173 0)
(0.241248 -0.000955046 -1.34702e-24)
(0.240587 0.00236255 0)
(0.239066 0.00525105 1.24997e-24)
(0.236913 0.00771965 0)
(0.234368 0.00984424 0)
(0.231539 0.0117171 -7.15975e-22)
(0.228397 0.0133379 -7.35079e-22)
(0.224869 0.0147158 7.58303e-22)
(0.220892 0.0158816 -7.67982e-22)
(0.216529 0.016876 0)
(0.211997 0.0176455 -7.38741e-25)
(0.207498 0.0181651 -7.37545e-25)
(0.203102 0.0184403 0)
(0.198703 0.018517 -7.45534e-22)
(0.194075 0.018514 0)
(0.189103 0.0185466 -7.21446e-22)
(0.183821 0.018718 -3.9977e-25)
(0.178311 0.0190234 -6.8982e-22)
(0.17262 0.0193723 0)
(0.166733 0.0197116 6.42724e-22)
(0.160646 0.0199887 -6.16032e-22)
(0.154431 0.0202198 -5.92635e-22)
(0.148162 0.020464 -2.85708e-22)
(0.141844 0.020708 -2.74556e-22)
(0.135467 0.0209322 0)
(0.129025 0.0211539 2.50619e-22)
(0.122525 0.0213541 2.40601e-22)
(0.115998 0.0214796 -8.69698e-26)
(0.109476 0.0215238 0)
(0.102969 0.0215321 1.97128e-22)
(0.096451 0.0215345 -1.86595e-22)
(0.0899006 0.0215164 1.75152e-22)
(0.0833393 0.0214698 0)
(0.0768039 0.0214099 7.4124e-23)
(0.0703059 0.0213489 0)
(0.0638246 0.0212831 0)
(0.0573513 0.0212039 0)
(0.0508982 0.021118 0)
(0.0444657 0.0210375 0)
(0.0380466 0.0209884 0)
(0.0316412 0.020978 0)
(0.0252526 0.0209981 -1.22619e-23)
(0.0189022 0.0210634 -4.62615e-24)
(0.0130464 0.0211704 1.57801e-24)
(0.0859795 -0.158981 0)
(0.092632 -0.124498 3.01606e-24)
(0.10968 -0.11048 -5.02679e-22)
(0.127392 -0.0980805 -5.90374e-22)
(0.14469 -0.0869804 0)
(0.160935 -0.0769034 0)
(0.175764 -0.0676263 0)
(0.18897 -0.0589697 -3.81478e-22)
(0.200532 -0.0508561 0)
(0.210453 -0.0432298 0)
(0.218731 -0.0359918 0)
(0.225472 -0.0291401 -2.89917e-22)
(0.230775 -0.02267 0)
(0.234778 -0.016669 0)
(0.237568 -0.0111841 -7.74363e-22)
(0.239184 -0.00619303 0)
(0.239752 -0.0017233 0)
(0.239399 0.0022192 0)
(0.238258 0.00563779 -6.1854e-22)
(0.236463 0.00850844 -6.56621e-22)
(0.234123 0.0109309 0)
(0.231362 0.0130415 -7.15715e-22)
(0.228241 0.0149074 -7.42738e-22)
(0.224741 0.0165633 -7.60875e-22)
(0.220894 0.0179784 -7.69162e-22)
(0.21682 0.0191449 0)
(0.212684 0.0199824 0)
(0.208576 0.0204973 0)
(0.20446 0.0207961 0)
(0.200189 0.0209911 0)
(0.195599 0.0211894 0)
(0.190589 0.0214346 7.2945e-22)
(0.185177 0.0217663 0)
(0.179488 0.0221696 0)
(0.173641 0.0225996 -6.77487e-22)
(0.167681 0.0230349 -6.51552e-22)
(0.161621 0.0234054 6.08408e-26)
(0.155473 0.0236942 0)
(0.149245 0.0239746 0)
(0.142923 0.0242621 0)
(0.136489 0.0245366 0)
(0.129976 0.0248009 0)
(0.123437 0.0250215 0)
(0.116897 0.0251494 0)
(0.11034 0.0251936 0)
(0.103764 0.025216 0)
(0.0971702 0.0252371 0)
(0.0905683 0.0252258 0)
(0.0839679 0.0251743 0)
(0.0773799 0.0251027 1.51214e-22)
(0.0708204 0.0250267 0)
(0.0642931 0.0249462 0)
(0.0577899 0.0248584 0)
(0.0512994 0.0247655 0)
(0.0448161 0.0246786 4.35558e-23)
(0.0383459 0.024621 0)
(0.0318888 0.0245978 0)
(0.0254551 0.0246033 0)
(0.0190644 0.0246495 0)
(0.0131626 0.0247356 7.81142e-25)
(0.0917658 -0.171998 1.06029e-22)
(0.097075 -0.137646 0)
(0.112762 -0.123729 -1.18737e-21)
(0.129229 -0.111016 0)
(0.145484 -0.099239 0)
(0.160963 -0.0882549 0)
(0.17526 -0.0779427 6.21268e-22)
(0.188102 -0.0681912 0)
(0.199413 -0.058982 -6.5965e-22)
(0.20913 -0.050278 0)
(0.217246 -0.0420006 -4.38086e-23)
(0.223842 -0.0341749 2.32736e-22)
(0.229052 -0.0268179 0)
(0.233045 -0.0199786 0)
(0.235941 -0.0136916 1.48859e-21)
(0.2378 -0.0079651 -9.0134e-22)
(0.238697 -0.00282548 2.06638e-21)
(0.238753 0.0017233 -1.14267e-21)
(0.238044 0.00568334 -6.14995e-22)
(0.236622 0.00906408 0)
(0.234509 0.0119004 6.95111e-22)
(0.231778 0.0143432 -7.20017e-22)
(0.228569 0.016494 0)
(0.225022 0.0183746 7.60988e-22)
(0.221306 0.0199525 0)
(0.217576 0.0212029 -7.8154e-22)
(0.213883 0.0220929 7.81253e-22)
(0.210132 0.0226852 0)
(0.206172 0.0231076 0)
(0.201871 0.0234784 0)
(0.197172 0.0238973 7.49674e-22)
(0.192056 0.0243805 7.38191e-22)
(0.186536 0.0249141 -1.44908e-21)
(0.180693 0.0254525 0)
(0.174662 0.0259519 6.85714e-22)
(0.168585 0.0264161 -1.32176e-21)
(0.162533 0.0268225 -6.32748e-22)
(0.156451 0.0271679 1.21347e-21)
(0.150264 0.027515 -5.79571e-22)
(0.143935 0.0278756 -5.57219e-22)
(0.137477 0.0282116 2.68176e-22)
(0.130945 0.0285086 -1.22723e-25)
(0.124387 0.028744 -2.45699e-22)
(0.117809 0.0288863 -2.32449e-22)
(0.111194 0.0289507 -2.17316e-22)
(0.104545 0.028991 2.02653e-22)
(0.0978838 0.0290193 0)
(0.0912305 0.0290099 1.76526e-22)
(0.084585 0.0289571 -2.31554e-25)
(0.0779446 0.0288762 0)
(0.0713286 0.0287823 0)
(0.0647554 0.0286828 0)
(0.058219 0.0285829 0)
(0.0516894 0.0284838 -1.01221e-22)
(0.0451564 0.0283969 0)
(0.038635 0.0283304 0)
(0.0321303 0.0282896 -3.16247e-23)
(0.0256533 0.028282 -1.22262e-23)
(0.019221 0.0283106 -4.56062e-24)
(0.0132801 0.0283772 -1.55273e-24)
(0.0972097 -0.183849 0)
(0.100955 -0.150156 0)
(0.115536 -0.136469 0)
(0.13089 -0.123605 0)
(0.146183 -0.111349 0)
(0.160905 -0.0996221 0)
(0.174612 -0.0883846 0)
(0.187082 -0.0776426 0)
(0.198149 -0.0673786 0)
(0.207726 -0.0576006 0)
(0.215803 -0.0482882 0)
(0.222442 -0.0394748 0)
(0.227752 -0.0312172 0)
(0.231877 -0.0235752 0)
(0.234961 -0.0165367 0)
(0.237103 -0.0101014 0)
(0.238359 -0.00429674 0)
(0.238763 0.000879048 0)
(0.238331 0.00542752 0)
(0.237116 0.00937188 0)
(0.235158 0.0127362 0)
(0.232513 0.0156099 0)
(0.229351 0.0180678 0)
(0.225935 0.0201303 0)
(0.222473 0.0217892 0)
(0.219052 0.0230633 0)
(0.215635 0.024023 7.86125e-22)
(0.212057 0.0247723 0)
(0.208124 0.0254196 0)
(0.203717 0.0260451 0)
(0.198828 0.0267042 0)
(0.193512 0.0274142 0)
(0.187834 0.0281502 0)
(0.181879 0.0288474 0)
(0.175743 0.0294301 0)
(0.169569 0.0298864 0)
(0.163457 0.030274 0)
(0.157356 0.0306556 0)
(0.151171 0.0310798 0)
(0.144864 0.0315263 0)
(0.138443 0.0319279 0)
(0.131935 0.0322615 0)
(0.125356 0.0325277 0)
(0.118714 0.0327073 0)
(0.112024 0.0328032 0)
(0.105311 0.0328529 0)
(0.098594 0.0328779 0)
(0.0918888 0.0328718 0)
(0.0851891 0.0328212 -1.68538e-22)
(0.0784972 0.0327303 -1.56713e-22)
(0.0718359 0.0326142 0)
(0.0652186 0.0324934 0)
(0.0586362 0.0323809 0)
(0.052062 0.0322767 0)
(0.0454839 0.0321897 -4.52649e-23)
(0.0389134 0.0321148 1.93181e-23)
(0.0323651 0.0320562 -1.60257e-23)
(0.0258466 0.0320341 0)
(0.0193673 0.0320454 -4.38999e-24)
(0.0133774 0.0320931 0)
(0.102499 -0.194935 -1.77235e-22)
(0.105002 -0.161961 0)
(0.118363 -0.148683 1.71631e-21)
(0.132671 -0.135837 -1.02129e-21)
(0.147107 -0.123277 0)
(0.161129 -0.11096 0)
(0.174328 -0.0989374 0)
(0.186426 -0.0872788 -7.77716e-22)
(0.197273 -0.0760445 -5.832e-22)
(0.206777 -0.0652545 0)
(0.2149 -0.0549412 1.45186e-22)
(0.221694 -0.0451662 0)
(0.227226 -0.0359956 0)
(0.231592 -0.0275074 5.06294e-22)
(0.234879 -0.0197164 6.89882e-22)
(0.237193 -0.01257 -8.44344e-22)
(0.238636 -0.00608449 3.73151e-24)
(0.239215 -0.000260285 0)
(0.238933 0.00493989 -1.24676e-21)
(0.237841 0.00948513 1.3353e-21)
(0.236007 0.013408 -2.87774e-24)
(0.233548 0.0167386 -1.48283e-21)
(0.23067 0.0194947 7.59176e-22)
(0.227612 0.021717 7.76024e-22)
(0.224504 0.0234598 0)
(0.221328 0.0248098 -7.9863e-25)
(0.217988 0.0258999 7.96198e-22)
(0.214345 0.0268542 0)
(0.210271 0.0277784 7.90972e-22)
(0.205665 0.0287146 7.83961e-22)
(0.200527 0.0296542 -7.70736e-22)
(0.194956 0.0305886 7.5777e-22)
(0.189087 0.0314896 0)
(0.183057 0.032313 0)
(0.176909 0.0329882 0)
(0.170673 0.033467 0)
(0.164428 0.033831 6.57026e-22)
(0.158202 0.034211 -6.27361e-22)
(0.151976 0.0346703 1.90329e-25)
(0.145721 0.0351796 -5.70449e-22)
(0.139384 0.0356548 -5.49336e-22)
(0.13291 0.0360554 0)
(0.126303 0.0363825 2.48975e-22)
(0.119601 0.0366167 0)
(0.112845 0.0367449 0)
(0.106072 0.0367959 0)
(0.0993011 0.0368165 0)
(0.09254 0.0368167 0)
(0.0857835 0.0367674 0)
(0.0790451 0.0366628 1.57891e-22)
(0.0723446 0.0365227 0)
(0.065681 0.0363806 6.51737e-23)
(0.0590415 0.0362574 5.82252e-23)
(0.052416 0.0361492 -5.2274e-23)
(0.045796 0.036056 -4.60125e-23)
(0.0391816 0.0359706 0)
(0.0325927 0.0358997 -1.62436e-23)
(0.0260325 0.0358603 -1.29017e-23)
(0.0195071 0.035854 0)
(0.0134806 0.0358915 -7.38241e-25)
(0.107548 -0.205479 2.04812e-22)
(0.108929 -0.173056 0)
(0.121144 -0.160302 0)
(0.134471 -0.147699 1.23582e-21)
(0.148143 -0.135029 0)
(0.161616 -0.122291 -1.26096e-21)
(0.174457 -0.109617 -1.13761e-21)
(0.186343 -0.097138 0)
(0.197098 -0.0850057 -1.46623e-21)
(0.206599 -0.0732644 4.94069e-22)
(0.214838 -0.0620002 -4.90142e-22)
(0.221824 -0.0512818 0)
(0.227586 -0.0411872 0)
(0.232186 -0.0318238 0)
(0.235652 -0.0231935 -6.53525e-22)
(0.238038 -0.0152858 4.23517e-24)
(0.239465 -0.00810693 0)
(0.240044 -0.00159875 0)
(0.239824 0.00424796 1.25338e-21)
(0.238854 0.00940586 0)
(0.237228 0.0138653 -1.44505e-21)
(0.235105 0.0176115 0)
(0.232685 0.0206472 7.7105e-22)
(0.230087 0.0230498 7.89855e-22)
(0.227316 0.0249525 7.95811e-22)
(0.224293 0.0264972 8.01528e-22)
(0.220891 0.0278192 0)
(0.217001 0.0290419 0)
(0.212587 0.0302777 -8.01182e-22)
(0.207638 0.0315386 0)
(0.202199 0.032768 7.83081e-22)
(0.196399 0.0339144 7.67709e-22)
(0.190389 0.0349317 0)
(0.184297 0.0358262 7.31827e-22)
(0.178135 0.0365915 7.09076e-22)
(0.171846 0.0371562 -1.27789e-26)
(0.16545 0.0375401 6.66426e-22)
(0.15906 0.0378859 6.36118e-22)
(0.152763 0.0383029 0)
(0.146544 0.0388238 5.80998e-22)
(0.140275 0.0393826 -5.55878e-22)
(0.133828 0.039892 5.30797e-22)
(0.1272 0.0403091 -2.51156e-22)
(0.12046 0.0406048 2.38222e-22)
(0.113662 0.0407669 -2.2554e-22)
(0.106832 0.0408239 -2.11465e-22)
(0.0999989 0.0408434 0)
(0.0931772 0.0408446 -1.8384e-22)
(0.0863715 0.0407919 1.71065e-22)
(0.079594 0.0406719 1.58268e-22)
(0.0728509 0.04051 0)
(0.0661349 0.0403497 0)
(0.0594344 0.0402153 0)
(0.052754 0.0401019 0)
(0.0460913 0.0399968 0)
(0.0394394 0.0398989 -1.94773e-23)
(0.0328119 0.039818 -1.65889e-23)
(0.0262075 0.0397607 0)
(0.0196363 0.0397387 6.18416e-26)
(0.0135641 0.0397653 -7.5209e-25)
(0.11178 -0.215148 0)