/*--------------------------------*- C++ -*----------------------------------*\
| =========                 |                                                 |
| \\      /  F ield         | OpenFOAM: The Open Source CFD Toolbox           |
|  \\    /   O peration     | Version:  v1912                                 |
|   \\  /    A nd           | Website:  www.openfoam.com                      |
|    \\/     M anipulation  |                                                 |
\*---------------------------------------------------------------------------*/
FoamFile
{
    version     2.0;
    format      ascii;
    class       surfaceScalarField;
    location    "48";
    object      alphaPhi0.water;
}
// * * * * * * * * * * * * * * * * * * * * * * * * * * * * * * * * * * * * * //

dimensions      [0 3 -1 0 0 0 0];
oriented        oriented;


internalField   nonuniform List<scalar> 
40282
(
0.00281583
0.00270722
1.92039
-1.92714
1.92157
0.00557455
-1.91255
1.90037
0.0121829
-1.8852
1.86708
0.0181251
-1.84608
1.8222
0.0238779
-1.79556
1.76615
0.0294082
-1.73409
1.69942
0.0346785
-1.66223
1.62254
0.0396819
-1.58048
1.53602
0.0444621
-1.48928
1.44027
0.049003
-1.38915
1.33592
0.0532227
-1.28073
1.22359
0.057135
-1.16462
1.10381
0.0608071
-1.04131
0.97718
0.0641302
-0.911469
0.844276
0.0671931
-0.775609
0.705562
0.0700471
-0.633823
0.560623
0.0732007
-0.485241
0.40809
0.0771508
-0.32749
0.24479
0.0826998
-0.155919
0.0665784
0.0893406
-0.00419513
0.00559708
1.85551
-1.85119
1.84423
-0.0140963
0.0210514
-1.83456
1.82212
-0.0256306
0.0380658
-1.80691
1.78894
-0.0369429
0.0549102
-1.76824
1.74484
-0.0480015
0.0713992
-1.71879
1.69011
-0.0587872
0.0874631
-1.65886
1.62509
-0.0692483
0.103019
-1.58885
1.55019
-0.0793305
0.117988
-1.50916
1.46581
-0.0889626
0.132309
-1.4202
1.37238
-0.0981096
0.145925
-1.32242
1.27037
-0.106748
0.1588
-1.21628
1.1602
-0.114821
0.170893
-1.10221
1.04235
-0.122282
0.182139
-0.980686
0.917292
-0.129066
0.19246
-0.85225
0.785642
-0.13516
0.201767
-0.717565
0.648135
-0.140535
0.209965
-0.577504
0.505849
-0.145402
0.217057
-0.433447
0.360582
-0.150479
0.223345
-0.287584
0.214902
-0.15715
0.229832
-0.142678
0.0775847
-0.171248
0.236341
-0.00703144
0.00835586
1.78906
-1.78484
1.77805
-0.0282115
0.0349998
-1.76861
1.75652
-0.0507303
0.0628208
-1.74179
1.72443
-0.0729738
0.0903326
-1.70446
1.68191
-0.0948036
0.117356
-1.6568
1.62917
-0.116107
0.143736
-1.59906
1.56649
-0.136761
0.16933
-1.5315
1.49415
-0.156636
0.193984
-1.4545
1.41259
-0.175646
0.21755
-1.36851
1.3223
-0.193718
0.239923
-1.27405
1.22381
-0.210788
0.261021
-1.17167
1.1177
-0.226829
0.2808
-1.06197
1.00453
-0.241814
0.299255
-0.945436
0.884745
-0.255665
0.316355
-0.822503
0.758757
-0.268223
0.33197
-0.69356
0.626974
-0.279223
0.34581
-0.559068
0.489933
-0.288329
0.357464
-0.419708
0.348603
-0.295483
0.366588
-0.276922
0.205159
-0.301541
0.373305
-0.133858
0.0648293
-0.308712
0.377741
-0.00964575
0.0109243
1.72498
-1.72111
1.71468
-0.0417358
0.0481608
-1.7057
1.69416
-0.0748687
0.0864041
-1.68009
1.6635
-0.107629
0.12422
-1.6444
1.62283
-0.13984
0.161417
-1.59879
1.57231
-0.171315
0.197791
-1.54343
1.51216
-0.20187
0.233133
-1.47856
1.44265
-0.231323
0.267231
-1.40448
1.3641
-0.259497
0.299879
-1.32156
1.27691
-0.286232
0.330876
-1.23023
1.1816
-0.311401
0.360039
-1.13108
1.07877
-0.334921
0.387231
-1.02476
0.969142
-0.356776
0.412392
-0.912012
0.853453
-0.376981
0.43554
-0.793539
0.73233
-0.395478
0.456687
-0.669875
0.606215
-0.412002
0.475662
-0.541384
0.475417
-0.425953
0.491921
-0.408351
0.340255
-0.43649
0.504585
-0.271276
0.201727
-0.443363
0.512913
-0.132037
0.0636124
-0.447643
0.516067
-0.0121454
0.0133524
1.6632
-1.65955
1.65345
-0.0545388
0.0606314
-1.64493
1.63399
-0.0978559
0.108795
-1.62064
1.60489
-0.140699
0.15645
-1.58675
1.56624
-0.18286
0.203372
-1.54337
1.51817
-0.22412
0.249325
-1.49065
1.46084
-0.264244
0.294054
-1.42877
1.39446
-0.302994
0.337295
-1.35797
1.31932
-0.340136
0.378786
-1.27856
1.23573
-0.375433
0.41826
-1.19089
1.1441
-0.408652
0.455441
-1.09543
1.04495
-0.439598
0.49008
-0.992741
0.938902
-0.468146
0.521985
-0.883533
0.82674
-0.494273
0.551066
-0.768628
0.709296
-0.518022
0.577354
-0.648828
0.58729
-0.539322
0.600859
-0.524729
0.461173
-0.55768
0.621236
-0.396638
0.331135
-0.571991
0.637494
-0.264693
0.197432
-0.580963
0.648224
-0.129455
0.0623792
-0.58429
0.651366
-0.0144996
0.0156274
1.60375
-1.60015
1.59442
-0.0666534
0.0723768
-1.58642
1.57613
-0.119611
0.129895
-1.56358
1.54875
-0.172033
0.186861
-1.53166
1.51231
-0.223682
0.243028
-1.49072
1.4669
-0.274307
0.298131
-1.44086
1.41261
-0.323633
0.351879
-1.38218
1.34959
-0.371371
0.403958
-1.31487
1.27805
-0.417232
0.454056
-1.23916
1.19823
-0.460917
0.501841
-1.15532
1.11047
-0.502112
0.546962
-1.06374
1.01518
-0.540517
0.589071
-0.964879
0.912901
-0.575873
0.627851
-0.85934
0.804299
-0.608014
0.663055
-0.747886
0.690217
-0.636918
0.694588
-0.631401
0.571538
-0.662632
0.722494
-0.510708
0.448965
-0.684906
0.746649
-0.386337
0.322824
-0.702702
0.766215
-0.258397
0.193042
-0.714137
0.779493
-0.126591
0.0611921
-0.71793
0.783329
-0.0166924
0.0177312
1.54611
-1.54308
1.53777
-0.078003
0.0833161
-1.53033
1.52078
-0.140009
0.149567
-1.50909
1.49529
-0.201456
0.215263
-1.47936
1.4613
-0.262093
0.280152
-1.44111
1.4188
-0.321644
0.343954
-1.39437
1.36782
-0.3798
0.406346
-1.33917
1.30842
-0.43623
0.466976
-1.2756
1.24071
-0.490592
0.52548
-1.20378
1.16484
-0.542524
0.581463
-1.12393
1.08106
-0.591637
0.634498
-1.0363
0.989696
-0.637536
0.684145
-0.941297
0.891174
-0.679845
0.729968
-0.839402
0.786072
-0.718237
0.771567
-0.731285
0.675155
-0.752531
0.808661
-0.617803
0.55935
-0.782731
0.841184
-0.499909
0.439573
-0.808769
0.869105
-0.378407
0.316444
-0.829826
0.891789
-0.253665
0.190002
-0.843804
0.907467
-0.12492
0.0616287
-0.848734
0.912025
-0.0187041
0.0196434
1.4909
-1.48813
1.48328
-0.0884996
0.093354
-1.47648
1.46774
-0.158897
0.167643
-1.45703
1.44437
-0.228758
0.241427
-1.42972
1.41309
-0.297835
0.314467
-1.39446
1.37382
-0.365844
0.386481
-1.35117
1.32649
-0.432451
0.45713
-1.29978
1.27103
-0.497287
0.52603
-1.24026
1.20745
-0.559967
0.592772
-1.17263
1.13579
-0.620062
0.656899
-1.09696
1.05616
-0.677105
0.717902
-1.01343
0.968794
-0.730606
0.775241
-0.922304
0.874013
-0.780073
0.828365
-0.823984
0.772294
-0.825029
0.876719
-0.719033
0.664307
-0.865092
0.919817
-0.608239
0.55096
-0.900113
0.957392
-0.492604
0.433298
-0.930065
0.98937
-0.37315
0.312237
-0.954358
1.01527
-0.250578
0.188134
-0.970907
1.03335
-0.123787
0.0625404
-0.977477
1.03872
-0.0205126
0.0213403
1.43755
-1.4349
1.43056
-0.098043
0.102383
-1.42448
1.41665
-0.1761
0.183936
-1.40704
1.39565
-0.253698
0.265093
-1.38244
1.36741
-0.330615
0.34565
-1.35052
1.33174
-0.406574
0.425346
-1.31107
1.28846
-0.481235
0.50384
-1.26391
1.23738
-0.554202
0.58073
-1.20886
1.17834
-0.625047
0.655571
-1.1458
1.11123
-0.693281
0.727844
-1.07465
1.03605
-0.758351
0.796954
-0.995439
0.95285
-0.819666
0.862255
-0.908308
0.861853
-0.876611
0.923066
-0.813535
0.763417
-0.92855
0.978668
-0.711578
0.658113
-0.974892
1.02836
-0.60314
0.546795
-1.01525
1.0716
-0.489225
0.430583
-1.04949
1.10813
-0.371011
0.310628
-1.07715
1.13754
-0.249488
0.187613
-1.09625
1.15813
-0.123101
0.0633491
-1.10458
1.16434
-0.0220938
0.0227974
1.38626
-1.38395
1.38018
-0.106518
0.110285
-1.3749
1.36807
-0.191415
0.198239
-1.35969
1.34971
-0.275994
0.285968
-1.33812
1.32486
-0.36008
0.373335
-1.30991
1.29322
-0.443432
0.460122
-1.27475
1.25446
-0.525717
0.54601
-1.2323
1.20823
-0.606528
0.630594
-1.18222
1.15422
-0.685408
0.713407
-1.1242
1.09213
-0.761809
0.793878
-1.05799
1.02176
-0.83509
0.871322
-0.983428
0.942997
-0.904551
0.944981
-0.900477
0.855887
-0.969437
1.01403
-0.80926
0.760644
-1.02894
1.07756
-0.710102
0.657719
-1.08224
1.13463
-0.603606
0.547901
-1.12867
1.18437
-0.490769
0.432394
-1.16787
1.22624
-0.372972
0.312697
-1.19938
1.25966
-0.251711
0.190229
-1.22143
1.28291
-0.125099
0.0667885
-1.23153
1.28984
-0.0234227
0.02399
1.33665
-1.33471
1.33158
-0.113806
0.116938
-1.32718
1.32147
-0.20463
0.210332
-1.31444
1.30605
-0.295344
0.303742
-1.29624
1.28496
-0.385852
0.397123
-1.27218
1.25781
-0.475968
0.49033
-1.24181
1.22412
-0.565394
0.583093
-1.20465
1.18336
-0.653736
0.675031
-1.16017
1.13501
-0.740521
0.765675
-1.10783
1.07857
-0.825156
0.854418
-1.04717
1.01359
-0.906917
0.940498
-0.977789
0.939735
-0.984984
1.02304
-0.899412
0.856812
-1.05845
1.10105
-0.811944
0.764831
-1.12631
1.17343
-0.715518
0.664071
-1.18749
1.23894
-0.610588
0.555203
-1.24097
1.29636
-0.498091
0.439465
-1.28605
1.34467
-0.379575
0.318701
-1.32216
1.38303
-0.257088
0.195287
-1.34769
1.40949
-0.128261
0.0708991
-1.35976
1.41712
-0.0244758
0.0248961
1.2889
-1.28719
1.28475
-0.119784
0.122227
-1.2813
1.27683
-0.215528
0.220005
-1.27128
1.26461
-0.311434
0.318104
-1.25676
1.24768
-0.407516
0.4166
-1.23729
1.22551
-0.503676
0.515453
-1.21227
1.19747
-0.599681
0.614474
-1.18104
1.16287
-0.695175
0.713341
-1.14288
1.12096
-0.789701
0.811618
-1.09703
1.07098
-0.882644
0.908691
-1.04273
1.0122
-0.97321
1.00374
-0.979299
0.943968
-1.06047
1.0958
-0.906145
0.865787
-1.14334
1.1837
-0.822863
0.777362
-1.22061
1.26612
-0.729296
0.678705
-1.29091
1.3415
-0.625663
0.570293
-1.35279
1.40816
-0.512771
0.45334
-1.40507
1.4645
-0.392302
0.330041
-1.44686
1.50912
-0.266912
0.203982
-1.47667
1.5396
-0.133441
0.076787
-1.49123
1.54789
-0.0252334
0.0254989
1.24302
-1.24175
1.24004
-0.124346
0.126053
-1.23762
1.23446
-0.223907
0.227074
-1.2305
1.22569
-0.323965
0.328773
-1.21997
1.21326
-0.424666
0.431376
-1.20548
1.19654
-0.526036
0.534977
-1.18634
1.17477
-0.627941
0.639509
-1.16172
1.14708
-0.730105
0.744749
-1.13071
1.11249
-0.832122
0.850342
-1.09229
1.06996
-0.933397
0.955719
-1.04539
1.01844
-1.0331
1.06006
-0.98897
0.956872
-1.13022
1.16232
-0.92203
0.884344
-1.22352
1.26121
-0.843727
0.800114
-1.31155
1.35517
-0.753464
0.703766
-1.39261
1.4423
-0.651055
0.595422
-1.46474
1.52037
-0.537031
0.476143
-1.52611
1.587
-0.413124
0.348475
-1.57528
1.63993
-0.282693
0.217566
-1.6107
1.67583
-0.141536
0.0850116
-1.62857
1.68509
-0.0256819
0.0257888
1.19845
-1.19782
1.19687
-0.127404
0.128345
-1.19552
1.19373
-0.229607
0.231403
-1.19144
1.18859
-0.332682
0.335527
-1.18512
1.18095
-0.436937
0.441113
-1.17597
1.1701
-0.542549
0.548424
-1.16321
1.15519
-0.649525
0.657549
-1.1459
1.13519
-0.757714
0.768418
-1.12292
1.10893
-0.866819
0.880814
-1.09304
1.07507
-0.976324
0.994288
-1.05485
1.03219
-1.08543
1.10809
-1.00691
0.9788
-1.19309
1.2212
-0.947693
0.913406
-1.29798
1.33227
-0.875773
0.834643
-1.39843
1.43956
-0.789888
0.741414
-1.49238
1.54085
-0.689175
0.633193
-1.5773
1.63328
-0.573589
0.510621
-1.65048
1.71345
-0.444709
0.37652
-1.70958
1.77777
-0.306761
0.238188
-1.75277
1.82134
-0.154795
0.0982512
-1.77544
1.83198
-0.025816
0.0257656
1.15573
-1.15556
1.15539
-0.128909
0.129076
-1.15513
1.15473
-0.232522
0.232922
-1.15414
1.15331
-0.337401
0.338231
-1.15217
1.15062
-0.444034
0.445577
-1.14859
1.14595
-0.552775
0.55541
-1.1426
1.13839
-0.663808
0.668016
-1.13318
1.12682
-0.777159
0.783523
-1.11912
1.1099
-0.892706
0.901925
-1.09896
1.08607
-1.01009
1.02298
-1.07101
1.05353
-1.12866
1.14613
-1.03339
1.0103
-1.24742
1.27051
-0.984005
0.95422
-1.36507
1.39485
-0.920664
0.883065
-1.47983
1.51743
-0.841159
0.794709
-1.58935
1.6358
-0.743521
0.687476
-1.69048
1.74652
-0.62657
0.560976
-1.77938
1.84498
-0.491109
0.417769
-1.8523
1.92564
-0.341954
0.267393
-1.90644
1.98101
-0.173549
0.115024
-1.93609
1.99462
-0.0256409
0.0254398
1.11448
-1.11459
1.11518
-0.128855
0.128263
-1.11598
1.11695
-0.232625
0.231652
-1.11805
1.11923
-0.338049
0.336873
-1.12041
1.12153
-0.445793
0.444679
-1.12248
1.12317
-0.556405
0.555713
-1.12348
1.12328
-0.670278
0.670481
-1.12242
1.12073
-0.787662
0.789353
-1.11802
1.1141
-0.908678
0.912598
-1.10874
1.10169
-1.03323
1.04028
-1.09268
1.08142
-1.16091
1.17217
-1.06758
1.05083
-1.29098
1.30773
-1.0308
1.00709
-1.42233
1.44604
-0.979279
0.94693
-1.55333
1.58568
-0.909585
0.866788
-1.68153
1.72433
-0.818097
0.763125
-1.80334
1.85831
-0.701597
0.633451
-1.91367
1.98182
-0.558945
0.478926
-2.00667
2.08668
-0.394801
0.311169
-2.07749
2.16112
-0.204185
0.141701
-2.11852
2.18101
-0.0251723
0.0248323
1.07471
-1.07543
1.07674
-0.127289
0.125981
-1.07855
1.08083
-0.229985
0.227707
-1.08354
1.08664
-0.334681
0.331579
-1.09008
1.09378
-0.442211
0.438508
-1.09767
1.10167
-0.553316
0.549323
-1.10566
1.10952
-0.668614
0.664749
-1.11312
1.11631
-0.788608
0.785423
-1.1189
1.12069
-0.913725
0.911936
-1.12145
1.12093
-1.04422
1.04474
-1.11883
1.11485
-1.18007
1.18406
-1.10861
1.09971
-1.32099
1.32989
-1.0877
1.07209
-1.46636
1.48197
-1.0523
1.02772
-1.61505
1.63963
-0.997655
0.961347
-1.76509
1.80139
-0.917987
0.866739
-1.91293
1.96418
-0.806816
0.737597
-2.05259
2.12181
-0.658815
0.571012
-2.17558
2.26338
-0.475846
0.378508
-2.27301
2.37035
-0.254472
0.183802
-2.33339
2.40406
-0.024436
0.0239735
1.03623
-1.03734
1.0393
-0.124309
0.122353
-1.04202
1.04549
-0.224763
0.221295
-1.04968
1.05455
-0.327494
0.322618
-1.06007
1.0662
-0.433476
0.427352
-1.07286
1.08
-0.543625
0.536485
-1.08754
1.09536
-0.65877
0.650941
-1.10338
1.11145
-0.779679
0.77161
-1.11942
1.12712
-0.907112
0.899412
-1.13434
1.14085
-1.04174
1.03523
-1.14637
1.1506
-1.18404
1.17982
-1.15316
1.15364
-1.33436
1.33388
-1.15156
1.14637
-1.49287
1.49807
-1.13741
1.12392
-1.65949
1.67298
-1.10499
1.07959
-1.83349
1.8589
-1.04646
1.00418
-2.01271
2.05498
-0.951165
0.885746
-2.19172
2.25714
-0.806447
0.712606
-2.36028
2.45412
-0.60507
0.48939
-2.50371
2.61939
-0.342226
0.2644
-2.60539
2.68321
-0.023466
0.0229005
0.999207
-1.00085
1.00337
-0.120063
0.117545
-1.00688
1.01139
-0.217213
0.212707
-1.01687
1.02331
-0.316827
0.310388
-1.03068
1.03897
-0.419978
0.411693
-1.04813
1.05813
-0.527715
0.517716
-1.06891
1.08043
-0.641046
0.629534
-1.09259
1.10532
-0.760974
0.748245
-1.11851
1.13203
-0.888575
0.875057
-1.14572
1.15941
-1.02494
1.01125
-1.17287
1.18586
-1.1711
1.15811
-1.19806
1.20912
-1.32812
1.31705
-1.21862
1.22603
-1.49718
1.48977
-1.23074
1.23198
-1.67968
1.67844
-1.2288
1.22003
-1.8771
1.88587
-1.20416
1.1793
-2.09046
2.11532
-1.14307
1.0925
-2.31836
2.36892
-1.02408
0.934262
-2.55347
2.6433
-0.820531
0.685113
-2.77853
2.91394
-0.504295
0.412328
-2.97479
3.06676
-0.0223023
0.021655
0.963649
-0.965388
0.968368
-0.114732
0.111753
-0.97254
0.977903
-0.207658
0.202295
-0.984456
0.992197
-0.303134
0.295394
-1.00112
1.01123
-0.402282
0.392173
-1.02252
1.03497
-0.506228
0.493776
-1.04857
1.06331
-0.616102
0.601365
-1.07915
1.09606
-0.733078
0.716168
-1.11399
1.13288
-0.858479
0.839591
-1.15265
1.17319
-0.993749
0.973207
-1.19438
1.21607
-1.14041
1.11871
-1.23808
1.26017
-1.30017
1.27808
-1.28207
1.30343
-1.4752
1.45384
-1.32385
1.34277
-1.66845
1.64953
-1.3595
1.37312
-1.88404
1.87042
-1.3824
1.38564
-2.12769
2.12445
-1.38046
1.36351
-2.40614
2.42309
-1.33016
1.27405
-2.72511
2.78122
-1.18748
1.0602
-3.08545
3.21273
-0.872963
0.775642
-3.4886
3.58592
-0.00304085
-0.0620752
0.0724092
-0.106674
0.214462
-0.106184
-0.295272
0.362946
-0.0656536
-0.427202
0.491229
-0.0338269
-0.567759
0.62847
-0.0552805
-0.657627
0.653769
0.0038581
-0.630027
0.600549
0.0294779
-0.575598
0.56174
0.0138589
-0.561066
0.551091
-0.00713471
-0.558167
0.572158
-0.0142842
-0.603218
0.634219
-0.0219761
-0.66198
0.697062
-0.0350817
-0.715666
0.244456
0.0150291
-0.169653
0.178644
-0.00905749
-0.218955
0.325443
-0.106555
-0.520456
0.805372
-0.233385
-1.49617
2.04864
-0.314737
-2.46837
3.00772
-0.539351
-1.43964
-0.119259
-0.00129027
0.0209697
0.0651094
-0.000551531
-0.087149
0.0729747
-1.22186e-19
0
5.21323e-20
-2.99155e-21
5.97812e-21
-9.542e-21
0
2.31665e-21
-2.78201e-21
0
3.57977e-21
-6.31426e-21
0
5.98564e-21
-3.2983e-21
0
-0
0.0504216
0.00829967
-0.0634029
0.0486162
0.00307486
-0.00771145
-8.63036e-20
0.00771145
1.24433e-21
-1.79556e-21
0
1.18051e-21
-5.18966e-23
-2.13411e-21
4.11033e-22
-5.73709e-22
0
2.23362e-22
0
0
-0.0511942
0.398387
-0.0966953
-0.911662
1.54011
-0.211012
-2.33011
3.48171
-0.312404
-5.24604
6.6251
-0.655226
-5.51732
1.38502
-0.440301
0
-5.17211e-19
1.98483e-20
-1.57089e-18
6.00603e-16
8.45154e-16
-2.48481e-17
4.94291e-20
2.53773e-17
2.10464e-20
-1.55409e-20
-4.04055e-22
9.6392e-21
1.15897e-14
1.5217e-14
-4.68773e-14
5.53614e-14
1.83443e-16
-4.79874e-14
4.28029e-14
1.01894e-14
-3.72304e-06
5.73296e-06
-5.80915e-07
-1.75361e-06
1.75361e-06
-2.45677e-24
-3.61632
5.99335
-0.111076
-6.13544
6.24076
-0.105326
-6.31125
6.35557
-0.0443203
-6.38238
6.39797
-0.0155849
-6.40608
6.40935
-0.00326508
-6.4091
6.40647
0.00262913
-6.4022
6.39677
0.00542999
-6.39064
6.38411
0.00653638
-6.37727
6.37048
0.00678974
-6.36356
6.35686
0.00670175
-6.35007
6.34352
0.00654035
-6.33699
6.33073
0.00626198
-6.32455
6.31872
0.00583842
0.14594
-0.313326
0.133745
-0.156966
0.229948
0.178322
-0.26022
-0.312558
0.374799
0.128791
-0.19612
-0.427094
0.472632
0.100234
-0.145773
-0.505747
0.532945
0.0899931
-0.117191
-0.556504
0.563659
0.00202705
-0.0141648
-0.554401
0.543749
-0.0463843
0.052413
-0.53436
0.520015
-0.0247231
0.0325825
-0.519584
0.543676
0.0144185
-0.0229234
-0.560112
0.578138
0.0318396
-0.0500897
-0.59742
0.616846
0.0421522
-0.0617879
-0.635081
0.614754
0.0523548
-0.0683945
-0.606759
0.643153
-0.00542843
-0.027461
-0.717323
0.816776
0.0821925
-0.169698
-0.910385
1.03747
0.353831
-0.480911
-1.2107
1.43321
0.452072
-0.674644
-1.6785
2.00951
0.611224
-0.942233
-2.32242
1.63398
1.00674
-1.28025
-0.000539787
-1.05219e-18
0.000539787
3.42087e-19
-2.07748e-19
-6.43692e-20
1.24446e-20
0
-7.84688e-20
0.00337209
3.67619e-19
-0.00337209
-0.0999466
0.709556
0
-0.493154
-2.13041
5.41489
0.0531005
-0.612172
-6.43788
6.62799
0.0763378
-0.266441
-6.80055
6.95478
-0.0940588
-0.0428582
-7.0759
7.16059
-0.0712299
-0.0134613
-7.21768
7.24462
-0.0096101
-0.0275293
-7.21488
7.07453
-0.0260311
0.0153765
-6.7341
6.08528
-0.104279
0.153385
-5.31697
5.09012
-0.113985
0.305029
-5.17369
5.49763
-0.0640147
0.346124
-6.33688
7.191
-0.0648785
0.217669
-7.475
7.51402
0.00725826
-0.0445084
-7.52651
7.5457
0.296529
-0.315718
-7.58703
7.64344
0.330788
-0.387196
-7.70609
7.76031
0.460415
-0.514638
-7.78268
7.75832
0.826004
-0.801647
-7.68788
6.81899
0.904011
-0.972547
-2.8391
0.099298
-0.0243824
-0.280983
-0.000790508
3.41226e-13
-7.61241e-14
0.000790508
-3.37031e-10
1.23095e-08
-1.28419e-11
1.82019e-10
-1.9999e-08
2.2097e-08
-1.62555e-12
7.10628e-10
-1.18202e-08
1.1829e-08
-8.75783e-12
1.64857e-26
-7.73067e-06
9.67545e-06
3.55702e-15
-1.22229e-05
-1.22128e-08
1.75444e-06
-1.22112e-14
1.41855e-06
-3.04956e-06
1.06692e-06
1.12024e-07
2.54567e-07
7.94093e-23
-9.05621e-23
9.49734e-29
1.18158e-25
-0.0291622
6.09357
0.172406
-0.17902
-6.8368
6.84002
0.151943
-0.15517
-6.83569
6.82781
0.0506597
-0.0427791
-6.81889
6.81014
0.0126007
-0.00384947
-6.80181
6.7937
-0.00193933
0.0100537
-6.78567
6.77759
-0.00913268
0.017221
-6.76942
6.76128
-0.0126887
0.0208364
-6.75318
6.74522
-0.0140148
0.0219813
-6.73747
6.72993
-0.0140994
0.0216355
-6.72274
6.71582
-0.0136316
0.0205525
-6.70926
6.70294
-0.0130603
0.0193824
-6.69695
6.69115
-0.0123703
0.0181633
-6.68575
6.68051
-0.011455
0.0166977
0.445166
-0.524342
0.107572
-0.207002
0.257976
0.322209
-0.376865
-0.298213
0.340225
0.241292
-0.28152
-0.37421
0.411848
0.177369
-0.206339
-0.435722
0.453139
0.13925
-0.156532
-0.430769
0.413367
0.0280491
-0.049126
-0.423825
0.465224
-0.047841
0.0468811
-0.499123
0.509045
-0.0317153
0.0389842
-0.509481
0.515973
0.0302763
-0.036939
-0.529979
0.548771
0.0689303
-0.0876985
-0.569514
0.590679
0.0828331
-0.103997
-0.610056
0.627559
0.084664
-0.102167
-0.648917
0.67874
0.0629264
-0.0927504
-0.703339
0.732325
0.220321
-0.248466
-0.80412
0.892516
0.589043
-0.67559
-1.01735
1.06134
0.908274
-0.834561
-0.46127
0.310902
0.844651
-0.145767
-0.165353
0.378918
0.301952
-0.479795
-1.15391
2.98693
0.000521311
-2.42626
-4.37663
5.09894
0.89309
-2.3645
-5.50376
5.74047
1.51855
-1.75527
-5.88645
6.01611
1.09983
-1.2295
-6.1394
6.24719
0.716916
-0.824699
-6.35124
6.46049
0.393602
-0.502849
-6.57025
6.6703
0.163505
-0.263551
-6.75229
6.8141
0.0865257
-0.148334
-6.85699
6.88493
0.061803
-0.089748
-6.90379
6.92032
0.00311715
-0.0196518
-6.94113
6.96984
-0.128455
0.099747
-7.00754
7.05303
-0.265024
0.219538
-7.10332
7.15313
-0.293357
0.243543
-7.19723
7.23222
-0.176693
0.141703
-7.25474
7.26003
0.061138
-0.0664312
-7.24697
7.23065
0.309655
-0.293335
-7.22518
7.23366
0.409809
-0.418284
-7.25079
7.2653
0.534126
-0.548632
-7.26405
7.23834
0.757396
-0.731693
-7.18694
7.12323
0.872593
-0.808885
-7.06946
7.03305
0.646199
-0.609782
-5.94363
2.24314
0.0345741
-0.173631
-0.12421
0.00588282
-6.89122e-05
0.030602
-7.3127e-21
-1.21806e-38
-2.06067e-10
2.06067e-10
-1.75959e-11
0.000809416
4.65665e-06
1.93671e-06
-0.000802466
0.000745141
8.27963e-05
-2.54709e-05
-0.000223427
0
-1.23565e-05
1.55746e-05
5.25793e-23
-1.25989e-10
1.25989e-10
-4.90699e-25
-3.74849e-09
3.72326e-09
9.40558e-26
2.52334e-11
-4.8047
7.1959
0.231124
-0.165786
-7.1147
7.06265
0.122203
-0.0701535
-7.02973
7.0085
0.0255659
-0.00433874
-6.99375
6.98231
-0.00699305
0.0184337
-6.97246
6.96306
-0.0189775
0.028373
-6.95362
6.94407
-0.0260242
0.0355785
-6.93454
6.92522
-0.0294792
0.0387941
-6.91622
6.90757
-0.0302029
0.0388536
-6.89932
6.89151
-0.0292203
0.0370251
-6.88421
6.8774
-0.0273387
0.0341448
-6.87111
6.86526
-0.025399
0.031241
-6.85982
6.85476
-0.0235375
0.0286068
-6.85008
6.84576
-0.021431
0.0257544
0.61324
-0.691674
0.0784342
-0.161165
0.228842
0.441139
-0.455193
-0.272544
0.309595
0.325437
-0.362488
-0.336232
0.354687
0.230674
-0.249129
-0.366818
0.376562
0.169713
-0.179457
-0.389273
0.408611
0.0697938
-0.0900456
-0.428899
0.446627
-0.0390013
0.0205405
-0.458393
0.463394
-0.037262
0.0322813
-0.466972
0.474361
0.0437941
-0.0511755
-0.489046
0.507834
0.106186
-0.125025
-0.528866
0.550867
0.125417
-0.147381
-0.571547
0.575777
0.11999
-0.124219
-0.497402
0.536783
0.101793
-0.100404
-0.611098
0.634582
0.273239
-0.288765
-0.634712
0.352606
0.724367
-0.333718
-0.0646481
0.0283665
0.0782418
-0.0160197
-0.47181
3.13148
0.242404
-3.22853
-4.41432
4.91889
2.81162
-3.3162
-5.05068
5.14651
2.9887
-3.08454
-5.25818
5.39257
2.51693
-2.65132
-5.53939
5.69146
1.91056
-2.06263
-5.84015
5.97995
1.36513
-1.50494
-6.10895
6.22377
0.936406
-1.05122
-6.32566
6.41954
0.601829
-0.695715
-6.50488
6.57917
0.347865
-0.422157
-6.63958
6.68454
0.200078
-0.245041
-6.71405
6.73107
0.111288
-0.128308
-6.7405
6.74773
0.0310258
-0.0382559
-6.75753
6.77278
-0.0776329
0.0623783
-6.79395
6.81975
-0.183034
0.157236
-6.84823
6.87651
-0.204434
0.176159
-6.90154
6.92041
-0.115597
0.0967267
-6.93001
6.92815
0.0660219
-0.0641629
-6.91657
6.90321
0.276493
-0.263137
-6.89643
6.90081
0.423364
-0.427738
-6.91579
6.93657
0.566917
-0.587705
-6.95637
6.96965
0.729038
-0.742317
-6.97305
6.97035
0.780281
-0.777577
-6.9694
6.97735
0.601862
-0.609809
-6.99738
7.02911
0.233178
-0.265957
-7.04845
6.89338
-0.148557
0.129469
-5.32306
1.50605
-0.0764641
0.411153
-0.046247
3.32181e-06
-2.37995e-06
0.0462459
-2.67642e-06
1.68703e-06
-2.38466e-06
4.17499e-07
4.87655e-09
7.76909e-08
-3.50777e-07
1.564e-08
-1.45663e-08
9.66852e-09
1.68146e-20
4.89781e-09
-1.80298
7.13875
-0.0719349
0.300851
-7.46013
7.34783
0.0445845
0.0677162
-7.26715
7.21495
0.0143755
0.0378259
-7.18201
7.16071
-0.0174907
0.0387991
-7.14572
7.13379
-0.029945
0.0418681
-7.12311
7.11248
-0.0381661
0.0488021
-7.1013
7.0897
-0.0459013
0.0575049
-7.07821
7.06722
-0.0487457
0.0597372
-7.05688
7.04719
-0.0478769
0.057567
-7.03817
7.02981
-0.0449862
0.0533466
-7.02217
7.01526
-0.040898
0.0478068
-7.00908
7.00354
-0.036857
0.0423901
-6.99855
6.99404
-0.0333245
0.0378372
-6.98996
6.98639
-0.0296333
0.033209
0.826437
-0.893488
0.0670508
-0.13246
0.180604
0.504521
-0.596672
-0.219737
0.245527
0.395514
-0.418985
-0.257284
0.266496
0.260753
-0.264607
-0.27148
0.282577
0.179717
-0.171449
-0.292972
0.298177
0.104302
-0.120423
-0.325575
0.355994
0.00095364
-0.0280205
-0.390042
0.404706
-0.0223616
0.00712354
-0.414645
0.416638
0.0595629
-0.0539154
-0.434571
0.462673
0.143013
-0.162406
-0.473813
0.407758
0.165958
-0.159596
-0.37226
0.433657
0.125426
-0.157607
-0.526843
0.560973
0.127662
-0.145134
-0.552538
0.393738
0.27039
-0.208586
-0.0140978
4.2385e-20
0.0140978
-1.26297e-19
-0.435339
3.56199
0.655885
-3.6105
-4.28369
4.4723
4.06433
-4.25293
-4.67119
4.87365
3.51927
-3.72174
-5.05009
5.19139
3.20192
-3.34322
-5.31952
5.44885
2.77765
-2.90697
-5.58449
5.72378
2.20669
-2.34599
-5.86294
5.99565
1.64139
-1.7741
-6.11892
6.22838
1.16352
-1.27298
-6.32414
6.40753
0.783262
-0.86665
-6.47838
6.53703
0.487343
-0.545987
-6.58435
6.61965
0.284095
-0.319399
-6.64185
6.65344
0.141863
-0.153449
-6.65943
6.66442
0.0432752
-0.0482617
-6.67188
6.68322
-0.0510963
0.0397625
-6.69719
6.71243
-0.139251
0.124014
-6.72929
6.74784
-0.155399
0.136844
-6.76686
6.78404
-0.0811737
0.0639928
-6.79577
6.79965
0.0640012
-0.0678812
-6.79744
6.79298
0.25432
-0.249863
-6.78954
6.78938
0.430399
-0.430243
-6.79403
6.80358
0.605018
-0.614569
-6.8185
6.83707
0.761899
-0.780466
-6.85738
6.87898
0.791089
-0.812692
-6.90372
6.93285
0.630757
-0.659887
-6.96861
7.01276
0.307261
-0.351407
-7.06405
7.11734
-0.085204
0.0319094
-7.1695
7.21287
-0.446408
0.403032
-6.91353
4.7801
-0.386925
0.741337
-1.87185
1.19802
-4.17499e-07
0.517521
-1.43933
2.97217
-1.564e-08
0.611846
-6.4133
7.66553
-0.391374
0.74656
-7.64857
7.58888
-0.38557
0.445267
-7.51661
7.44984
-0.1566
0.223376
-7.39821
7.36161
-0.0820786
0.118682
-7.33608
7.3174
-0.0586444
0.0773248
-7.30223
7.28869
-0.0542855
0.0678246
-7.27593
7.26289
-0.0604082
0.0734456
-7.24871
7.23374
-0.0705174
0.0854944
-7.21914
7.20568
-0.0717681
0.0852263
-7.19343
7.18229
-0.0678489
0.0789923
-7.17211
7.16288
-0.0620288
0.0712601
-7.15457
7.14727
-0.0548133
0.0621213
-7.14091
7.13541
-0.0478076
0.0533018
-7.13062
7.12642
-0.0421182
0.0463161
-7.12269
7.11958
-0.0364849
0.0395964
0.947329
-0.986968
0.0396394
-0.0970936
0.13454
0.63851
-0.675956
-0.166261
0.192057
0.447357
-0.479216
-0.210318
0.219276
0.278897
-0.300481
-0.223605
0.227178
0.181035
-0.190058
-0.22671
0.231284
0.131199
-0.135772
-0.247779
0.276484
0.0573365
-0.086041
-0.222006
0.240959
0.0112185
-0.03025
-0.260593
0.27912
0.0623478
-0.0819203
-0.37442
0.372135
0.176383
-0.18061
-0.388435
0.434588
0.177581
-0.213163
-0.490852
0.506943
0.186465
-0.202556
-0.516307
0.514677
0.149316
-0.147686
-0.135318
0.0160049
0.0296544
-0.00316212
-0.0160045
1.27121
0.161617
-1.02701
-3.90622
4.10651
4.85919
-5.05948
-4.26519
4.45395
4.44054
-4.6293
-4.65718
4.86462
3.92606
-4.1335
-5.05877
5.22995
3.50143
-3.67261
-5.38164
5.5211
3.04098
-3.18044
-5.65509
5.78479
2.48005
-2.60975
-5.91077
6.03001
1.89953
-2.01877
-6.14037
6.23829
1.3763
-1.47422
-6.32324
6.3966
0.94415
-1.01751
-6.45612
6.5032
0.597786
-0.644863
-6.54261
6.57453
0.351706
-0.383629
-6.59566
6.60711
0.164075
-0.17553
-6.6156
6.62543
0.0548824
-0.0647111
-6.63971
6.66013
-0.0251718
0.00475296
-6.68228
6.70366
-0.107446
0.0860719
-6.72597
6.75121
-0.116585
0.0913447
-6.77883
6.80775
-0.0417979
0.0128772
-6.82616
6.74791
0.0777268
-0.0813757
-6.48339
6.05855
0.249902
-0.122571
-5.61033
5.39134
0.427944
-0.185401
-5.40598
5.59445
0.613616
-0.277315
-6.17752
6.72191
0.791264
-0.617196
-6.83758
6.85832
0.835239
-0.855982
-6.88506
6.91982
0.693341
-0.728094
-6.96091
7.00799
0.396773
-0.443855
-7.06058
7.11715
0.0231556
-0.0797213
-7.17653
7.23767
-0.34596
0.284815
-7.3002
7.36428
-0.65474
0.590663
-7.42971
7.49475
-0.856632
0.791598
-7.55626
7.60865
-0.889382
0.836989
-7.64364
7.65774
-0.731483
0.717385
-7.65165
7.62966
-0.484325
0.506317
-7.59902
7.56722
-0.270278
0.302071
-7.53945
7.51683
-0.147552
0.170175
-7.49819
7.48178
-0.0946011
0.111008
-7.46526
7.4482
-0.0826787
0.0997386
-7.43193
7.41602
-0.0878107
0.103718
-7.39854
7.37923
-0.102419
0.121729
-7.36083
7.34462
-0.0999702
0.11618
-7.33042
7.31771
-0.090842
0.103548
-7.30629
7.29605
-0.0809245
0.0911674
-7.28694
7.279
-0.069671
0.0776098
-7.27222
7.2665
-0.0588296
0.064555
-7.26165
7.2575
-0.0504452
0.0545976
-7.25388
7.25091
-0.0425748
0.0455416
1.01536
-1.03274
0.0173735
-0.0571452
0.0842965
0.706869
-0.724735
-0.109806
0.130203
0.502844
-0.521133
-0.142863
0.14401
0.312301
-0.304652
-0.147337
0.156288
0.187781
-0.169795
-0.161008
0.157361
0.135256
-0.130857
-0.160262
0.175569
0.10864
-0.123946
-0.166585
0.191369
0.0531859
-0.0778752
-0.23193
0.323217
0.101497
-0.166738
-0.337564
0.323508
0.193853
-0.199627
-0.426346
0.453769
0.258716
-0.286138
-0.473716
0.48523
0.215243
-0.226756
-0.487881
0.0769317
0.134118
-0.122296
-0.0142301
0.0142301
-1.63342e-20
1.11911e-18
-1.6422
3.85432
3.53603
-5.44559
-3.99436
4.14844
5.20223
-5.35631
-4.31647
4.50343
4.81561
-5.00257
-4.70298
4.90575
4.33705
-4.53982
-5.10072
5.27903
3.84835
-4.02667
-5.43821
5.58052
3.32266
-3.46497
-5.71033
5.82894
2.73391
-2.85251
-5.94037
6.04379
2.12928
-2.23269
-6.14003
6.22559
1.56458
-1.65014
-6.29944
6.36727
1.08661
-1.15444
-6.42311
6.46442
0.687599
-0.72891
-6.50272
6.53471
0.41715
-0.44914
-6.43658
6.10278
0.189846
-0.079513
-5.63248
5.11832
0.0788721
1.30103e-21
-4.65878
3.86965
0.0203071
3.80792e-22
-2.10252
0.290718
-0.0437129
0
-0.00624074
0.00320081
-0.0415211
-6.77626e-21
-0.00211806
1.76882e-20
0.00211806
4.51582e-22
1.3869e-20
-2.10146e-20
0
1.47693e-21
2.49648e-20
-2.74923e-20
0
2.91344e-21
2.83679e-20
-2.68226e-20
0
4.54858e-21
2.23303e-20
-5.99993e-20
0
3.56119e-20
7.50157e-20
-0.00207843
0.00207843
-1.59869e-12
-0.0409545
0.854341
0.313202
-9.95236e-10
-3.15605
5.73843
0.770675
-0.181076
-6.84663
7.0289
0.490918
-0.521455
-7.08717
7.14469
0.136486
-0.194001
-7.20609
7.26887
-0.223089
0.160313
-7.33383
7.39969
-0.525859
0.460002
-7.46521
7.52804
-0.728794
0.665965
-7.58538
7.6343
-0.788388
0.739469
-7.67307
7.70007
-0.697238
0.670235
-7.71468
7.71798
-0.514184
0.510882
-7.71336
7.70393
-0.321356
0.330784
-7.69249
7.68005
-0.1871
0.199537
-7.66559
7.65041
-0.126449
0.141626
-7.63177
7.60715
-0.119629
0.144243
-7.58384
7.19838
-0.120733
0.100801
-4.85074
2.42653
-0.143291
0.00854481
-2.30012
2.31231
-0.133261
0
-2.14627
1.80488
-0.116762
0