/*--------------------------------*- C++ -*----------------------------------*\
| =========                 |                                                 |
| \\      /  F ield         | OpenFOAM: The Open Source CFD Toolbox           |
|  \\    /   O peration     | Version:  v1912                                 |
|   \\  /    A nd           | Website:  www.openfoam.com                      |
|    \\/     M anipulation  |                                                 |
\*---------------------------------------------------------------------------*/
FoamFile
{
    version     2.0;
    format      ascii;
    class       volScalarField;
    location    "48";
    object      alpha.water;
}
// * * * * * * * * * * * * * * * * * * * * * * * * * * * * * * * * * * * * * //

dimensions      [0 0 0 0 0 0 0];


internalField   nonuniform List<scalar> 
20320
(
1
1
1
1
1
1
1
1
1
1
1
1
1
1
1
1
1
1
1
1
1
1
1
1
1
1
1
1
1
1
1
1
1
1
1
1
1
1
1
1
1
1
1
1
1
1
1
1
1
1
1
1
1
1
1
1
1
1
1
1
1
1
1
1
1
1
1
1
1
1
1
1
1
1
1
1
1
1
1
1
1
1
1
1
1
1
1
1
1
1
1
1
1
1
1
1
1
1
1
1
1
1
1
1
1
1
1
1
1
1
1
1
1
1
1
1
1
1
1
1
1
1
1
1
1
1
1
1
1
1
1
1
1
1
1
1
1
1
1
1
1
1
1
1
1
1
1
1
1
1
1
1
1
1
1
1
1
1
1
1
1
1
1
1
1
1
1
1
1
1
1
1
1
1
1
1
1
1
1
1
1
1
1
1
1
1
1
1
1
1
1
1
1
1
1
1
1
1
1
1
1
1
1
1
1
1
1
1
1
1
1
1
1
1
1
1
1
1
1
1
1
1
1
1
1
1
1
1
1
1
1
1
1
1
1
1
1
1
1
1
1
1
1
1
1
1
1
1
1
1
1
1
1
1
1
1
1
1
1
1
1
1
1
1
1
1
1
1
1
1
1
1
1
1
1
1
1
1
1
1
1
1
1
1
1
1
1
1
1
1
1
1
1
1
1
1
1
1
1
1
1
1
1
1
1
1
1
1
1
1
1
1
1
1
1
1
1
1
1
1
1
1
1
1
1
1
1
1
1
1
1
1
1
1
1
1
1
1
1
1
1
1
1
1
1
1
1
1
1
1
1
1
1
1
1
1
1
1
1
1
1
1
1
1
1
1
1
1
1
1
1
1
1
1
1
1
1
1
1
1
1
1
1
1
1
1
1
1
1
1
1
1
1
1
1
1
1
1
1
1
0.964678
0.988486
0.949142
0.84783
0.994871
1
1
1
0.993629
0.962923
0.992179
0.998503
0.748166
0.252917
0.252917
0.333419
0.963249
1
0.110479
0.0193282
0.0231899
1.01494e-20
-8.23477e-22
-2.80006e-22
-6.65245e-22
-3.90669e-22
0.00271695
0.00530784
7.56785e-21
-2.14124e-22
0
-8.15011e-23
-7.44251e-22
0.0254866
0.129604
0.283478
0.622614
0.457101
-3.49511e-20
3.45688e-17
-1.01859e-35
-1.37345e-21
2.46673e-16
4.68362e-15
4.18941e-15
4.86887e-07
-1.98726e-24
0.906454
1
1
1
1
1
1
1
1
1
1
1
1
0.901389
0.771711
0.913492
1
1
0.996182
0.978566
0.977795
0.976954
0.996701
0.996704
0.988402
0.862153
0.997947
1
0.999468
1
0.907096
6.27949e-20
1.66352e-20
-2.61464e-19
0.0470329
0.526541
1
0.999333
1
0.998599
0.975646
0.86363
0.65684
0.661072
0.885872
0.999988
1
1
1
1
0.979686
0.152401
4.62678e-14
7.44776e-10
2.7619e-09
1.12156e-23
1.1245e-06
3.98947e-08
5.02264e-07
1.51764e-25
0.4067
1
1
1
1
1
1
1
1
1
1
1
1
0.976854
0.984541
0.961569
0.971396
0.99999
0.854321
0.828261
0.984665
0.999727
0.999998
1
1
1
0.979586
0.99972
0.97369
0.211055
0.060997
0.338755
0.811117
1
1
1
1
1
1
1
1
1
1
1
1
1
1
1
1
1
1
1
0.602481
0.00172529
-2.02377e-44
4.85894e-05
0.000129145
7.58512e-06
-2.10122e-27
2.98986e-27
0.91786
1
1
1
1
1
1
1
1
1
1
1
1
0.907321
0.970468
1
1
1
0.999282
0.995657
0.999765
0.999999
0.999985
0.999982
1
0.820509
0.994766
0.808582
0.00805463
0.345522
1
1
1
1
1
1
1
1
1
1
1
1
1
1
1
1
1
1
1
1
1
1
1
0.990129
0.496426
5.04026e-07
4.30977e-07
1.48144e-08
7.29182e-28
0.595371
1
1
1
1
1
1
1
1
1
1
1
1
1
1
0.959486
0.982963
0.94598
0.933308
0.965345
0.924018
0.994534
0.97829
0.994275
0.920386
0.751535
0.996543
0.956928
8.27592e-20
0.550705
1
1
1
1
1
1
1
1
1
1
1
1
1
1
1
1
1
1
1
1
1
1
1
1
1
1
0.8309
0.174097
0.214895
0.940754
1
1
1
1
1
1
1
1
1
1
1
1
1
1
1
1
0.999094
0.976743
0.99224
1
1
0.723372
0.723371
0.92099
0.83523
1
1
0.0305557
0.0695499
1
1
1
1
1
1
1
1
1
1
1
1
1
1
1
1
1
0.994309
0.932085
0.828674
0.82277
0.955541
1
1
1
1
1
1
1
1
1
1
1
1
1
1
1
1
1
1
1
1
1
1
1
1
0.98873
0.996542
0.954805
0.927633
0.999791
1
0.723368
0.895678
0.770088
1
1
0.55767
-1.88373e-20
0.889003
1
1
1
1
1
1
1
1
1
1
1
0.963785
0.851509
0.733085
0.219624
0.00316867
-1.85666e-23
-2.97574e-21
-3.92005e-21
-3.85659e-21
-8.55644e-21
4.71945e-22
0.0573453
0.628434
0.995837
1
1
1
1
1
1
1
1
1
1
1
0.988588
0.496543
0.330664
0.280643
0.219816
0.21108
0.204346
0.19528
0.181388
0.994665
0.98734
0.991195
0.986809
0.91082
0.857946
0.977496
0.997665
0.961185
0.923438
0.995153
0.999994
0.0213847
0.143962
1
1
1
1
1
1
1
1
0.964322
0.670516
0.0276982
-1.4191e-20
-1.21117e-20
-7.45963e-21
-6.25014e-21
-6.6296e-21
-8.2532e-21
-1.0427e-20
-1.25213e-20
-1.41119e-20
-1.47105e-20
-1.37899e-20
1.76209e-10
1.21863e-09
-9.18342e-28
0.0015876
0.545497
0.99907
1
1
1
1
1
1
0.917186
0.0416234
6.13229e-20
6.57883e-22
-3.9036e-23
-8.66179e-21
-1.45137e-20
-1.64697e-20
-1.6808e-20
-1.61959e-20
-1.53536e-20
-1.45556e-20
1
1
1
1
1
0.999932
1
0.997189
0.854603
0.777385
0.998663
0.609224
2.42752e-20
0.891347
1
1
1
1
1
1
0.877753
0.0937104
-2.0487e-37
-2.64929e-21
-8.02774e-21
-7.85998e-21
-6.21125e-21
-6.119e-21
-6.99785e-21
-8.15088e-21
-9.31026e-21
-1.03578e-20
-1.12333e-20
-1.19103e-20
-1.23759e-20
-1.13353e-20
8.74531e-17
1.32864e-09
3.65704e-08
-1.10774e-22
0.000674544
0.0327739
0.293808
0.875824
0.932247
0.947288
0.576406
0.00772238
-1.5589e-22
-5.00978e-21
-1.04134e-20
-1.3814e-20
-1.52361e-20
-1.5255e-20
-1.44834e-20
-1.3526e-20
-1.26605e-20
-1.19633e-20
-1.14251e-20
-1.10083e-20
0.992835
0.999977
0.994933
0.853805
1
0.999639
0.800405
1
0.744914
0.794302
1
0.0635768
0.0421462
1
1
1
1
1
1
0.376863
-1.61141e-36
-5.66617e-21
-4.79912e-21
-4.31737e-21
-3.89147e-21
-4.18515e-21
-4.96406e-21
-5.85235e-21
-6.59321e-21
-7.09261e-21
-7.34467e-21
-7.3744e-21
-7.27293e-21
-7.15328e-21
-7.10927e-21
-7.20932e-21
-7.07318e-21
-7.18804e-21
-8.06991e-21
-8.33293e-21
-7.62816e-21
-4.00033e-21
2.26323e-22
9.60978e-21
-2.75965e-20
1.28189e-20
6.03158e-22
-4.52536e-21
-8.52394e-21
-1.05889e-20
-1.09216e-20
-1.02159e-20
-9.1463e-21
-8.13152e-21
-7.40411e-21
-6.92559e-21
-6.60246e-21
-6.37338e-21
-6.20463e-21
-6.07765e-21
0.941697
0.987989
0.792276
0.756653
0.784285
0.990785
0.786218
1
0.627872
1
0.740604
2.00755e-21
0.845018
1
1
1
1
1
0.214375
-6.94606e-21
-8.50151e-21
-5.176e-21
-3.6618e-21
-3.32902e-21
-3.60754e-21
-4.10653e-21
-4.56999e-21
-4.83953e-21
-4.84592e-21
-4.6269e-21
-4.26989e-21
-3.87022e-21
-3.52313e-21
-3.29431e-21
-3.21587e-21
-3.30921e-21
-3.58896e-21
-4.05887e-21
-4.70831e-21
-5.51612e-21
-6.42484e-21
-7.21421e-21
-7.70565e-21
-7.74613e-21
-7.62009e-21
-7.63476e-21
-7.99692e-21
-8.36931e-21
-8.07249e-21
-7.13379e-21
-5.99605e-21
-5.02391e-21
-4.30032e-21
-3.79979e-21
-3.4788e-21
-3.27287e-21
-3.13489e-21
-3.03797e-21
-2.96544e-21
-2.90505e-21
0.98916
0.99103
1
1
0.809377
0.965331
1
0.985061
0.83803
1
0.133651
3.66144e-19
1
1
1
1
1
0.38476
-1.06348e-20
-7.39965e-21
-4.39784e-21
-3.1941e-21
-2.87447e-21
-2.94498e-21
-3.10823e-21
-3.22203e-21
-3.21554e-21
-3.054e-21
-2.74654e-21
-2.35604e-21
-1.9626e-21
-1.62914e-21
-1.38986e-21
-1.25309e-21
-1.21687e-21
-1.28274e-21
-1.4544e-21
-1.7379e-21
-2.14061e-21
-2.68131e-21
-3.37651e-21
-4.13682e-21
-4.88858e-21
-5.56014e-21
-5.94075e-21
-5.99075e-21
-5.66262e-21
-4.92672e-21
-3.98503e-21
-3.09921e-21
-2.41499e-21
-1.93975e-21
-1.61521e-21
-1.39181e-21
-1.23704e-21
-1.12514e-21
-1.0391e-21
-9.69341e-22
-9.10563e-22
-8.59589e-22
0.999737
0.998102
1
1
0.999842
0.890118
0.993821
0.970442
0.981567
0.992591
-2.82627e-20
0.752986
1
1
1
1
0.919062
5.49376e-20
-6.16724e-21
-4.29618e-21
-2.70427e-21
-2.30046e-21
-2.24495e-21
-2.20445e-21
-2.09166e-21
-1.91722e-21
-1.69109e-21
-1.42046e-21
-1.13137e-21
-8.65068e-22
-6.52203e-22
-5.01089e-22
-4.05458e-22
-3.56389e-22
-3.48839e-22
-3.82185e-22
-4.57674e-22
-5.78344e-22
-7.4807e-22
-9.74663e-22
-1.26379e-21
-1.58856e-21
-1.92034e-21
-2.23128e-21
-2.44041e-21
-2.43201e-21
-2.16872e-21
-1.7341e-21
-1.29041e-21
-9.34817e-22
-6.82576e-22
-5.10788e-22
-3.92454e-22
-3.09391e-22
-2.50554e-22
-2.08464e-22
-1.78336e-22
-1.57278e-22
-1.43483e-22
-1.3565e-22
0.99929
0.996709
0.985802
0.973018
0.982873
0.99749
0.704724
0.98193
0.534727
0.121336
1.57933e-19
1
1
1
1
1
0.0703014
-3.23119e-21
-3.08565e-21
-2.15702e-21
-1.86178e-21
-1.68252e-21
-1.5186e-21
-1.30262e-21
-1.06586e-21
-8.42345e-22
-6.39145e-22
-4.60179e-22
-3.1478e-22
-2.08809e-22
-1.38871e-22
-9.59438e-23
-7.15734e-23
-6.0684e-23
-6.11003e-23
-7.22591e-23
-9.4379e-23
-1.28222e-22
-1.74532e-22
-2.34383e-22
-3.07911e-22
-3.89369e-22
-4.71003e-22
-5.45884e-22
-5.99012e-22
-5.85958e-22
-4.98475e-22
-3.73296e-22
-2.56092e-22
-1.67897e-22
-1.08624e-22
-7.08564e-23
-4.73794e-23
-3.31351e-23
-2.47918e-23
-2.01642e-23
-1.78875e-23
-1.71588e-23
-1.75284e-23
-1.87608e-23
0.869681
0.999487
0.793798
0.79382
0.977448
0.983968
0.924957
0.0539114
0.00326251
0.428065
0.534851
1
1
1
1
0.707389
-1.16454e-20
-2.28839e-21
-1.62024e-21
-1.39762e-21
-1.21678e-21
-1.02032e-21
-7.94554e-22
-5.73858e-22
-3.94376e-22
-2.5979e-22
-1.61627e-22
-9.39957e-23
-5.15865e-23
-2.75274e-23
-1.49076e-23
-8.57378e-24
-5.53306e-24
-4.42715e-24
-4.78844e-24
-6.56991e-24
-9.89073e-24
-1.48729e-23
-2.15132e-23
-2.97135e-23
-3.92728e-23
-4.95451e-23
-5.957e-23
-6.86311e-23
-7.58273e-23
-7.37477e-23
-5.99999e-23
-4.15709e-23
-2.55522e-23
-1.46194e-23
-8.17628e-24
-4.71322e-24
-2.96036e-24
-2.11473e-24
-1.73157e-24
-1.58303e-24
-1.56233e-24
-1.62452e-24
-1.75243e-24
-1.94461e-24
0.595554
0.983153
0.793799
0.805256
0.959841
1
0.545715
0.00326251
0.932916
1.92628e-18
0.966687
1
1
1
1
0.0397554
-6.0606e-21
-2.66658e-21
-1.33364e-21
-9.481e-22
-7.14764e-22
-4.93165e-22
-3.08269e-22
-1.78807e-22
-9.77498e-23
-4.95332e-23
-2.27036e-23
-9.38069e-24
-3.58494e-24
-1.33431e-24
-5.16682e-25
-2.21658e-25
-1.1173e-25
-7.98609e-26
-1.04608e-25
-1.99047e-25
-3.88275e-25
-6.86422e-25
-1.08324e-24
-1.54901e-24
-2.05114e-24
-2.55685e-24
-3.02906e-24
-3.45115e-24
-3.82633e-24
-3.86757e-24
-3.08442e-24
-1.99839e-24
-1.11492e-24
-5.77436e-25
-3.02345e-25
-1.72637e-25
-1.11081e-25
-7.94824e-26
-6.19518e-26
-5.24533e-26
-4.80119e-26
-4.66536e-26
-4.73564e-26
-5.01633e-26
0.595554
0.990384
1
1
1
1
0.440335
0.491927
1
0.0218526
1
1
1
1
0.804839
-4.10341e-20
-3.74282e-21
-1.97099e-21
-9.36111e-22
-5.68182e-22
-3.34972e-22
-1.74717e-22
-8.15625e-23
-3.46421e-23
-1.30981e-23
-4.21941e-24
-1.13356e-24
-2.59566e-25
-5.39751e-26
-1.11788e-26
-2.56481e-27
-7.21648e-28
-2.69106e-28
-1.62646e-28
-3.65306e-28
-1.42011e-27
-4.40811e-27
-1.01403e-26
-1.83197e-26
-2.75927e-26
-3.65286e-26
-4.43458e-26
-5.08481e-26
-5.63897e-26
-6.18812e-26
-6.72995e-26
-5.7533e-26
-3.73533e-26
-2.02581e-26
-1.00893e-26
-4.94971e-27
-2.4459e-27
-1.20572e-27
-6.06593e-28
-3.41048e-28
-2.30123e-28
-1.83944e-28
-1.66859e-28
-1.676e-28
-1.87897e-28
1
1
0.952349
0.999432
1
0.999071
1
1
0.0710975
0.721175
1
1
1
1
0.10477
8.26762e-38
-1.94038e-21
-1.08142e-21
-5.48444e-22
-2.68955e-22
-1.13578e-22
-4.03424e-23
-1.21143e-23
-2.97517e-24
-5.51945e-25
-7.29248e-26
-6.92701e-27
-5.23029e-28
-3.6772e-29
-2.95231e-30
-4.002e-31
-1.45474e-31
-1.08126e-31
-1.0483e-31
-1.5973e-31
-1.50034e-30
-1.08815e-29
-3.96812e-29
-9.02848e-29
-1.49686e-28
-2.00255e-28
-2.33765e-28
-2.52097e-28
-2.61804e-28
-2.72212e-28
-2.90801e-28
-3.04753e-28
-2.22058e-28
-1.19805e-28
-5.24675e-29
-1.92382e-29
-5.8345e-30
-1.48316e-30
-3.84254e-31
-1.59613e-31
-1.24651e-31
-1.35629e-31
-1.69112e-31
-2.32915e-31
-3.64214e-31
0.990903
1
0.707277
0.997396
0.999969
1
1
1
-1.83595e-20
0.974297
1
1
1
1
-5.97758e-20
-2.50368e-21
-1.5119e-21
-6.97278e-22
-2.82607e-22
-9.36923e-23
-2.41364e-23
-4.60438e-24
-5.90412e-25
-4.20082e-26
-1.49825e-27
-2.74883e-29
-2.94518e-31
-2.38852e-33
-7.2388e-35
-2.66458e-35
-1.45823e-35
-9.27342e-36
-6.64639e-36
-5.25201e-36
-4.49783e-36
-5.58126e-36
-2.13891e-33
-2.70478e-32
-1.02463e-31
-2.11635e-31
-3.01557e-31
-3.37365e-31
-3.22769e-31
-2.78676e-31
-2.25436e-31
-1.82875e-31
-1.60986e-31
-1.58145e-31
-9.52596e-32
-3.24946e-32
-6.82652e-33
-8.54017e-34
-6.27944e-35
-6.62148e-36
-5.07853e-36
-5.00334e-36
-5.07932e-36
-5.35022e-36
-5.89002e-36
-1.12889e-35
0.910963
1
0.707277
0.989549
0.899642
0.994251
1
0.999963
-7.30476e-20
1
1
1
1
0.315556
-3.92753e-37
-1.80065e-21
-1.00337e-21
-3.95159e-22
-1.09605e-22
-2.02402e-23
-2.23688e-24
-1.08961e-25
-1.33429e-27
-1.62562e-31
-2.02213e-37
-3.03621e-39
-8.80782e-41
-8.60875e-42
-1.69383e-42
-5.14654e-43
-2.19621e-43
-1.36405e-43
-9.8192e-44
-7.79384e-44
-6.64356e-44
-5.96675e-44
-5.56347e-44
-2.45848e-37
-1.19913e-35
-4.84249e-35
-8.65077e-35
-9.60105e-35
-7.53166e-35
-4.3634e-35
-1.84397e-35
-5.37151e-36
-1.03162e-36
-1.33579e-37
-1.21955e-38
-8.15665e-40
-4.14422e-41
-1.85897e-42
-3.39815e-43
-3.63923e-43
-4.68049e-43
-6.26762e-43
-8.81171e-43
-1.31792e-42
-2.12338e-42
-3.69536e-42
0.990182
1
0.660395
1
0.990278
0.998945
0.999997
0.75495
0.367893
1
1
1
1
0.011079
-1.90086e-21
-1.24444e-21
-5.8696e-22
-1.77696e-22
-2.73222e-23
-1.80363e-24
-2.38463e-26
-6.56741e-30
-2.94204e-38
-1.78361e-40
-6.05158e-44
-6.40382e-46
-8.08197e-49
-1.98592e-51
-1.04682e-51
-7.21364e-52
-6.23058e-52
-6.44115e-52
-7.57957e-52
-9.92067e-52
-1.39032e-51
-1.98861e-51
-3.92532e-51
-3.01172e-48
-9.15903e-45
-1.60186e-40
-1.42245e-39
-2.10511e-39
-1.39091e-39
-4.92161e-40
-9.68373e-41
-1.07362e-41
-7.07918e-43
-3.06447e-44
-9.54219e-46
-2.29256e-47
-6.05924e-49
-2.09868e-49
-2.43471e-49
-2.96519e-49
-3.71449e-49
-4.85402e-49
-6.73222e-49
-1.01026e-48
-1.66835e-48
-3.03427e-48
0.760577
0.503424
0.809818
1
1
1
1
0.122063
0.814733
1
1
1
0.990957
-1.54491e-20
-1.38862e-21
-8.86345e-22
-3.29417e-22
-5.65422e-23
-3.01972e-24
-9.00449e-27
-2.49092e-31
-1.21936e-39
-1.84956e-42
-5.485e-46
-1.05888e-48
-2.20262e-55
-7.91233e-57
-2.69321e-58
-3.67357e-59
-3.33654e-59
-4.21805e-59
-5.74644e-59
-8.22952e-59
-1.23645e-58
-1.94122e-58
-3.16809e-58
-5.42187e-58
-9.84744e-58
-1.7448e-57
-3.0313e-57
-5.20467e-57
-8.80666e-57
-1.46888e-56
-2.39532e-56
-3.81042e-56
-5.92467e-56
-9.01028e-56
-1.34172e-55
-1.96047e-55
-2.82023e-55
-4.01362e-55
-5.69057e-55
-8.11699e-55
-1.18032e-54
-1.78055e-54
-2.84914e-54
-4.97033e-54
-9.75077e-54
-2.21036e-53
-5.77391e-53
0.510777
0.763435
1
0.895757
0.454423
0.983581
0.999891
-9.09403e-22
0.987208
1
1
1
0.328914
-1.05849e-37
-1.45473e-21
-6.20178e-22
-1.41959e-22
-9.40634e-24
-1.8793e-26
-1.48327e-30
-2.34346e-40
-3.16353e-43
-3.6254e-47
-1.26382e-50
-8.61793e-58
-9.05679e-60
-6.41087e-62
-2.73632e-63
-2.44241e-63
-2.6733e-63
-3.19489e-63
-4.11247e-63
-5.64725e-63
-8.15314e-63
-1.21198e-62
-1.83919e-62
-2.85495e-62
-4.52196e-62
-7.27485e-62
-1.18422e-61
-1.97478e-61
-3.38081e-61
-5.56822e-61
-8.99239e-61
-1.42593e-60
-2.21599e-60
-3.3582e-60
-4.96375e-60
-7.1683e-60
-1.01414e-59
-1.4132e-59
-1.95799e-59
-2.73443e-59
-3.92435e-59
-5.93752e-59
-9.78925e-59
-1.8326e-58
-4.08963e-58
-1.13903e-57
-3.97408e-57
0.715855
0.993834
0.735559
0.276105
0.346556
1
0.981984
-1.97167e-20
1
1
1
1
0.0526679
8.98662e-39
-1.02796e-21
-3.6228e-22
-3.91218e-23
-2.55689e-25
-2.39868e-29
-1.69952e-40
-2.6407e-43
-1.21463e-47
-5.07358e-51
-8.91648e-59
-1.79909e-61
-5.78148e-64
-1.60337e-66
-3.017e-67
-3.08827e-67
-4.15978e-67
-5.94594e-67
-8.83412e-67
-1.35214e-66
-2.11266e-66
-3.34288e-66
-5.356e-66
-8.68124e-66
-1.40561e-65
-2.26121e-65
-3.62948e-65
-5.82489e-65
-9.34295e-65
-1.49466e-64
-2.37814e-64
-3.8098e-64
-6.13715e-64
-9.4798e-64
-1.42319e-63
-2.08268e-63
-2.99359e-63
-4.30772e-63
-6.37943e-63
-1.00579e-62
-1.74102e-62
-3.37097e-62
-7.26188e-62
-1.75237e-61
-5.06269e-61
-2.18139e-60
-2.04298e-59
0.97973
0.605249
0.603602
0.52219
1
1
0.857462
1.59704e-19
1
1
1
1
2.2221e-20
-2.30518e-21
-8.59175e-22
-1.63863e-22
-3.85833e-24
-5.33974e-28
-8.93097e-32
-2.50794e-41
-5.00547e-45
-3.41386e-49
-9.8101e-54
-4.9152e-59
-4.06889e-64
-1.84423e-65
-8.49981e-67
-3.5787e-68
-1.61381e-69
-4.10445e-70
-5.2078e-70
-7.60332e-70
-1.13592e-69
-1.7236e-69
-2.64619e-69
-4.09332e-69
-6.33308e-69
-9.7287e-69
-1.48429e-68
-2.25697e-68
-3.40516e-68
-5.09711e-68
-7.73503e-68
-1.25671e-67
-2.3991e-67
-5.81155e-67
-1.72191e-66
-5.5972e-66
-1.85985e-65
-6.11048e-65
-1.94159e-64
-6.01264e-64
-1.767e-63
-5.00861e-63
-1.38356e-62
-3.6705e-62
-9.45894e-62
-2.34973e-61
-5.85688e-61
-4.97466e-60
0.97086
0.888038
0.999193
1
1
0.87928
0.00172685
0.4795
1
1
1
0.890194
2.691e-20
-1.10119e-21
-5.84085e-22
-4.43234e-23
-2.06394e-26
-7.13437e-30
-5.96619e-38
-3.52362e-41
-6.63658e-45
-3.41418e-49
-8.45053e-54
-4.21472e-59
-2.51327e-64
-1.22406e-65
-5.5496e-67
-2.29579e-68
-8.6509e-70
-2.98338e-71
-1.08692e-72
-2.39361e-73
-2.98082e-73
-4.21608e-73
-6.04512e-73
-8.7237e-73
-1.26224e-72
-1.85918e-72
-3.01652e-72
-6.74842e-72
-2.54891e-71
-1.34382e-70
-7.71735e-70
-4.38613e-69
-2.37304e-68
-1.19449e-67
-5.53614e-67
-2.3624e-66
-9.32793e-66
-3.42993e-65
-1.18228e-64
-3.84727e-64
-1.19355e-63
-3.61099e-63
-1.05529e-62
-2.97389e-62
-8.20603e-62
-2.17856e-61
-5.58363e-61
-2.34603e-60
0.051694
0.497036
-2.83905e-22
0.0122876
0.0102787
-3.41038e-20
-1.64594e-21
0.750386
1
1
1
0.364967
-1.31306e-22
-1.24217e-21
-3.24687e-22
-3.03716e-24
-5.64429e-28
-5.85513e-32
-7.65873e-38
-4.70258e-41
-8.3994e-45
-3.4554e-49
-6.78247e-54
-3.34397e-59
-1.69145e-64
-8.018e-66
-3.57256e-67
-1.45781e-68
-5.43892e-70
-1.85541e-71
-5.78805e-73
-1.65486e-74
-4.48449e-76
-3.2363e-77
-4.83239e-77
-2.00604e-76
-1.23384e-75
-8.40441e-75
-5.78566e-74
-3.92964e-73
-2.60457e-72
-1.6797e-71
-1.0551e-70
-6.41936e-70
-3.74775e-69
-2.09978e-68
-1.1276e-67
-5.70348e-67
-2.67043e-66
-1.14995e-65
-4.56379e-65
-1.67964e-64
-5.77991e-64
-1.8785e-63
-5.82406e-63
-1.73359e-62
-4.95777e-62
-1.35348e-61
-3.55963e-61
-9.7828e-61
0.0171405
1.47987e-10
1.64169e-14
3.10951e-12
1.0499e-11
8.01659e-13
-4.71681e-28
0.932041
1
1
1
0.105704
-8.77643e-22
-1.17593e-21
-1.27554e-22
-1.35135e-25
-2.01454e-29
-6.34903e-35
-9.47984e-38
-5.75825e-41
-9.91192e-45
-3.41726e-49
-5.07563e-54
-2.43837e-59
-1.12033e-64
-5.16675e-66
-2.26259e-67
-9.10049e-69
-3.35492e-70
-1.13354e-71
-3.50947e-73
-9.97249e-75
-2.60556e-76
-6.53698e-78
-2.15534e-78
-1.45855e-77
-1.05064e-76
-7.51777e-76
-5.31509e-75
-3.69182e-74
-2.51108e-73
-1.67191e-72
-1.08562e-71
-6.83153e-71
-4.16297e-70
-2.46052e-69
-1.40255e-68
-7.67126e-68
-4.03775e-67
-2.02563e-66
-9.45666e-66
-4.04454e-65
-1.58484e-64
-5.73947e-64
-1.94251e-63
-6.19764e-63
-1.86048e-62
-5.16835e-62
-1.28225e-61
-2.64399e-61
0.0282185
1.46908e-07
3.87048e-13
2.36143e-12
3.9375e-12
7.76403e-06
-1.88666e-23
1
1
1
1
0.00264555
-1.33554e-21
-9.55796e-22
-2.43941e-23
-1.01253e-26
-3.96924e-31
-6.70333e-35
-1.04623e-37
-6.33965e-41
-1.0701e-44
-3.25059e-49
-3.56038e-54
-1.62887e-59
-7.27531e-65
-3.26446e-66
-1.40486e-67
-5.56569e-69
-2.02593e-70
-6.77023e-72
-2.07764e-73
-5.86328e-75
-1.52243e-76
-3.65603e-78
-2.13033e-79
-9.75237e-79
-7.11171e-78
-5.16127e-77
-3.69986e-76
-2.60975e-75
-1.80933e-74
-1.22894e-73
-8.13137e-73
-5.23286e-72
-3.27759e-71
-1.99175e-70
-1.17025e-69
-6.65968e-69
-3.66497e-68
-1.94116e-67
-9.89954e-67
-4.80605e-66
-2.15455e-65
-8.76442e-65
-3.23655e-64
-1.08958e-63
-3.32043e-63
-8.89991e-63
-1.9772e-62
-3.32191e-62
0.0282312
3.13818e-25
4.47553e-13
1.88617e-13
3.94917e-06
0.000259446
0.000600275
1
1
1
1
-1.02371e-19
-1.6693e-21
-6.80604e-22
-4.94261e-24
-6.1535e-28
-2.37287e-32
-6.97013e-35
-1.05946e-37
-6.32644e-41
-1.0509e-44
-2.932e-49
-2.36379e-54
-9.93757e-60
-4.61543e-65
-2.01496e-66
-8.5182e-68
-3.32333e-69
-1.19349e-70
-3.94344e-72
-1.19863e-73
-3.35355e-75
-8.64229e-77
-2.05295e-78
-5.14902e-80
-4.95573e-80
-3.58273e-79
-2.61916e-78
-1.89147e-77
-1.34703e-76
-9.42786e-76
-6.45725e-75
-4.31137e-74
-2.80495e-73
-1.7736e-72
-1.08598e-71
-6.43895e-71
-3.69724e-70
-2.05046e-69
-1.09637e-68
-5.64019e-68
-2.76949e-67
-1.29423e-66
-5.65712e-66
-2.2354e-65
-7.79895e-65
-2.36801e-64
-6.08983e-64
-1.25888e-63
-1.93073e-63
0.00840792
-7.05627e-27
3.34935e-10
4.52117e-14
0.000213083
4.13761e-05
0.646783
1
1
1
0.806143
-5.41122e-22
-1.83805e-21
-3.48461e-22
-1.044e-24
-2.86406e-29
-2.41853e-32
-7.03588e-35
-1.01418e-37
-5.86589e-41
-9.56795e-45
-2.55757e-49
-1.55869e-54
-5.55942e-60
-2.85098e-65
-1.21147e-66
-5.03079e-68
-1.93151e-69
-6.83946e-71
-2.2322e-72
-6.71321e-74
-1.86072e-75
-4.75516e-77
-1.1213e-78
-2.46201e-80
-2.24825e-81
-1.29709e-80
-9.47847e-80
-6.8568e-79
-4.88789e-78
-3.42016e-77
-2.33955e-76
-1.56128e-75
-1.01339e-74
-6.37243e-74
-3.87177e-73
-2.26975e-72
-1.28028e-71
-6.94104e-71
-3.60942e-70
-1.79e-69
-8.42222e-69
-3.72151e-68
-1.52335e-67
-5.71711e-67
-1.92137e-66
-5.54888e-66
-1.32477e-65
-2.51827e-65
-3.70531e-65
0.00424645
7.76318e-05
1.59472e-11
-6.62366e-24
0.000714456
-7.84053e-23
0.944183
1
1
1
0.353959
-5.97845e-22
-1.91523e-21
-1.334e-22
-1.7495e-25
-9.31906e-30
-3.05617e-32
-7.99357e-35
-1.05336e-37
-5.71996e-41
-9.15291e-45
-2.60951e-49
-1.41677e-54
-3.08612e-60
-1.70933e-65
-7.07783e-67
-2.88593e-68
-1.09017e-69
-3.80312e-71
-1.22494e-72
-3.64094e-74
-9.98754e-76
-2.52961e-77
-5.91764e-79
-1.27825e-80
-2.98799e-82
-3.30497e-82
-2.36668e-81
-1.69804e-80
-1.19911e-79
-8.30346e-79
-5.61829e-78
-3.7039e-77
-2.36814e-76
-1.46301e-75
-8.70417e-75
-4.97194e-74
-2.7145e-73
-1.41328e-72
-6.99166e-72
-3.27451e-71
-1.443e-70
-5.93386e-70
-2.25777e-69
-7.83862e-69
-2.43218e-68
-6.60807e-68
-1.53029e-67
-2.90472e-67
-4.28425e-67
0.00018451
4.36003e-05
5.79946e-11
1.17199e-25
0.000310117
7.43103e-19
1
1
1
1
0.090162
-2.24649e-21
-1.59754e-21
-4.99459e-23
-2.15483e-26
-1.14843e-29
-4.68586e-32
-1.16949e-34
-1.45752e-37
-7.62898e-41
-1.28158e-44
-4.86466e-49
-3.4637e-54
-3.14628e-60
-9.92749e-66
-4.00707e-67
-1.60426e-68
-5.96231e-70
-2.04927e-71
-6.50867e-73
-1.91041e-74
-5.18075e-76
-1.29839e-77
-3.01037e-79
-6.44785e-81
-1.28178e-82
-7.82561e-84
-3.93906e-83
-2.77444e-82
-1.9221e-81
-1.30414e-80
-8.63254e-80
-5.55284e-79
-3.45698e-78
-2.07463e-77
-1.19591e-76
-6.59217e-76
-3.46236e-75
-1.72603e-74
-8.14285e-74
-3.6222e-73
-1.51427e-72
-5.92957e-72
-2.15753e-71
-7.19691e-71
-2.15843e-70
-5.66623e-70
-1.25816e-69
-2.2756e-69
-3.21907e-69
3.37948e-11
1.36192e-11
6.29468e-11
2.04635e-08
4.11158e-05
0.635366
1
1
1
1
0.000373932
-2.53908e-21
-1.16723e-21
-1.52046e-23
-4.30321e-27
-1.66915e-29
-7.81311e-32
-2.054e-34
-2.67102e-37
-1.485e-40
-2.8755e-44
-1.46946e-48
-1.37617e-53
-1.034e-59
-5.66874e-66
-2.18451e-67
-8.59733e-69
-3.14555e-70
-1.06537e-71
-3.33719e-73
-9.67098e-75
-2.59119e-76
-6.42181e-78
-1.47367e-79
-3.12819e-81
-6.13346e-83
-1.16938e-84
-4.43112e-85
-2.91582e-84
-1.96277e-83
-1.29171e-82
-8.27831e-82
-5.14426e-81
-3.08723e-80
-1.78188e-79
-9.85601e-79
-5.20419e-78
-2.61592e-77
-1.24749e-76
-5.62817e-76
-2.39776e-75
-9.62138e-75
-3.61895e-74
-1.26436e-73
-4.04847e-73
-1.16313e-72
-2.91588e-72
-6.16854e-72
-1.0643e-71
-1.45616e-71
1.49534e-10
5.77136e-10
3.41885e-11
0.000221975
5.08666e-23
0.994376
1
1
1
0.997651
-4.52727e-21
-3.28462e-21
-7.12476e-22
-3.82839e-24
-3.55818e-27
-2.50604e-29
-1.28955e-31
-3.67717e-34
-5.1948e-37
-3.18632e-40
-7.12211e-44
-4.40423e-48
-4.91222e-53
-4.2002e-59
-3.92224e-66
-1.13848e-67
-4.40802e-69
-1.58916e-70
-5.30725e-72
-1.64049e-73
-4.6942e-75
-1.24309e-76
-3.04622e-78
-6.91713e-80
-1.45424e-81
-2.82577e-83
-5.07205e-85
-1.13017e-86
-1.95993e-86
-1.26417e-85
-8.01102e-85
-4.93226e-84
-2.94012e-83
-1.68966e-82
-9.32567e-82
-4.92787e-81
-2.48313e-80
-1.19081e-79
-5.4211e-79
-2.33771e-78
-9.53514e-78
-3.66594e-77
-1.32102e-76
-4.42155e-76
-1.35331e-75
-3.71057e-75
-8.87736e-75
-1.7981e-74
-2.9894e-74
-3.97951e-74
1.18141e-10
6.20412e-10
1.73914e-06
4.19766e-06
0.350114
1
1
1
1
0.373439
-8.13774e-22
-2.66572e-21
-2.88626e-22
-9.70742e-25
-3.95423e-27
-3.44738e-29
-1.92579e-31
-5.93214e-34
-9.04889e-37
-6.04691e-40
-1.51636e-43
-1.07347e-47
-1.37431e-52
-1.41309e-58
-6.668e-66
-5.65292e-68
-2.15335e-69
-7.65165e-71
-2.52009e-72
-7.68851e-74
-2.17277e-75
-5.68543e-77
-1.37768e-78
-3.09449e-80
-6.44096e-82
-1.24032e-83
-2.20578e-85
-3.62633e-87
-1.3764e-88
-5.18419e-88
-3.14097e-87
-1.85239e-86
-1.05739e-85
-5.81219e-85
-3.06849e-84
-1.5501e-83
-7.47656e-83
-3.43206e-82
-1.49692e-81
-6.18848e-81
-2.42201e-80
-8.93572e-80
-3.09049e-79
-9.90431e-79
-2.90088e-78
-7.61098e-78
-1.74796e-77
-3.41409e-77
-5.5055e-77
-7.16724e-77
2.55647e-11
2.75054e-21
9.55977e-07
-4.82302e-21
0.9862
1
1
1
1
0.0593175
-3.75014e-21
-2.44488e-21
-9.9439e-23
-4.61295e-25
-4.39613e-27
-4.12187e-29
-2.44587e-31
-7.96868e-34
-1.28212e-36
-9.09346e-40
-2.49612e-43
-1.97002e-47
-2.86738e-52
-3.6976e-58
-2.23689e-65
-2.66799e-68
-1.00013e-69
-3.50479e-71
-1.13885e-72
-3.42952e-74
-9.5703e-76
-2.47396e-77
-5.92558e-79
-1.31619e-80
-2.71073e-82
-5.16905e-84
-9.109e-86
-1.47966e-87
-2.23193e-89
-1.73306e-90
-8.20444e-90
-4.59162e-89
-2.49701e-88
-1.31245e-87
-6.63741e-87
-3.22017e-86
-1.49406e-85
-6.61479e-85
-2.78678e-84
-1.11462e-83
-4.21731e-83
-1.50243e-82
-5.00597e-82
-1.54311e-81
-4.34046e-81
-1.09465e-80
-2.42199e-80
-4.5817e-80
-7.21376e-80
-9.24484e-80
1.41394e-11
9.27341e-16
5.58724e-08
0.656641
1
1
1
1
1
-1.26949e-19
-4.9506e-21
-2.00779e-21
-4.04124e-23
-3.64049e-25
-4.25099e-27
-4.04555e-29
-2.4674e-31
-8.2469e-34
-1.36246e-36
-9.98329e-40
-2.94867e-43
-2.56108e-47
-4.27719e-52
-7.31601e-58
-7.10148e-65
-1.18919e-68
-4.3892e-70
-1.51778e-71
-4.86878e-73
-1.44778e-74
-3.99072e-76
-1.01947e-77
-2.41345e-79
-5.30093e-81
-1.07995e-82
-2.03857e-84
-3.55819e-86
-5.72699e-88
-8.47135e-90
-1.18214e-91
-1.94411e-92
-9.28039e-92
-4.69834e-91
-2.32451e-90
-1.1169e-89
-5.1828e-89
-2.31344e-88
-9.89106e-88
-4.03571e-87
-1.56514e-86
-5.73987e-86
-1.97782e-85
-6.356e-85
-1.88518e-84
-5.09717e-84
-1.23623e-83
-2.63976e-83
-4.8517e-83
-7.47747e-83
-9.46003e-83
2.18636e-07
1.66342e-07
0.215673
1
1
1
1
1
0.398435
-7.51024e-22
-3.48075e-21
-1.4516e-21
-2.79873e-23
-2.80455e-25
-3.13086e-27
-2.9522e-29
-1.79997e-31
-5.99516e-34
-9.93639e-37
-7.35941e-40
-2.31912e-43
-2.22297e-47
-4.40148e-52
-1.06883e-57
-1.75489e-64
-4.99132e-69
-1.81284e-70
-6.18659e-72
-1.95931e-73
-5.75493e-75
-1.56683e-76
-3.95476e-78
-9.25287e-80
-2.00948e-81
-4.04939e-83
-7.56193e-85
-1.30679e-86
-2.08318e-88
-3.05329e-90
-4.09987e-92
-5.48314e-94
-2.21776e-94
-1.0097e-93
-4.65765e-93
-2.10912e-92
-9.31068e-92
-3.98506e-91
-1.64262e-90
-6.48624e-90
-2.43894e-89
-8.67086e-89
-2.8956e-88
-9.00101e-88
-2.57864e-87
-6.73084e-87
-1.57913e-86
-3.27496e-86
-5.87806e-86
-8.92018e-86
-1.11915e-85
0.224612
0.259116
1
1
1
1
1
1
0.0123391
-9.5143e-22
-3.31027e-21
-1.12671e-21
-3.09995e-23
-1.96975e-25
-1.55737e-27
-1.42061e-29
-8.47994e-32
-2.76129e-34
-4.56622e-37
-3.40558e-40
-1.14843e-43
-1.24408e-47
-3.0907e-52
-1.12936e-57
-3.19919e-64
-1.97011e-69
-7.03377e-71
-2.36988e-72
-7.41112e-74
-2.14928e-75
-5.78061e-77
-1.44093e-78
-3.331e-80
-7.1467e-82
-1.42328e-83
-2.62781e-85
-4.49211e-87
-7.08752e-89
-1.0282e-90
-1.36675e-92
-1.65918e-94
-2.18685e-96
-1.61117e-96
-7.06022e-96
-3.07656e-95
-1.3126e-94
-5.44984e-94
-2.18919e-93
-8.44572e-93
-3.11214e-92
-1.08602e-91
-3.56248e-91
-1.08931e-90
-3.07261e-90
-7.90649e-90
-1.8303e-89
-3.75757e-89
-6.69853e-89
-1.01382e-88
-1.2703e-88
1
1
1
1
1
1
1
1
1
1
1
1
1
1
1
1
1
1
1
1
1
1
1
1
1
1
1
1
1
1
1
1
1
1
1
1
1
1
1
1
1
1
1
1
1
1
1
1
1
1
1
1
1
1
1
1
1
1
1
1
1
1
1
1
1
1
1
1
1
1
1
1
1
1
1
1
1
1
1
1
1
1
1
1
1
1
1
1
1
1
1
1
1
1
1
1
1
1
1
1
1
1
1
1
1
1
1
1
1
1
1
1
1
1
1
1
1
1
1
1
1
1
1
1
1
1
1
1
1
1
1
1
1
1
1
1
1
1
1
1
1
1
1
1
1
1
1
1
1
1
1
1
1
1
1
1
1
1
1
1
1
1
1
1
1
1
1
1
1
1
1
1
1
1
1
1
1
1
1
1
1
1
1
1
1
1
1
1
1
1
1
1
1
1
1
1
1
1
1
1
1
1
1
1
1
1
1
1
1
1
1
1
1
1
1
1
1
1
1
1
1
1
1
1
1
1
1
1
1
1
1
1
1
1
1
1
1
1
1
1
1
1
1
1
1
1
1
1
1
1
1
1
1
1
0.996538
0.975459
0.927851
0.851617
0.740732
0.551795
-4.56224e-34
0.217607
0.213603
0.201369
0.184191
0.163857
0.140719
0.115585
0.0890335
0.0618436
0.0352314
0.00993151
-1.05417e-22
-5.33458e-22
-8.42309e-22
-5.89571e-22
-3.01402e-22
-1.64969e-22
-1.09982e-22
-1.04039e-22
-4.5681e-34
-3.60049e-35
-2.88054e-35
-4.44759e-35
-6.43539e-35
-8.39717e-35
-9.88138e-35
-1.04983e-34
-1.02414e-34
-9.05422e-35
-7.01789e-35
-5.15126e-35
-1.98725e-23
-1.22957e-23
-3.91034e-24
-2.74989e-24
-2.24363e-24
-9.5073e-25
-1.25877e-25
-3.32515e-26
-3.6346e-34
-4.62568e-35
-1.80792e-37
-3.88747e-37
-9.87587e-37
-1.80266e-36
-2.60242e-36
-3.19581e-36
-3.43362e-36
-3.30219e-36
-2.94238e-36
-2.87498e-36
-4.19599e-36
-6.7786e-36
-8.55245e-36
-8.29063e-36
-5.78877e-36
-2.77633e-36
-1.02064e-36
-4.24806e-37
-5.21664e-34
-4.03655e-35
-1.55869e-37
-4.09363e-39
-1.22215e-38
-2.74722e-38
-4.74649e-38
-6.63896e-38
-7.88915e-38
-8.29495e-38
-8.06581e-38
-7.83648e-38
-8.10051e-38
-8.83748e-38
-8.53309e-38
-6.61454e-38
-4.01817e-38
-1.91498e-38
-7.55232e-39
-2.78881e-39
-2.47383e-34
-1.6438e-36
-4.55608e-39
-8.14524e-41
-2.23575e-40
-5.43073e-40
-1.02026e-39
-1.51439e-39
-1.85615e-39
-1.96938e-39
-1.88397e-39
-1.68644e-39
-1.45256e-39
-1.18431e-39
-8.6538e-40
-5.42389e-40
-2.85364e-40
-1.2625e-40
-4.81217e-41
-1.64336e-41
-7.99154e-35
-1.47646e-37
-1.32161e-39
-1.38294e-41
-4.52177e-42
-1.13916e-41
-2.18105e-41
-3.23223e-41
-3.87062e-41
-3.93636e-41
-3.53069e-41
-2.86027e-41
-2.11926e-41
-1.4289e-41
-8.61213e-42
-4.55199e-42
-2.08494e-42
-8.26751e-43
-2.86567e-43
-8.8233e-44
-1.8551e-35
-7.2166e-38
-7.71208e-40
-6.95737e-42
-1.30785e-43
-2.1307e-43
-4.01718e-43
-5.70438e-43
-6.45396e-43
-6.14512e-43
-5.09993e-43
-3.75011e-43
-2.45641e-43
-1.43132e-43
-7.37616e-44
-3.33839e-44
-1.32068e-44
-4.56489e-45
-1.3845e-45
-3.71301e-46
-1.16198e-36
-1.54572e-38
-1.5726e-40
-1.24722e-42
-8.41495e-45
-3.14786e-45
-5.60001e-45
-7.41763e-45
-7.788e-45
-6.89366e-45
-5.29615e-45
-3.55205e-45
-2.07558e-45
-1.05481e-45
-4.66065e-46
-1.7912e-46
-5.99476e-47
-1.75153e-47
-4.48718e-48
-1.01408e-48
-1.6927e-39
-4.16085e-40
-4.39675e-42
-3.15464e-44
-1.61375e-46
-3.11775e-47
-5.07012e-47
-6.14827e-47
-5.95428e-47
-4.91232e-47
-3.5038e-47
-2.13769e-47
-1.10445e-47
-4.82706e-48
-1.79456e-48
-5.72002e-49
-1.57547e-49
-3.77711e-50
-7.93799e-51
-1.47286e-51
-1.62092e-44
-1.3616e-43
-1.85475e-45
-1.28292e-47
-1.25269e-49
-1.58362e-49
-2.35237e-49
-2.59109e-49
-2.32671e-49
-1.80467e-49
-1.19443e-49
-6.53579e-50
-2.91223e-50
-1.06149e-50
-3.2151e-51
-8.24311e-52
-1.81803e-52
-3.49095e-53
-5.88657e-54
-8.77727e-55
-3.9005e-50
-4.85011e-49
-5.46381e-51
-8.54715e-53
-1.44613e-52
-2.55079e-52
-3.41165e-52
-3.44329e-52
-2.91604e-52
-2.14979e-52
-1.30866e-52
-6.24387e-53
-2.30338e-53
-6.69813e-54
-1.59079e-54
-3.19029e-55
-5.50924e-56
-8.25158e-57
-1.07659e-57
-1.23394e-58
1
1
1
1
1
1
1
1
1
1
1
1
1
1
1
1
1
1
1
1
1
1
1
1
1
1
1
1