/*--------------------------------*- C++ -*----------------------------------*\
| =========                 |                                                 |
| \\      /  F ield         | OpenFOAM: The Open Source CFD Toolbox           |
|  \\    /   O peration     | Version:  v1912                                 |
|   \\  /    A nd           | Website:  www.openfoam.com                      |
|    \\/     M anipulation  |                                                 |
\*---------------------------------------------------------------------------*/
FoamFile
{
    version     2.0;
    format      ascii;
    class       volScalarField;
    location    "48";
    object      epsilon;
}
// * * * * * * * * * * * * * * * * * * * * * * * * * * * * * * * * * * * * * //

dimensions      [0 2 -3 0 0 0 0];


internalField   nonuniform List<scalar> 
20320
(
4.44122e-05
0.000214361
0.000220206
0.000225989
0.000231663
0.000237179
0.000242482
0.0002475
0.000252149
0.000256332
0.000259947
0.000262869
0.000264956
0.000266053
0.000265985
0.000264502
0.00026108
0.000254424
0.000240842
0.000206159
4.4019e-05
4.39297e-05
4.46773e-05
4.64562e-05
4.97936e-05
5.53502e-05
6.39453e-05
7.66392e-05
9.48137e-05
0.000120188
0.000154899
0.000201587
0.000263378
0.000343903
0.000446979
0.000575631
0.000728097
0.000889095
0.00101335
0.00114228
4.44293e-05
4.4921e-05
4.61406e-05
4.81857e-05
5.15057e-05
5.67176e-05
6.47226e-05
7.68569e-05
9.51057e-05
0.000122389
0.000162823
0.000221923
0.000306787
0.000426045
0.00058921
0.000804509
0.00107254
0.00137005
0.00161516
0.00189112
4.50123e-05
4.6512e-05
4.88049e-05
5.19476e-05
5.64075e-05
6.28272e-05
7.21426e-05
8.57737e-05
0.000105925
0.000136016
0.000181249
0.000249203
0.000350185
0.000497145
0.000704853
0.000987238
0.00134932
0.0017646
0.00212722
0.00259317
4.574e-05
4.85773e-05
5.23213e-05
5.69631e-05
6.29898e-05
7.10788e-05
8.22194e-05
9.79112e-05
0.000120484
0.000153619
0.000203153
0.000278145
0.000391791
0.0005615
0.000807284
0.00114768
0.00159022
0.00210569
0.00257521
0.00328773
4.65858e-05
5.11011e-05
5.6705e-05
6.33244e-05
7.14538e-05
8.17969e-05
9.53876e-05
0.000113794
0.000139442
0.000176156
0.00023011
0.000311247
0.000434976
0.000623099
0.000901918
0.00129557
0.00181278
0.00241828
0.00298389
0.00398463
4.75213e-05
5.40256e-05
6.18937e-05
7.09944e-05
8.18155e-05
9.50699e-05
0.000111821
0.000133694
0.000163196
0.000204267
0.000263282
0.000350712
0.000483466
0.000687052
0.000994483
0.00143741
0.00202673
0.00271839
0.00337366
0.00469545
4.85118e-05
5.72687e-05
6.77809e-05
7.98766e-05
9.40255e-05
0.000110931
0.000131665
0.000157892
0.000192188
0.000238589
0.000303632
0.000398157
0.000540108
0.000757908
0.00109096
0.00157985
0.00223991
0.00301764
0.00376145
0.00542713
4.95151e-05
6.07152e-05
7.41907e-05
8.97651e-05
0.00010789
0.000129252
0.000154911
0.000186553
0.000226804
0.000279782
0.000352173
0.000455132
0.0006074
0.000839725
0.0011973
0.00173033
0.002461
0.00332726
0.0041627
0.00619565
5.04819e-05
6.4212e-05
8.0862e-05
0.000100313
0.000123024
0.000149675
0.000181315
0.00021964
0.000267312
0.00032851
0.000410066
0.000523443
0.000688099
0.000936769
0.0013199
0.00189762
0.00270096
0.00366037
0.00459148
0.00701905
5.1358e-05
6.75708e-05
8.74469e-05
0.000111018
0.000138815
0.000171559
0.000210323
0.000256829
0.000313777
0.000385393
0.00047865
0.000605342
0.000785665
0.00105423
0.00146646
0.00209261
0.00297448
0.00403648
0.00507282
0.00791687
5.20887e-05
7.05779e-05
9.35259e-05
0.000121239
0.000154422
0.00019395
0.000241008
0.000297418
0.000365957
0.00045092
0.000559431
0.000703673
0.000904681
0.00119906
0.00164725
0.00233007
0.00330185
0.00448176
0.00563652
0.00892076
5.26248e-05
7.30173e-05
9.86496e-05
0.000130241
0.000168826
0.000215601
0.000272044
0.000340241
0.000423184
0.000525332
0.000654037
0.000821995
0.00105132
0.001381
0.00187705
0.00263194
0.00371471
0.00503954
0.00633504
0.0100904
5.29291e-05
7.46985e-05
0.000102395
0.000137288
0.000180914
0.000235037
0.00030171
0.000383585
0.000484169
0.000608351
0.000763959
0.000964512
0.00123371
0.00161376
0.0021777
0.00303192
0.00426347
0.0057802
0.00725225
0.0115115
5.29828e-05
7.54875e-05
0.000104436
0.000141742
0.000189627
0.000250698
0.000327969
0.000425141
0.000546788
0.000698803
0.000890087
0.00113571
0.00146205
0.0019164
0.00258195
0.00358426
0.00503536
0.00683576
0.00856191
0.0133727
5.27887e-05
7.53321e-05
0.000104601
0.000143188
0.000194125
0.000261134
0.000348643
0.000462062
0.0006079
0.000794113
0.0010319
0.00133943
0.00174812
0.00231429
0.00313839
0.00437728
0.00618452
0.00845372
0.0105915
0.0160035
5.23705e-05
7.42721e-05
0.000102913
0.000141511
0.000193946
0.000265241
0.000361676
0.000491136
0.00066326
0.00088973
0.00118623
0.00157702
0.00210317
0.00283829
0.00391591
0.0055544
0.00799711
0.0111602
0.0141284
0.0202699
5.17695e-05
7.24322e-05
9.95834e-05
0.000136928
0.00018911
0.000262486
0.000365472
0.000509152
0.000707666
0.000978664
0.00134566
0.00184403
0.00253282
0.00351861
0.00500145
0.0073353
0.0110028
0.0161364
0.0212688
0.0285543
5.1037e-05
6.99984e-05
9.49722e-05
0.000129953
0.000180139
0.000253056
0.000359265
0.000513484
0.000735577
0.00105165
0.00149734
0.00212631
0.00302838
0.0043692
0.00647723
0.0100053
0.0161054
0.0260839
0.0386591
0.0511856
5.0227e-05
6.71848e-05
8.95206e-05
0.000121294
0.000167971
0.000237875
0.000343377
0.000502743
0.000742171
0.00109822
0.001623
0.00239661
0.00355544
0.00535899
0.00835569
0.0137844
0.0244569
0.04628
0.0879786
0.15789
0.73107
2.85451
3.84438
4.52755
5.32618
5.94885
8.42177
14.7794
26.3538
44.1307
71.2396
113.668
175.025
302.665
515.034
708.244
846.324
985.729
927.217
1054.93
1145.63
1154.06
878.017
647.112
502.738
410.89
348.232
309.35
282.833
256.685
236.978
234.338
254.463
290.569
333.835
409.801
560.464
886.39
1412.97
1240.3
1008.52
803.704
672.909
629.535
508.494
591.286
321.659
108.065
55.7784
39.3184
34.6168
34.1873
34.7287
35.0237
34.9119
34.55
34.0887
33.6269
33.2258
32.9246
1.46623
1.22155
1.45554
1.69526
2.01794
2.53277
3.77863
6.62281
12.0083
21.0471
35.9757
61.2014
104.93
187.053
320.491
465.505
542.483
565.043
767.383
611.075
529.867
401.292
321.203
258.111
219.184
194.034
178.542
169.073
161.814
155.275
151.888
154.116
161.222
172.063
189.532
219.01
272.06
377.872
537.556
566.748
566.352
512.465
466.513
417.106
396.969
303.739
175.632
75.2026
39.5032
24.7821
18.2029
15.2192
13.8379
13.1025
12.6007
12.1834
11.8085
11.4694
11.1689
10.9118
2.44941
1.46926
1.6297
1.92305
2.42063
3.27012
5.01196
8.69116
15.6344
27.7546
48.8761
86.8333
158.729
303.402
560.603
873.948
976.229
776.647
587.44
448.934
352.669
282.968
228.469
186.99
158.17
140.26
130.789
127.135
127.142
128.9
131.457
134.343
137.021
139.592
143.633
149.93
158.858
172.427
189.862
206.906
221.246
229.737
244.296
262.625
267.192
187.145
108.197
59.3842
35.538
24.074
18.43
15.5913
14.0997
13.2305
12.6385
12.1735
11.7773
11.4299
11.1255
10.8642
3.62148
1.95037
2.11969
2.54156
3.3409
4.75486
7.39008
12.6117
22.4726
40.2281
72.4676
133.353
256.85
525.888
1069.59
1806.62
1121.19
653.619
442.976
333.839
265.649
216.579
177.878
147.173
124.356
109.044
100.016
95.5293
94.1468
94.5229
95.2542
95.2817
94.2593
92.4176
90.5065
89.09
88.6184
90.4336
95.7425
104.433
114.874
125.415
144.36
183.828
194.765
125.942
72.0573
43.7347
29.6681
22.645
18.9739
16.9402
15.7327
14.945
14.3724
13.9161
13.5314
13.1991
12.9113
12.6661
5.02744
2.55654
2.80715
3.42871
4.64018
6.85387
10.818
18.2005
32.0941
57.7832
106.229
202.389
410.355
889.765
2104.93
1417.14
773.603
473.272
324.47
244.328
195.906
161.92
135.232
113.675
96.9788
84.9903
77.0827
72.1755
69.3149
67.7233
66.5047
65.0091
63.1465
61.099
59.1361
57.5042
56.3643
56.0784
57.0259
59.4001
63.3151
68.1514
74.3411
81.8938
77.2608
58.8996
42.6293
32.2654
26.2549
22.7673
20.6502
19.2854
18.3467
17.6582
17.1243
16.6918
16.3314
16.026
15.7656
15.5469
6.71074
3.28752
3.66693
4.54589
6.25173
9.45546
15.2044
25.51
44.5846
80.5462
151.103
299.341
642.052
1462.19
1568.37
854.495
500.826
325.162
231.305
177.081
143.241
119.693
101.582
87.0328
75.5452
66.8927
60.7545
56.5303
53.6741
51.784
50.3601
49.0449
47.7923
46.6459
45.6631
44.893
44.3488
44.0541
44.0038
44.1669
44.5676
45.175
45.5115
44.9117
42.1759
37.6189
33.0742
29.559
27.1136
25.4089
24.138
23.1314
22.3158
21.6505
21.1106
20.6743
20.3205
20.0299
19.7883
19.5893
8.61574
4.14919
4.68933
5.86813
8.11461
12.4082
20.2816
34.3468
59.9663
108.896
208.818
432.222
982.198
2144.48
1026.71
553.829
335.282
226.328
166.113
129.646
106.048
89.626
77.3449
67.718
60.145
54.2932
50.0145
47.0157
44.9588
43.6622
42.9566
42.4711
42.0954
41.7725
41.5178
41.3746
41.3334
41.3565
41.4054
41.3041
40.9484
40.3909
39.6095
38.5088
37.0803
35.509
34.0909
32.9668
32.0432
31.1401
30.1669
29.1688
28.2628
27.4738
26.8169
26.2995
25.8969
25.5778
25.3196
25.1114
10.7437
5.13859
5.86738
7.37644
10.1833
15.5792
25.7259
44.2143
78.0474
143.208
281.254
607.153
1447.07
1377.26
689.157
380.504
236.578
163.861
122.926
97.6374
81.0194
69.5379
61.2478
55.0566
50.4249
46.9544
44.4949
42.8258
41.747
41.1304
40.942
41.1675
41.526
41.9573
42.3715
42.7628
43.1247
43.5255
44.0159
44.4708
44.5277
44.1564
43.552
42.8643
42.2841
41.9777
41.9511
41.9978
41.7722
41.0241
39.8146
38.3149
36.8424
35.4566
34.4186
33.6857
33.1459
32.7275
32.3934
32.1273
13.2294
6.26246
7.20652
9.07306
12.4496
18.9132
31.3085
54.5708
98.2384
183.984
370.677
826.936
1864
899.913
470.822
270.783
174.07
123.557
94.6529
76.7663
65.0333
57.076
51.76
47.9529
45.1007
42.8361
41.0888
40.1371
39.691
39.7504
40.4649
41.3899
42.3571
43.4031
44.4766
45.5645
46.7052
47.9911
49.6185
51.5438
53.2607
54.3565
54.8297
55.1375
55.6011
56.3304
57.3592
58.1802
57.8739
54.7653
49.9808
45.9102
42.6934
40.4
38.825
37.8328
37.1603
36.6571
36.2586
35.9386
15.9809
7.5445
8.74003
11.01
14.9843
22.4939
37.0317
65.0865
119.689
231.281
483.986
1106.74
1188.78
600.185
329.105
198.656
132.636
96.971
76.506
63.9812
55.7486
50.1061
45.9027
42.8473
40.5472
39.1064
38.1041
37.9576
38.1676
38.6843
39.8221
41.1381
42.3973
43.6893
45.0706
46.6016
48.3988
50.6721
53.7171
57.7646
63.1278
69.2058
73.8561
76.7804
79.2738
81.109
82.2749
77.3448
67.9816
59.0894
52.2077
47.0665
43.7212
41.4589
39.822
38.738
37.9972
37.4458
37.0085
36.6555
18.9078
8.99056
10.5306
13.3146
17.9805
26.6176
43.2943
76.0439
141.723
283.51
629.022
1614.41
793.138
412.766
237.512
150.542
104.687
79.6175
65.7208
56.9937
50.389
45.3848
41.5905
38.9166
37.0503
36.0394
35.5468
35.7099
36.158
36.7588
37.746
38.8985
40.0254
41.2007
42.5313
44.1277
46.1436
48.7988
52.3401
57.002
63.2436
71.4864
80.4806
88.4779
93.2099
92.8283
86.1849
75.237
64.3756
55.7132
49.3616
44.853
41.9644
39.9633
38.4837
37.4471
36.7108
36.1546
35.7118
35.3561
21.9478
10.5955
12.6224
16.1518
21.7956
31.856
51.0304
88.7737
164.88
336.054
792.321
1046.87
530.133
292.295
177.791
118.2
85.9984
69.0292
60.105
53.0468
46.9945
42.0405
38.2243
35.5917
33.8874
32.9593
32.5416
32.5809
32.8273
33.1556
33.6919
34.3754
35.1238
35.9965
37.0872
38.4932
40.3386
42.7743
45.9411
49.9689
55.1943
61.7135
68.27
74.3063
77.4799
75.6646
70.2343
62.787
55.2117
48.9345
44.1907
40.8062
38.5251
36.8741
35.6279
34.7149
34.0417
33.5249
33.1142
32.7899
25.357
12.366
15.0433
19.6304
26.8071
39.0147
61.7385
106.012
192.888
384.925
966.371
651.393
360.765
215.135
138.518
96.4047
74.0921
63.8311
57.1659
50.271
43.8875
38.6676
34.7425
32.0439
30.2855
29.2063
28.5651
28.2433
28.0815
28.003
28.0759
28.3139
28.7085
29.3011
30.1408
31.2788
32.7828
34.7259
37.159
40.1246
43.794
48.0135
51.9012
55.2582
56.9953
56.1659
53.5496
49.6248
45.2576
41.335
38.1922
35.8451
34.1455
32.8588
31.8671
31.1176
30.5509
30.1135
29.771
29.5094
29.0299
14.3268
17.8016
23.7646
33.1563
48.8256
77.046
131.815
234.05
439.797
701.322
426.881
261.191
166.999
112.437
81.8694
67.444
61.794
54.9357
46.8666
39.8975
34.4804
30.526
27.7758
25.8947
24.5928
23.655
22.9671
22.4403
22.046
21.8296
21.8212
22.0306
22.4695
23.1425
24.0577
25.2356
26.6971
28.4447
30.4818
32.8748
35.4586
37.7606
39.6948
40.9421
41.1109
40.2845
38.5383
36.2871
34.0466
32.1092
30.5622
29.3624
28.4202
27.6819
27.1147
26.6826
26.3537
26.1064
25.9299
32.1081
16.5049
20.9196
28.4865
40.6645
61.1976
97.7766
170.036
295.394
489.214
502.238
318.087
206.206
136.757
94.5974
72.5737
65.1982
60.5283
51.6938
42.4277
34.9334
29.4495
25.562
22.8231
20.8591
19.3936
18.2505
17.3443
16.6356
16.1243
15.838
15.7912
15.9779
16.3807
16.9768
17.7505
18.6966
19.8101
21.0783
22.4952
24.0844
25.7518
27.2874
28.6443
29.7346
30.3365
30.3308
29.7032
28.6507
27.4595
26.3351
25.3722
24.5841
23.9496
23.4492
23.0653
22.7787
22.5719
22.4328
22.3509
32.4591
18.8978
24.4892
33.8054
49.0165
75.1713
122.172
216.842
353.589
644.159
417.761
265.66
174.121
115.969
81.8222
67.4336
65.063
57.7171
46.9574
36.94
29.2896
23.9218
20.1993
17.5597
15.6139
14.1155
12.9295
12.0007
11.3143
10.8729
10.6788
10.7192
10.9669
11.3894
11.9558
12.6444
13.4408
14.3321
15.3049
16.3545
17.4886
18.6669
19.8052
20.8683
21.8047
22.4926
22.7891
22.6833
22.2697
21.7016
21.1084
20.5664
20.1059
19.7317
19.4405
19.2254
19.0781
18.9913
18.9585
18.9676
33.8416
21.5546
28.7393
40.0624
58.4089
90.3087
147.564
250.911
440.573
607.99
366.01
233.232
151.307
99.5722
72.5306
66.2204
63.413
52.9342
40.8964
30.7412
23.3616
18.3308
14.8963
12.4651
10.6632
9.28059
8.21686
7.43435
6.91848
6.65355
6.61462
6.76852
7.0798
7.51666
8.05371
8.67255
9.35859
10.0987
10.8824
11.7052
12.5691
13.4578
14.3367
15.1787
15.9441
16.5698
16.956
17.086
17.0112
16.8119
16.564
16.3201
16.1083
15.9406
15.8205
15.7478
15.7213
15.7395
15.8001
15.8874
40.2788
25.0909
34.1132
48.0055
70.0577
108.652
177.833
302.959
549.913
528.992
325.732
207.907
131.624
85.5021
66.3665
66.2199
59.4943
46.7102
34.1485
24.3738
17.5915
13.0926
10.0762
7.96906
6.43454
5.29932
4.48427
3.95
3.66289
3.58418
3.67431
3.89827
4.22755
4.64059
5.12179
5.65892
6.24074
6.85634
7.4964
8.1565
8.83528
9.52493
10.2095
10.8703
11.4802
12.0029
12.4028
12.6434
12.751
12.7695
12.7417
12.7003
12.6663
12.651
12.6607
12.6985
12.7671
12.8692
13.0038
13.1514
51.6772
30.5393
41.4954
58.8104
85.8952
133.741
220.797
377.191
687.653
475.267
298.345
185.956
112.972
73.4821
63.7083
64.468
53.8086
39.6668
27.3099
18.318
12.3599
8.54166
6.05645
4.37579
3.2111
2.41636
1.91383
1.64446
1.55362
1.59609
1.74008
1.96463
2.25551
2.60246
2.99772
3.43452
3.90549
4.40221
4.9166
5.44324
5.97894
6.51887
7.05442
7.57382
8.06098
8.49605
8.86096
9.147
9.35448
9.49784
9.60362
9.69155
9.77528
9.86453
9.96695
10.0856
10.2237
10.3852
10.5708
10.7595
67.6248
38.8178
52.5129
74.4531
108.536
169.178
283.643
491.471
778.895
456.084
277.766
164.524
94.7829
64.0676
64.0383
60.0975
46.6111
32.2883
20.8025
12.9063
7.93181
4.89771
3.02903
1.85242
1.12668
0.707109
0.498261
0.424095
0.43431
0.503891
0.623345
0.78903
0.998663
1.2497
1.5391
1.86334
2.21794
2.59719
2.99447
3.40411
3.82177
4.2433
4.66323
5.07446
5.46787
5.83277
6.15978
6.44356
6.68532
6.89144
7.07179
7.23678
7.39499
7.55215
7.71268
7.88086
8.06188
8.26104
8.47899
8.69082
88.5715
50.6204
68.954
97.9722
142.037
219.882
370.751
657.764
740.168
441.144
257.342
141.411
77.4681
58.1214
63.529
53.879
38.8671
25.1481
14.9568
8.35309
4.45853
2.27927
1.08496
0.453709
0.162271
0.05829
0.0313359
0.0301123
0.0428105
0.0712511
0.121077
0.198242
0.307176
0.449927
0.626545
0.835521
1.07425
1.339
1.6252
1.92792
2.24261
2.56512
2.89092
3.21537
3.53292
3.83781
4.12487
4.3909
4.63555
4.86104
5.0713
5.27065
5.46312
5.65235
5.84205
6.03654
6.24105
6.46086
6.69567
6.91757
113.859
66.4697
92.5426
133.2
193.966
296.87
500.347
881.736
762.081
429.91
232.262
115.982
62.3153
56.5837
59.6452
46.6413
31.2261
18.6658
9.99811
4.7735
2.05206
0.735879
0.179464
0.0198053
0.000978677
0.000159292
0.000107355
0.000135973
0.000313993
0.00117297
0.00462738
0.0151927
0.0397426
0.0853979
0.157333
0.257997
0.3875
0.54422
0.72537
0.927522
1.14695
1.37991
1.62261
1.87127
2.12159
2.36974
2.61264
2.84794
3.07452
3.2925
3.5029
3.70729
3.90764
4.10627
4.30599
4.51049
4.72435
4.95173
5.19075
5.41144
139.918
86.4875
124.825
185.338
276.574
421.01
695.607
1276.23
779.053
412.9
200.707
89.7053
51.0308
57.5016
54.5391
39.0268
24.1347
13.0835
6.03107
2.33256
0.675698
0.100039
0.00284156
9.4977e-05
5.7871e-05
5.37882e-05
5.13145e-05
4.97499e-05
4.94532e-05
5.17007e-05
6.40169e-05
0.000132972
0.000575183
0.00292108
0.0113274
0.0322091
0.0717594
0.133869
0.219748
0.328608
0.458444
0.606572
0.769981
0.945563
1.13037
1.32135
1.51582
1.71098
1.90568
2.09925
2.29156
2.48298
2.67441
2.86731
3.06377
3.26657
3.47906
3.70369
3.93635
4.1462
171.398
110.825
167.483
260.657
409.889
644.584
1009.23
1549.23
817.769
384.844
162.726
65.4334
44.7838
58.1477
48.0102
31.635
17.8813
8.49892
3.26105
0.886152
0.108139
0.0016298
7.07659e-05
5.55672e-05
5.26467e-05
5.0194e-05
4.81611e-05
4.67142e-05
4.57384e-05
4.5151e-05
4.5173e-05
4.59356e-05
4.81784e-05
5.70322e-05
0.000103807
0.000404877
0.00209615
0.00850777
0.0250239
0.0568376
0.107069
0.176548
0.264444
0.368971
0.487893
0.618873
0.759638
0.908118
1.0628
1.22178
1.38468
1.5515
1.72266
1.8991
2.08231
2.2742
2.47661
2.68972
2.90682
3.09768
210.541
141.217
222.944
365.222
616.898
1064.05
1698.66
1879.33
830.517
336.393
120.741
46.2489
43.7601
55.7843
41.3159
24.8104
12.549
5.12899
1.50407
0.210269
0.00389499
7.42125e-05
5.51292e-05
5.21393e-05
4.98259e-05
4.77815e-05
4.6008e-05
4.45973e-05
4.35918e-05
4.30399e-05
4.2908e-05
4.30385e-05
4.33891e-05
4.40426e-05
4.4942e-05
4.67056e-05
5.28084e-05
8.20729e-05
0.000258442
0.00128702
0.00554913
0.0174651
0.0417005
0.081189
0.136757
0.207744
0.292738
0.390051
0.498118
0.615703
0.741954
0.876507
1.01922
1.17089
1.33257
1.50538
1.68968
1.8833
2.07687
2.24181
254.955
180.88
297.792
512.685
918.909
1771.57
3249.54
2142.97
772.467
263.545
80.1029
33.9963
47.6031
51.0589
34.2965
18.7301
8.35626
2.83065
0.533795
0.0209123
0.0001158
5.52734e-05
5.19913e-05
4.96163e-05
4.76357e-05
4.58103e-05
4.42123e-05
4.29734e-05
4.21162e-05
4.15889e-05
4.13166e-05
4.13027e-05
4.15197e-05
4.18603e-05
4.22588e-05
4.27814e-05
4.33954e-05
4.39927e-05
4.51295e-05
4.90881e-05
6.69736e-05
0.000168758
0.000786971
0.00366456
0.0126192
0.0320798
0.0648081
0.111498
0.171667
0.244451
0.329163
0.425462
0.533447
0.653602
0.786592
0.932554
1.09086
1.25734
1.4205
1.55344
301.385
234.256
405.855
728.721
1380.38
2825.08
4561.4
1949.14
613.112
179.161
48.1007
28.4647
50.8474
46.4722
27.8137
13.5164
5.29725
1.36361
0.122663
0.000743498
5.71893e-05
5.21509e-05
4.97763e-05
4.7687e-05
4.5879e-05
4.42364e-05
4.28439e-05
4.17796e-05
4.09956e-05
4.04421e-05
4.01162e-05
4.00421e-05
4.01362e-05
4.03314e-05
4.06341e-05
4.10086e-05
4.13607e-05
4.16812e-05
4.20567e-05
4.24667e-05
4.28899e-05
4.38918e-05
4.76204e-05
6.46736e-05
0.000162326
0.000765771
0.00365087
0.0126063
0.0315591
0.0626217
0.106472
0.163327
0.233475
0.317386
0.415437
0.527666
0.652346
0.784174
0.910405
1.0034
330.624
299.802
534.064
949.303
1693.34
2984.73
4915.66
1359.89
394.35
103.331
28.1161
27.9888
52.9114
40.2123
21.958
9.56363
3.13691
0.532808
0.0143648
8.51904e-05
5.29845e-05
5.01414e-05
4.79512e-05
4.60895e-05
4.44763e-05
4.3011e-05
4.1786e-05
4.08315e-05
4.0092e-05
3.95534e-05
3.92261e-05
3.90995e-05
3.91032e-05
3.92191e-05
3.9434e-05
3.9684e-05
3.99437e-05
4.02308e-05
4.05292e-05
4.07882e-05
4.10394e-05
4.13758e-05
4.18365e-05
4.26493e-05
4.49902e-05
5.36638e-05
9.48069e-05
0.000331687
0.0016343
0.00665502
0.0192486
0.0423135
0.0774636
0.125677
0.18747
0.26258
0.348811
0.439979
0.521707
0.561145
337.622
308.674
522.322
814.404
1326.29
2292.33
1946.68
706.809
210.386
52.2998
18.4632
30.7342
51.6473
33.478
16.5221
6.49922
1.6804
0.151471
0.000842685
5.51203e-05
5.06944e-05
4.84879e-05
4.64973e-05
4.48051e-05
4.33341e-05
4.20234e-05
4.09376e-05
4.007e-05
3.93782e-05
3.88699e-05
3.85486e-05
3.83866e-05
3.83358e-05
3.83907e-05
3.85228e-05
3.8693e-05
3.89076e-05
3.91478e-05
3.93679e-05
3.95804e-05
3.98314e-05
4.01173e-05
4.04239e-05
4.08553e-05
4.15638e-05
4.28465e-05
4.59176e-05
5.56259e-05
9.52708e-05
0.000295845
0.00133497
0.00539515
0.0159065
0.0356317
0.0659569
0.106864
0.156114
0.207257
0.245581
0.239149
370.835
276.885
428.99
618.284
934.376
1355.07
875.761
328.725
100.687
25.4739
15.2504
35.3474
47.0319
28.1762
12.3793
4.18433
0.772108
0.0266928
0.000101186
5.20865e-05
4.92686e-05
4.71659e-05
4.53102e-05
4.37396e-05
4.24009e-05
4.122e-05
4.02378e-05
3.94498e-05
3.88158e-05
3.83384e-05
3.80189e-05
3.78338e-05
3.77494e-05
3.77563e-05
3.78305e-05
3.79548e-05
3.81292e-05
3.83097e-05
3.84821e-05
3.8683e-05
3.89109e-05
3.9141e-05
3.94102e-05
3.97818e-05
4.0285e-05
4.10034e-05
4.2152e-05
4.42241e-05
4.88138e-05
6.19118e-05
0.000110621
0.000334814
0.0013898
0.00517473
0.0142676
0.0299005
0.0507793
0.0719265
0.0825628
0.064353
347.512
256.724
335.292
473.778
673.593
805.928
408.313
158.578
47.3058
13.6974
15.4209
41.9711
40.4823
22.016
8.94397
2.49606
0.281473
0.00254455
5.72794e-05
5.02235e-05
4.79822e-05
4.60517e-05
4.43396e-05
4.2879e-05
4.16388e-05
4.05546e-05
3.96639e-05
3.89451e-05
3.83655e-05
3.79212e-05
3.76089e-05
3.74117e-05
3.73009e-05
3.72708e-05
3.73081e-05
3.73952e-05
3.75201e-05
3.76569e-05
3.7811e-05
3.79931e-05
3.81829e-05
3.83839e-05
3.86309e-05
3.8946e-05
3.93567e-05
3.99211e-05
4.07089e-05
4.18595e-05
4.36665e-05
4.67598e-05
5.29076e-05
6.81354e-05
0.000116418
0.000303766
0.00104463
0.00327241
0.00753915
0.0122358
0.0131278
0.00652186
311.252
217.74
275.897
393.675
525.236
490.958
220.126
80.1553
22.4503
9.29932
17.4192
44.2526
35.5657
16.9276
6.10436
1.31428
0.0718352
0.000205567
5.16124e-05
4.88819e-05
4.68056e-05
4.50085e-05
4.34431e-05
4.21061e-05
4.09669e-05
3.99928e-05
3.91933e-05
3.85392e-05
3.8008e-05
3.75956e-05
3.72944e-05
3.7091e-05
3.69635e-05
3.69074e-05
3.6913e-05
3.6965e-05
3.70533e-05
3.71604e-05
3.72873e-05
3.74372e-05
3.76024e-05
3.77879e-05
3.80054e-05
3.82719e-05
3.8619e-05
3.90806e-05
3.96985e-05
4.05581e-05
4.17756e-05
4.3532e-05
4.61694e-05
5.02939e-05
5.70977e-05
6.95711e-05
9.48823e-05
0.000148886
0.00025144
0.000357951
0.000307817
0.000135089
277.498
175.89
235.485
346.658
459.683
301.138
123.384
39.9395
11.138
8.30335
20.8392
44.1272
29.0694
12.705
3.91544
0.573468
0.010671
6.7796e-05
4.9891e-05
4.7523e-05
4.56138e-05
4.399e-05
4.2558e-05
4.13494e-05
4.03348e-05
3.94822e-05
3.87775e-05
3.81927e-05
3.77136e-05
3.73361e-05
3.7051e-05
3.68486e-05
3.67143e-05
3.66421e-05
3.66221e-05
3.66468e-05
3.67094e-05
3.67899e-05
3.68864e-05
3.70067e-05
3.71485e-05
3.73105e-05
3.7498e-05
3.77275e-05
3.80204e-05
3.83968e-05
3.88918e-05
3.95621e-05
4.04795e-05
4.17482e-05
4.35178e-05
4.59999e-05
4.95259e-05
5.44572e-05
6.10047e-05
6.91153e-05
7.7741e-05
8.39885e-05
8.35449e-05
7.29581e-05
206.499
141.108
202.938
315.282
376.855
178.178
65.1907
18.5285
6.52211
9.00031
25.5795
39.6725
22.6273
8.84195
2.24116
0.187194
0.000863554
5.2051e-05
4.85024e-05
4.6433e-05
4.46292e-05
4.3095e-05
4.17537e-05
4.06469e-05
3.97426e-05
3.89954e-05
3.83781e-05
3.78599e-05
3.74329e-05
3.7097e-05
3.68382e-05
3.66475e-05
3.65172e-05
3.64397e-05
3.64049e-05
3.64118e-05
3.6454e-05
3.6512e-05
3.65861e-05
3.66841e-05
3.68019e-05
3.69365e-05
3.70945e-05
3.72893e-05
3.75343e-05
3.78422e-05
3.82371e-05
3.8757e-05
3.94546e-05
4.03922e-05
4.16616e-05
4.33923e-05
4.57216e-05
4.8799e-05
5.27711e-05
5.75461e-05
6.24512e-05
6.60258e-05
6.62919e-05
6.13419e-05
140.701
112.23
175.185
277.501
239.307
96.1836
30.1165
8.47468
5.16181
10.7838
31.5144
33.723
17.1838
5.77983
1.08123
0.038496
0.000107374
5.01436e-05
4.75726e-05
4.54985e-05
4.38403e-05
4.24203e-05
4.11543e-05
4.01158e-05
3.92869e-05
3.86081e-05
3.80449e-05
3.75752e-05
3.71909e-05
3.68902e-05
3.66564e-05
3.64792e-05
3.63549e-05
3.62763e-05
3.62337e-05
3.62288e-05
3.62564e-05
3.62982e-05
3.6355e-05
3.64353e-05
3.65353e-05
3.6649e-05
3.67806e-05
3.69419e-05
3.71428e-05
3.73927e-05
3.7706e-05
3.81076e-05
3.86319e-05
3.93219e-05
4.02364e-05
4.14399e-05
4.30122e-05
4.50493e-05
4.75961e-05
5.05609e-05
5.36094e-05
5.60526e-05
5.69144e-05
5.49475e-05
93.9396
89.602
161.786
254.249
126.547
43.9522
12.5294
4.71771
5.33728
13.5393
36.2919
27.116
11.6772
3.3221
0.395633
0.00401117
5.6963e-05
4.8775e-05
4.66357e-05
4.47058e-05
4.31486e-05
4.182e-05
4.06492e-05
3.97002e-05
3.89522e-05
3.83381e-05
3.78227e-05
3.73957e-05
3.70479e-05
3.67735e-05
3.65557e-05
3.63852e-05
3.62626e-05
3.618e-05
3.61281e-05
3.61111e-05
3.61243e-05
3.61505e-05
3.61902e-05
3.62526e-05
3.63342e-05
3.64284e-05
3.65377e-05
3.66701e-05
3.6832e-05
3.70303e-05
3.72754e-05
3.75836e-05
3.79767e-05
3.84795e-05
3.91266e-05
3.9963e-05
4.10343e-05
4.23752e-05
4.40036e-05
4.58925e-05
4.79016e-05
4.9701e-05
5.08321e-05
5.06083e-05
67.9474
79.491
164.195
162.181
59.363
17.8929
5.66923
3.73055
6.37996
17.6311
34.9136
20.847
7.46533
1.60048
0.0925634
0.000264352
5.11736e-05
4.79721e-05
4.57258e-05
4.38762e-05
4.24405e-05
4.1205e-05
4.01308e-05
3.92744e-05
3.86113e-05
3.80701e-05
3.76163e-05
3.72427e-05
3.69378e-05
3.66956e-05
3.65006e-05
3.63442e-05
3.62304e-05
3.615e-05
3.60939e-05
3.60684e-05
3.6069e-05
3.60802e-05
3.61036e-05
3.61478e-05
3.62087e-05
3.628e-05
3.63645e-05
3.64686e-05
3.65959e-05
3.67495e-05
3.69359e-05
3.7166e-05
3.74541e-05
3.78167e-05
3.82737e-05
3.88463e-05
3.95556e-05
4.04226e-05
4.14574e-05
4.26421e-05
4.39177e-05
4.51845e-05
4.63863e-05
4.73275e-05
64.054
99.7856
230.281
81.8866
24.6248
7.32198
3.38474
3.93302
8.178
22.7327
29.013
14.9232
4.18453
0.575052
0.010809
7.21022e-05
5.00545e-05
4.71404e-05
4.49676e-05
4.32249e-05
4.18687e-05
4.07038e-05
3.97118e-05
3.89305e-05
3.83314e-05
3.78418e-05
3.74334e-05
3.71009e-05
3.68308e-05
3.6617e-05
3.64456e-05
3.63076e-05
3.62064e-05
3.61328e-05
3.60795e-05
3.60523e-05
3.60464e-05
3.60489e-05
3.60623e-05
3.60937e-05
3.61388e-05
3.61915e-05
3.62537e-05
3.63309e-05
3.64257e-05
3.65397e-05
3.66763e-05
3.68419e-05
3.7045e-05
3.72958e-05
3.76059e-05
3.79883e-05
3.84546e-05
3.90122e-05
3.96616e-05
4.03959e-05
4.12064e-05
4.21119e-05
4.3301e-05
4.49942e-05
162.401
330.27
115.444
30.9282
8.63674
3.39508
2.89759
4.9018
10.8709
27.8363
22.1125
9.75683
2.01456
0.134745
0.000661851
5.66384e-05
4.95126e-05
4.66168e-05
4.44479e-05
4.27805e-05
4.14841e-05
4.03751e-05
3.94436e-05
3.87161e-05
3.81634e-05
3.77151e-05
3.7344e-05
3.70422e-05
3.67976e-05
3.66051e-05
3.64503e-05
3.63232e-05
3.62276e-05
3.61549e-05
3.61003e-05
3.60691e-05
3.60559e-05
3.60506e-05
3.60551e-05
3.60743e-05
3.61046e-05
3.61418e-05
3.61868e-05
3.62424e-05
3.63098e-05
3.63895e-05
3.64843e-05
3.65977e-05
3.67341e-05
3.6899e-05
3.70992e-05
3.7341e-05
3.76301e-05
3.79697e-05
3.83591e-05
3.87956e-05
3.92881e-05
3.99118e-05
4.10124e-05
4.31757e-05
47.0543
63.7325
19.3176
6.47801
2.96587
2.32778
3.35936
6.71227
14.971
25.6762
16.4659
6.11667
0.858261
0.0198271
0.000129665
5.44651e-05
4.8816e-05
4.59885e-05
4.39523e-05
4.23894e-05
4.11536e-05
4.01148e-05
3.92559e-05
3.85862e-05
3.80793e-05
3.76716e-05
3.73345e-05
3.70604e-05
3.68389e-05
3.66658e-05
3.6526e-05
3.641e-05
3.63216e-05
3.62534e-05
3.62e-05
3.61652e-05
3.61449e-05
3.61309e-05
3.61248e-05
3.61297e-05
3.61428e-05
3.61613e-05
3.61856e-05
3.62176e-05
3.62579e-05
3.63064e-05
3.6364e-05
3.64324e-05
3.65141e-05
3.66117e-05
3.6728e-05
3.68664e-05
3.70293e-05
3.72181e-05
3.74315e-05
3.76682e-05
3.79425e-05
3.83469e-05
3.93113e-05
4.17445e-05
4.93899e-05
6.42011e-05
8.36759e-05
0.000111732
0.000153786
0.000218467
0.000319287
0.000477333
0.000724712
0.00110904
0.00170161
0.00261544
0.00404704
0.00638048
0.0104707
0.0184608
0.0362289
0.0811215
0.214397
0.87687
4.85444e-05
6.11966e-05
7.77617e-05
0.000101864
0.000138584
0.000196329
0.000288886
0.000438894
0.0006828
0.0010779
0.00171438
0.00274
0.00441623
0.00726011
0.0124463
0.0230574
0.0481766
0.115917
0.316176
1.26273
4.77178e-05
5.8241e-05
7.19618e-05
9.20973e-05
0.000123168
0.000172875
0.000254352
0.000390146
0.000618427
0.00100247
0.00164675
0.00272798
0.00456262
0.00777212
0.0137424
0.0260265
0.0546841
0.128047
0.322216
0.818146
4.69391e-05
5.54471e-05
6.65127e-05
8.28924e-05
0.000108422
0.000149764
0.000218606
0.000335742
0.000537859
0.000888608
0.00149759
0.00255578
0.00440783
0.00771765
0.0138984
0.0263356
0.0538263
0.118525
0.266586
0.567192
4.62304e-05
5.29011e-05
6.15902e-05
7.45906e-05
9.50276e-05
0.000128374
0.000184397
0.000280893
0.000450209
0.000750446
0.00128509
0.00223903
0.00394833
0.00704663
0.0128093
0.0240373
0.0472807
0.0971809
0.199809
0.392274
4.56067e-05
5.06576e-05
5.72961e-05
6.7387e-05
8.33974e-05
0.000109634
0.00015382
0.000230181
0.000365008
0.000606504
0.00104243
0.00183239
0.00326807
0.00589016
0.0107322
0.0198707
0.0376424
0.0727339
0.139558
0.255457
4.50762e-05
4.87431e-05
5.3667e-05
6.13431e-05
7.36813e-05
9.39686e-05
0.00012805
0.000186669
0.000289714
0.000473849
0.000806249
0.00140968
0.00250833
0.00451152
0.00816991
0.0148796
0.0272656
0.0500765
0.0906804
0.157201
4.46413e-05
4.71611e-05
5.069e-05
5.64196e-05
6.5825e-05
8.13769e-05
0.000107377
0.00015161
0.00022831
0.000363442
0.00060408
0.00103519
0.00180953
0.00319967
0.00568672
0.010111
0.017919
0.031491
0.0542722
0.0900096
4.43013e-05
4.58985e-05
4.8315e-05
5.25082e-05
5.96404e-05
7.15732e-05
9.14421e-05
0.000124769
0.000181396
0.000278848
0.000448095
0.000743404
0.00125889
0.00215521
0.00370061
0.00633254
0.0107456
0.0179917
0.029495
0.046766
4.40528e-05
4.49283e-05
4.64643e-05
4.94614e-05
5.48765e-05
6.41367e-05
7.95532e-05
0.00010505
0.000147361
0.000218061
0.000336934
0.0005374
0.000874708
0.00143676
0.00235608
0.0038236
0.00610903
0.00958693
0.0147333
0.0220135
4.38918e-05
4.42043e-05
4.50318e-05
4.7122e-05
5.12915e-05
5.86512e-05
7.09564e-05
9.10598e-05
0.000123609
0.00017624
0.000261525
0.000400156
0.000625674
0.000988768
0.00155368
0.00238944
0.00356782
0.00518374
0.00737889
0.0102842
4.40341e-05
4.37177e-05
4.41228e-05
4.58121e-05
4.94469e-05
5.59129e-05
6.65835e-05
8.35316e-05
0.000109909
0.000150657
0.000213604
0.00031167
0.000468485
0.000729118
0.00114636
0.00179692
0.00283566
0.00471363
0.00879976
0.018309
0.000515028
9.01771e-05
0.000143099
0.000197291
0.00024759
0.00029616
0.000350489
0.000422717
0.000543598
0.000835523
0.00152312
0.00311882
0.00623634
0.012026
0.0219603
0.0374615
0.0612936