/*--------------------------------*- C++ -*----------------------------------*\
| =========                 |                                                 |
| \\      /  F ield         | OpenFOAM: The Open Source CFD Toolbox           |
|  \\    /   O peration     | Version:  v1912                                 |
|   \\  /    A nd           | Website:  www.openfoam.com                      |
|    \\/     M anipulation  |                                                 |
\*---------------------------------------------------------------------------*/
FoamFile
{
    version     2.0;
    format      ascii;
    class       volScalarField;
    location    "48";
    object      k;
}
// * * * * * * * * * * * * * * * * * * * * * * * * * * * * * * * * * * * * * //

dimensions      [0 2 -2 0 0 0 0];


internalField   nonuniform List<scalar> 
20320
(
0.00413913
0.00425419
0.00433119
0.00440669
0.00448014
0.00455098
0.00461856
0.00468207
0.00474052
0.00479281
0.00483775
0.00487394
0.00489971
0.00491322
0.00491238
0.0048941
0.00485181
0.00476899
0.00459771
0.00414499
0.00415117
0.00414941
0.00419487
0.00429167
0.00446043
0.00472161
0.00509323
0.00559174
0.00623254
0.00702757
0.00798668
0.00911883
0.0104297
0.0119207
0.0135819
0.0153769
0.017184
0.0186933
0.0191998
0.0174577
0.00417775
0.0042174
0.00430431
0.00444384
0.00466185
0.00499006
0.0054685
0.00614623
0.00708064
0.00833463
0.00996763
0.0120233
0.0145203
0.0174418
0.0207207
0.0242123
0.0276282
0.0303776
0.0311356
0.0273342
0.00421524
0.00431998
0.00447459
0.00468096
0.00496501
0.00535946
0.00590741
0.00666712
0.00771718
0.0091594
0.0111156
0.0137112
0.0170419
0.0211307
0.0258875
0.031065
0.036181
0.0403152
0.0415035
0.0358272
0.0042616
0.00445103
0.00469418
0.00498777
0.00535718
0.00583497
0.00646476
0.00730671
0.00844483
0.00999596
0.0121177
0.0150054
0.0188593
0.0238095
0.0298111
0.0365434
0.0433139
0.0488477
0.0505603
0.0434745
0.0043149
0.00460804
0.00496035
0.00536345
0.00584132
0.00642557
0.00715922
0.00810245
0.00934017
0.0109931
0.0132332
0.0162959
0.0204673
0.0260097
0.0330002
0.0411202
0.0494772
0.0563898
0.0586336
0.0504844
0.00437312
0.00478594
0.00526552
0.0057989
0.00640774
0.00712175
0.00798246
0.00904916
0.0104063
0.012175
0.0145322
0.0177327
0.0221191
0.0280708
0.0358234
0.045145
0.0550008
0.0632715
0.0660359
0.0570677
0.00443394
0.00497843
0.00560015
0.00628239
0.00704388
0.00791147
0.00892416
0.0101394
0.0116404
0.0135471
0.0160375
0.0193761
0.0239399
0.0301987
0.0385473
0.0488984
0.0601523
0.0697591
0.073046
0.06337
0.0044947
0.00517786
0.00595186
0.00679795
0.00773167
0.00877648
0.00996794
0.0113608
0.0130356
0.0151103
0.0177623
0.0212606
0.0260034
0.0325273
0.0413704
0.0526187
0.0651772
0.0761002
0.0799218
0.0695912
0.00455246
0.00537513
0.00630537
0.007325
0.008447
0.00969152
0.0110903
0.0126943
0.0145809
0.016864
0.019719
0.0234168
0.0283696
0.0351635
0.0444602
0.0565278
0.0703281
0.082553
0.0868981
0.0759396
0.00460414
0.00556008
0.00664293
0.00783877
0.00915976
0.0106239
0.0122595
0.0141136
0.0162589
0.0188045
0.0219212
0.0258802
0.0311029
0.0382143
0.0479818
0.0608546
0.0758898
0.0894487
0.0943321
0.0825978
0.00464677
0.00572211
0.00694535
0.00831148
0.00983487
0.011534
0.0134354
0.0155831
0.0180449
0.0209232
0.024383
0.0286932
0.0342822
0.0418065
0.0521272
0.0658686
0.0822073
0.0971877
0.102623
0.089848
0.00467778
0.00585115
0.00719375
0.00871462
0.0104346
0.0123769
0.0145702
0.0170579
0.0199043
0.0232048
0.0271171
0.0319065
0.0380068
0.0461038
0.057146
0.0719297
0.0897666
0.106374
0.112412
0.0981584
0.00469528
0.00593883
0.00737158
0.00902165
0.0109216
0.0131052
0.0156091
0.018482
0.0217886
0.0256202
0.0301276
0.035573
0.0423975
0.0513187
0.0633754
0.0795419
0.0992757
0.117911
0.124655
0.108179
0.00469836
0.00597952
0.00746671
0.00921115
0.0112624
0.0136721
0.0164933
0.0197886
0.0236326
0.0281195
0.0333994
0.0397369
0.0475888
0.0577186
0.0712771
0.0894476
0.11186
0.133369
0.141187
0.121197
0.00468721
0.00597126
0.00747334
0.00926992
0.0114322
0.0140368
0.0171635
0.0209018
0.0253506
0.0306228
0.0368823
0.0444124
0.0537083
0.0656169
0.0814635
0.102734
0.12932
0.155418
0.165176
0.139416
0.0046631
0.00591602
0.00739287
0.00919504
0.011418
0.0141695
0.0175666
0.021741
0.0268369
0.0330109
0.0404695
0.0495481
0.0608287
0.0753236
0.0946819
0.120952
0.154613
0.18912
0.203472
0.168117
0.00462821
0.00581948
0.00723385
0.00899462
0.0112215
0.0140565
0.0176623
0.0222286
0.0279696
0.0351201
0.0439736
0.0549756
0.068881
0.0870195
0.111672
0.146078
0.19239
0.244178
0.271674
0.220377
0.0045853
0.00569015
0.00701071
0.00868689
0.0108594
0.0137037
0.0174317
0.0223029
0.0286249
0.0367501
0.047116
0.06036
0.0775368
0.100531
0.132777
0.179979
0.248883
0.338204
0.408663
0.342003
0.00453734
0.00553813
0.00674163
0.00829761
0.0103619
0.0131378
0.0168836
0.0219319
0.0286988
0.0376884
0.0495408
0.065175
0.0860922
0.115013
0.157204
0.222766
0.328767
0.494473
0.699256
0.726365
0.551189
0.949388
1.15799
1.29154
1.43988
1.55039
1.95419
2.84226
4.17885
5.89208
8.107
11.0689
14.7642
21.2707
30.3351
37.5224
42.2496
46.7459
45.1779
48.645
51.5072
52.1233
43.5716
35.446
29.8883
26.0718
23.3095
21.4917
20.2391
18.9657
17.9586
17.7592
18.703
20.4233
22.3603
25.5341
31.3022
42.1769
58.6774
54.3816
47.4214
40.7458
36.1465
34.5134
30.023
33.2594
22.7594
10.9243
6.964
5.47903
5.01055
4.9614
5.01453
5.0459
5.03775
5.00442
4.96064
4.91621
4.87724
4.84775
0.879347
2.34293
3.01555
3.49891
4.01462
4.68182
6.01238
8.54546
12.3659
17.43
24.1331
33.3238
46.3881
66.5384
93.1115
117.398
129.064
131.016
151.014
125.655
111.094
89.7223
75.5259
64.2556
56.1927
50.3401
45.77
41.8342
38.32
35.5412
34.1919
34.7641
36.5996
38.6178
40.8474
43.9228
48.7256
56.9265
67.9738
69.4378
69.158
66.5916
65.222
61.1958
51.408
38.4831
21.4855
13.2116
10.0596
9.50255
9.98497
10.5772
10.9546
11.1171
11.1431
11.1006
11.0318
10.9608
10.9015
10.8627
1.2419
3.06951
4.01771
4.77577
5.6456
6.81314
8.79022
12.2614
17.509
24.6794
34.4404
48.2435
68.821
101.038
145.749
190.121
204.33
178.14
148.788
123.68
104.717
89.8414
77.5644
67.6051
59.7952
53.7458
49.0036
45.2293
42.3032
40.3252
39.3902
39.3293
39.686
40.0187
40.3349
40.7076
41.1305
41.9027
43.1969
44.6749
46.0419
47.3436
49.4056
49.2725
44.2105
31.9574
21.3884
15.4893
13.5703
13.7105
14.3727
14.9071
15.1994
15.3041
15.2973
15.2363
15.1568
15.0798
15.0185
14.9808
1.6168
3.96547
5.11864
6.13977
7.41613
9.19691
11.9449
16.4326
23.204
32.7051
46.041
65.5345
95.8371
145.421
220.212
299.603
225.787
165.349
132.088
111.198
96.0475
84.0532
74.0056
65.5629
58.6559
53.1313
48.7411
45.2479
42.5335
40.5809
39.3229
38.5428
37.9635
37.3541
36.6643
35.8609
34.8422
33.7366
32.8942
32.6189
32.9651
33.7326
35.6527
39.0401
37.4404
26.8836
19.5987
17.1053
17.1536
17.9332
18.6381
19.078
19.2849
19.3398
19.3122
19.2494
19.1797
19.1194
19.0784
19.0624
2.01799
4.97436
6.38804
7.70159
9.43269
11.9442
15.6664
21.3423
29.8465
42.0691
59.7878
86.6533
130.154
203.694
335.137
264.621
185.234
140.104
113.474
96.4981
84.5328
75.1399
67.2561
60.5616
54.9941
50.4688
46.8358
43.9223
41.6186
39.8767
38.6241
37.7234
37.0336
36.4352
35.8376
35.1343
34.1446
32.75
30.9881
29.0183
27.1958
25.8927
25.2435
25.0792
23.4042
20.8033
19.9352
20.5794
21.6648
22.6095
23.2403
23.5774
23.7067
23.7171
23.6736
23.6164
23.5674
23.5371
23.5309
23.5506
2.45391
6.08997
7.81574
9.45472
11.6638
14.9715
19.863
27.0053
37.4987
52.8468
75.8595
112.241
173.747
279.223
289.834
201.506
147.896
116.1
96.1981
82.893
73.3972
66.0379
59.9707
54.8737
50.6447
47.1986
44.4406
42.2576
40.5638
39.3145
38.4553
37.8866
37.5062
37.2305
36.9738
36.6316
36.0662
35.1266
33.7225
31.8434
29.619
27.3987
25.5437
24.2605
23.6351
23.8306
24.7964
26.0867
27.2674
28.1226
28.616
28.8213
28.8493
28.7933
28.7162
28.6536
28.6208
28.6203
28.6513
28.71
2.90787
7.30811
9.38081
11.3706
14.0553
18.1517
24.3123
33.2247
46.064
65.007
94.2936
142.696
228.005
357.006
230.387
160.703
120.995
97.3666
82.1601
71.6558
64.0426
58.2352
53.6107
49.8468
46.7969
44.3485
42.4522
41.0528
40.0556
39.4214
39.1688
39.1347
39.1966
39.2736
39.3143
39.2727
39.076
38.6292
37.8672
36.6911
35.1088
33.3302
31.7511
30.6889
30.3844
30.8815
31.9498
33.1988
34.2684
34.956
35.2415
35.2376
35.1065
34.9322
34.7731
34.6709
34.6308
34.6431
34.6988
34.7869
3.37964
8.60329
11.0608
13.4205
16.5669
21.3925
28.8048
39.6815
55.328
78.4445
115.074
177.942
292.271
281.096
186.625
132.847
102.018
83.4341
71.3133
62.8664
56.7531
52.2087
48.772
46.1511
44.1891
42.7398
41.7295
41.0952
40.7529
40.6335
40.7776
41.1873
41.6614
42.1402
42.5391
42.8186
42.9404
42.9153
42.7657
42.436
41.7605
40.8087
39.8899
39.3108
39.3107
39.9621
41.085
42.3171
43.2694
43.71
43.6683
43.2799
42.7828
42.242
41.8638
41.6576
41.5696
41.5624
41.6163
41.7119
3.89466
9.9598
12.8447
15.5913
19.1868
24.6677
33.2252
46.1008
64.9526
93.0656
138.325
217.869
345.523
223.81
153.286
112.15
87.8559
72.8475
63.023
56.2596
51.4472
48.0058
45.663
43.9971
42.7942
41.8911
41.2374
41.0233
41.0775
41.3976
42.1083
42.9424
43.778
44.6249
45.4311
46.1633
46.8202
47.4371
48.1283
48.8925
49.5061
49.8009
49.8485
50.0222
50.5744
51.559
52.9196
54.2495
54.9411
53.9869
51.8758
49.9559
48.3741
47.2627
46.5406
46.1764
46.021
45.9835
46.0235
46.1093
4.43143
11.3941
14.7441
17.9046
21.9492
28.03
37.5919
52.3475
74.5797
108.62
164.811
263.912
271.868
180.837
127.753
96.0904
76.7583
64.6382
56.8546
51.6472
47.9897
45.3952
43.436
42.0508
41.062
40.564
40.3
40.5504
40.9951
41.605
42.6017
43.6996
44.7402
45.7731
46.8159
47.8819
49.0163
50.3204
51.951
54.0273
56.7207
59.7362
62.0506
63.6394
65.2279
66.6986
68.0496
66.5467
62.5841
58.4363
55.0267
52.3412
50.5955
49.4543
48.6612
48.2219
48.0192
47.9553
47.9786
48.0489
4.97304
12.9133
16.7964
20.4277
24.9493
31.6251
42.0952
58.5459
83.9997
124.56
195.117
332.088
218.384
148.744
108.137
83.3436
67.8991
58.3884
52.6636
48.7853
45.6724
43.2444
41.3931
40.1417
39.3391
39.0502
39.0664
39.4938
40.0868
40.7637
41.6974
42.7384
43.7502
44.7722
45.8584
47.0578
48.4429
50.1249
52.2292
54.8692
58.2788
62.6446
67.2595
71.3348
74.0234
74.513
72.1721
67.5108
62.4254
58.0776
54.7115
52.2207
50.6495
49.6056
48.8743
48.4418
48.2285
48.1544
48.1702
48.232
5.51132
14.4958
19.0088
23.2365
28.355
35.7006
47.1122
65.1698
93.4113
140.014
226.785
264.173
175.947
124.18
92.8117
73.1016
60.935
53.9917
50.1494
46.8664
43.8969
41.3866
39.4307
38.1254
37.3601
37.0739
37.1057
37.4344
37.8933
38.4035
39.0681
39.8447
40.6642
41.5558
42.5702
43.7565
45.1777
46.9127
49.032
51.5981
54.7919
58.6618
62.4905
66.011
68.1386
67.8033
65.618
62.2168
58.4228
55.0618
52.3926
50.4386
49.1576
48.2778
47.6628
47.2878
47.0988
47.0376
47.0628
47.1309
6.08755
16.1321
21.3695
26.3478
32.3013
40.5585
53.1677
73.0669
103.805
154.316
259.206
204.005
143.494
105.296
80.633
64.8888
55.7887
51.4881
48.548
45.2314
41.9784
39.2077
37.0763
35.627
34.7387
34.2788
34.1033
34.1446
34.2983
34.5179
34.8663
35.3543
35.9655
36.7188
37.64
38.7541
40.0952
41.7012
43.5956
45.7985
48.4105
51.3476
54.0759
56.4934
57.9975
58.0414
57.0702
55.2507
52.965
50.7569
48.9092
47.5178
46.5508
45.8668
45.3935
45.1079
44.9735
44.9507
45.0072
45.0999
6.68459
17.8222
23.8513
29.7151
36.7621
46.3815
60.7059
83.3031
117.067
169.096
220.07
162.649
120.273
90.8429
70.847
58.4881
52.468
50.2157
47.0977
43.0639
39.343
36.2921
33.9801
32.3478
31.2445
30.5141
30.0296
29.7266
29.5526
29.4977
29.6078
29.9081
30.3988
31.0805
31.9489
33.0003
34.24
35.6752
37.3024
39.1213
41.1747
43.3568
45.3514
47.1088
48.4177
49.0269
48.9996
48.3113
47.1588
45.8871
44.7397
43.8299
43.1631
42.6865
42.369
42.1946
42.14
42.1797
42.2889
42.4237
7.17385
19.5602
26.4396
33.2548
41.5625
52.9468
69.7343
96.6026
134.168
180.171
182.191
137.426
104.067
79.5832
62.9452
53.8355
51.0029
49.2083
45.0145
40.1607
35.909
32.5779
30.083
28.253
26.9067
25.8926
25.1105
24.5199
24.1096
23.8942
23.9063
24.1594
24.6429
25.3338
26.2041
27.2305
28.3997
29.7014
31.1222
32.6568
34.3219
36.0462
37.6693
39.1608
40.454
41.3875
41.8702
41.8464
41.4218
40.8098
40.1914
39.6701
39.2778
39.0079
38.8522
38.8026
38.8457
38.9662
39.1448
39.3354
7.25017
21.3141
29.1605
36.9444
46.5106
59.7418
79.3552
111.319
148.247
208.145
161.821
121.767
92.1243
70.3799
56.6227
50.9344
50.5029
47.3929
42.0355
36.4719
31.7917
28.2127
25.5388
23.5196
21.9549
20.7102
19.7177
18.9648
18.4645
18.2357
18.2881
18.6088
19.1654
19.9169
20.8233
21.8536
22.9866
24.2053
25.4957
26.8532
28.2841
29.7521
31.1828
32.5485
33.8063
34.8517
35.5557
35.8851
35.8998
35.7288
35.4966
35.2864
35.1379
35.064
35.0677
35.1472
35.2968
35.5083
35.7658
36.0195
7.47972
23.0683
32.1163
40.9356
51.6784
66.5618
88.5005
120.881
166.839
200.945
147.466
110.095
82.2123
62.4447
51.7636
49.8842
49.3048
44.527
38.1731
32.1081
27.164
23.417
20.603
18.439
16.7248
15.3495
14.2757
13.5099
13.0674
12.9479
13.129
13.5702
14.2227
15.0397
15.9813
17.0176
18.1264
19.2902
20.4963
21.7402
23.0238
24.3298
25.6227
26.8763
28.052
29.0851
29.8724
30.3853
30.6651
30.7896
30.8402
30.8782
30.9396
31.0422
31.194
31.3978
31.6535
31.9578
32.2964
32.6141
8.43084
25.121
35.5199
45.5473
57.5346
74.0952
98.2332
133.585
188.392
183.144
135.117
99.8672
73.0839
55.4667
48.4252
49.471
47.0083
40.7829
33.6745
27.3103
22.2551
18.4433
15.5693
13.3462
11.5898
10.215
9.205
8.5658
8.28895
8.33917
8.66479
9.21123
9.92851
10.7753
11.7198
12.7372
13.8081
14.9163
16.0495
17.2023
18.373
19.552
20.7203
21.8563
22.9285
23.8934
24.707
25.3247
25.7718
26.0987
26.3572
26.5896
26.8242
27.0777
27.3598
27.6762
28.0304
28.4226
28.8385
29.2162
9.99156
28.3067
39.823
51.237
64.737
83.3887
110.674
150.255
211.666
169.78
125.1
90.261
64.3081
49.5326
46.8001
48.2982
43.771
36.3903
28.8077
22.3357
17.3105
13.5549
10.7376
8.58084
6.92494
5.70376
4.8994
4.48708
4.41412
4.615
5.0305
5.61361
6.32766
7.14377
8.03926
8.99583
9.99746
11.0295
12.0799
13.1406
14.2074
15.2733
16.3263
17.3504
18.3238
19.2193
20.0118
20.6887
21.2511
21.719
22.1289
22.5093
22.8805
23.257
23.6506
24.0666
24.509
24.9784
25.4608
25.8899
11.9985
33.0297
45.8014
58.7058
74.0402
95.288
127.059
173.431
225.49
162.29
116.342
80.7174
55.8789
44.9504
46.6382
45.9007
39.6174
31.5296
23.7873
17.4055
12.5617
9.00813
6.40524
4.48684
3.12075
2.22754
1.74563
1.58767
1.66517
1.91822
2.31404
2.83192
3.45486
4.16683
4.95264
5.79831
6.69039
7.61589
8.5623
9.51999
10.4818
11.4409
12.3885
13.3134
14.2015
15.0365
15.8045
16.498
17.1197
17.6811
18.1985
18.6894
19.1684
19.6454
20.1284
20.6237
21.1374
21.6709
22.2088
22.6776
14.4162
39.3228
54.0225
68.8777
86.4177
110.742
147.676
203.397
216.673
155.665
107.539
70.7525
48.057
42.07
46.1431
42.5388
34.9307
26.4671
18.8182
12.7141
8.22145
5.06714
2.90904
1.48792
0.661938
0.292363
0.181041
0.182017
0.25211
0.395415
0.62622
0.954961
1.38369
1.90639
2.5127
3.19021
3.92606
4.70717
5.52099
6.3563
7.20379
8.05529
8.90229
9.73649
10.5482
11.3278
12.0672
12.762
13.4132
14.0262
14.6097
15.1727
15.7236
16.2696
16.8173
17.3734
17.9435
18.5286
19.1101
19.6083
17.11
47.1251
64.7489
82.5469
103.377
131.549
174.838
239.291
216.627
149.217
97.4367
60.183
41.3482
41.2325
44.1296
38.5062
29.9971
21.4434
14.0898
8.43715
4.57042
2.0925
0.676369
0.105999
0.0114539
0.00604411
0.00555742
0.00566823
0.00710075
0.0141999
0.0403623
0.11142
0.25733
0.498637
0.840754
1.27748
1.79668
2.38397
3.02491
3.70635
4.4168
5.14619
5.88565
6.62689
7.36112
8.08093
8.78111
9.45834
10.112
10.7442
11.3586
11.96
12.5534
13.1441
13.7373
14.3385
14.9518
15.5757
16.1879
16.7031
19.7033
56.0178
77.9885
100.445
126.656
160.313
210.558
291.344
214.878
141.089
85.4894
49.4318
36.3939
41.505
41.4579
34.0432
25.0436
16.6421
9.75369
4.90744
1.90169
0.398513
0.020999
0.00568554
0.00532294
0.0051369
0.00497473
0.0048568
0.00479036
0.00477129
0.00484737
0.00543995
0.00951141
0.0293963
0.0922881
0.229462
0.459503
0.783666
1.1919
1.6699
2.20319
2.77856
3.38457
4.01139
4.651
5.29588
5.94031
6.5783
7.20861
7.83137
8.44791
9.06057
9.67248
10.2873
10.9089
11.5407
12.1841
12.8333
13.4612
13.9791
22.6458
65.8304
93.7372
123.213
158.555
202.843
259.413
322.244
215.038
130.123
71.6584
39.4587
33.6378
41.6104
37.9793
29.4206
20.256
12.1921
6.14736
2.29007
0.410242
0.0138886
0.00549559
0.00524288
0.00506482
0.00490242
0.00476582
0.00466783
0.00460152
0.00456072
0.00455713
0.00458481
0.00463036
0.00473328
0.0051893
0.00821682
0.0240608
0.077365
0.197965
0.403285
0.69359
1.05867
1.485
1.95939
2.47044
3.0087
3.56653
4.13795
4.71932
5.30605
5.89844
6.4977
7.1057
7.7248
8.35722
9.00393
9.66229
10.3208
10.9465
11.4506
26.0803
77.0656
112.138
151.259
201.365
268.78
344.926
355.875
210.779
114.891
56.6324
31.4368
33.1275
40.3649
34.2192
24.8152
15.7317
8.38745
3.36578
0.695733
0.0241442
0.00546185
0.00520573
0.00502071
0.00486733
0.0047299
0.00460941
0.00451299
0.00444433
0.00440743
0.0044003
0.00441185
0.00443823
0.00448237
0.00452932
0.00457726
0.00466417
0.00497614
0.00690954
0.0176842
0.0577178
0.156093
0.332198
0.587919
0.913977
1.29779
1.72755
2.19345
2.68819
3.20697
3.74693
4.30721
4.88703
5.4878
6.10997
6.7516
7.40536
8.05314
8.65492
9.1246
29.7513
90.4057
134.155
185.903
256.42
364.506
505.626
380.357
196.24
94.683
41.9126
26.168
34.7657
37.967
30.0881
20.3463
11.699
5.32092
1.45371
0.0926502
0.00560519
0.00518678
0.00500051
0.00484325
0.00471025
0.00458623
0.00447661
0.00439119
0.00433228
0.0042967
0.00427942
0.00428084
0.00429902
0.00432625
0.00435763
0.00439729
0.00444113
0.00447425
0.00450623
0.00456971
0.00478518
0.00602114
0.0133044
0.0439624
0.127766
0.287168
0.524681
0.830537
1.19283
1.60178
2.05095
2.53656
3.05683
3.61041
4.19528
4.80487
5.42773
6.03851
6.58962
6.99691
33.403
106.494
161.977
229.058
327.167
486.267
629.433
358.551
166.455
71.5254
29.6746
23.6815
36.0607
35.529
25.9885
16.1278
8.30913
2.98539
0.415574
0.00848869
0.00516167
0.00500037
0.00484422
0.0047042
0.00458167
0.00446913
0.00437294
0.00429918
0.00424501
0.00420723
0.00418583
0.00418274
0.00419204
0.0042088
0.00423345
0.00426344
0.00429204
0.00431841
0.00434841
0.00437929
0.00440354
0.00443565
0.00451192
0.00477529
0.00617326
0.0142184
0.0485307
0.141138
0.311347
0.557378
0.869627
1.23949
1.66098
2.12947
2.63918
3.1812
3.73794
4.27749
4.74331
5.03878
35.6777
124.55
191.861
268.919
371.141
505.372
647.017
283.615
124.106
48.9186
21.2807
23.4208
36.81
32.1666
21.9835
12.5014
5.54273
1.38152
0.0631197
0.00530799
0.005036
0.00485931
0.00471294
0.00458704
0.00447685
0.00437582
0.00429078
0.00422437
0.00417306
0.00413607
0.00411435
0.00410731
0.00410992
0.00412081
0.00413904
0.00416003
0.00418188
0.00420584
0.0042308
0.00425313
0.0042749
0.00430219
0.00433509
0.00437763
0.00445985
0.00466796
0.00544239
0.00934136
0.028251
0.0910101
0.225153
0.436671
0.719153
1.06387
1.46088
1.89657
2.3482
2.77639
3.11061
3.21167
36.3322
128.304
193.16
252.117
330.825
446.407
380.491
190.753
82.7455
31.0089
16.6745
24.6546
36.2041
28.3768
17.9776
9.34049
3.37471
0.471725
0.00859922
0.00503373
0.00488659
0.00474027
0.00460611
0.00449086
0.00438976
0.00429894
0.0042233
0.00416278
0.00411465
0.00407964
0.00405819
0.00404842
0.00404692
0.00405326
0.00406536
0.00408043
0.00409887
0.00411932
0.00413849
0.00415729
0.00417907
0.00420355
0.00422951
0.00426352
0.00431314
0.00438611
0.00451426
0.004803
0.00570033
0.00950245
0.0265131
0.0828558
0.204989
0.398591
0.654242
0.954718
1.27263
1.56207
1.74113
1.64677
38.8401
121.015
174.495
220.024
278.781
336.953
240.358
120.926
51.4262
19.3237
14.8706
26.7381
33.9891
25.0752
14.5422
6.6502
1.78717
0.102216
0.00525764
0.00495654
0.00478404
0.004643
0.00451709
0.0044095
0.00431704
0.00423492
0.00416633
0.00411128
0.00406712
0.0040342
0.00401274
0.00400117
0.00399709
0.0039998
0.00400756
0.00401913
0.00403451
0.00405048
0.004066
0.00408378
0.00410372
0.00412402
0.00414734
0.00417824
0.00421841
0.00427233
0.00435017
0.00446847
0.00467034
0.00509029
0.00626821
0.0107265
0.0286256
0.0825638
0.190424
0.346522
0.524983
0.680707
0.739496
0.580558
37.338
115.987
152.463
191.889
235.087
249.483
152.486
76.1821
30.6132
12.8599
14.843
29.7588
30.7616
21.103
11.3929
4.42219
0.762873
0.0152717
0.00499922
0.0048381
0.00468989
0.00455947
0.00444267
0.00434217
0.00425619
0.00418059
0.0041183
0.00406805
0.00402769
0.00399705
0.00397602
0.00396347
0.00395734
0.00395722
0.00396216
0.00397088
0.00398251
0.00399514
0.00400916
0.00402539
0.00404236
0.00406033
0.00408185
0.00410858
0.00414247
0.00418752
0.00424812
0.00433209
0.00445354
0.00463498
0.00492487
0.00545901
0.00671164
0.0105854
0.0235274
0.0565238
0.110146
0.160621
0.164782
0.0871848
34.8291
104.563
136.468
172.808
201.523
181.193
101.007
46.8503
17.569
9.94512
15.9063
30.7883
28.0731
17.478
8.52051
2.63652
0.231981
0.00553297
0.00488929
0.00474209
0.00460273
0.00448059
0.00437323
0.00428083
0.00420162
0.00413357
0.00407763
0.00403192
0.00399496
0.00396656
0.00394626
0.00393316
0.00392571
0.00392359
0.00392609
0.00393212
0.00394093
0.00395125
0.00396313
0.00397685
0.00399183
0.00400845
0.00402761
0.00405056
0.00407963
0.00411726
0.00416642
0.00423295
0.0043243
0.00445089
0.0046302
0.00488658
0.00525378
0.00580179
0.00666197
0.00807967
0.0102882
0.012257
0.0111234
0.0074466
32.4017
90.5634
122.716
156.851
178.169
126.999
65.1052
26.8575
10.263
9.19018
17.7965
30.7216
24.3844
14.1302
6.03157
1.32872
0.0439669
0.00498232
0.00479802
0.00464358
0.0045143
0.0044032
0.00430444
0.00422056
0.0041498
0.00409018
0.00404088
0.00400005
0.00396679
0.00394086
0.00392167
0.00390858
0.00390055
0.00389715
0.00389767
0.00390158
0.00390839
0.00391662
0.00392614
0.00393753
0.00395063
0.00396534
0.00398209
0.00400209
0.00402693
0.00405811
0.00409815
0.00415114
0.00422205
0.0043179
0.00444815
0.00462519
0.00486651
0.00518637
0.00558267
0.00603262
0.00646332
0.00672852
0.00662407
0.00593442
26.7277
77.1149
108.488
140.441
146.511
83.7415
38.2692
14.0371
7.01051
9.66927
20.3195
28.7112
20.4459
10.7952
3.87973
0.511939
0.00804863
0.00482864
0.00470165
0.00456252
0.00443961
0.00433409
0.00424113
0.004164
0.00410076
0.00404847
0.00400531
0.00396919
0.00393961
0.00391664
0.00389931
0.00388701
0.00387919
0.00387531
0.00387466
0.00387716
0.00388236
0.00388881
0.00389655
0.00390615
0.00391733
0.00392987
0.00394426
0.0039615
0.00398258
0.00400846
0.00404091
0.00408268
0.00413753
0.00420981
0.00430573
0.00443364
0.00460149
0.0048164
0.00508228
0.00538364
0.00566577
0.00582827
0.00574892
0.0053182
20.7867
64.1649
93.4194
118.905
99.3508
49.3719
19.3793
7.40975
6.13023
10.9075
23.2828
25.7012
16.7294
7.80521
2.15324
0.128165
0.00504332
0.00479121
0.00463225
0.00449171
0.00437808
0.00428
0.00419196
0.00411938
0.00406133
0.0040138
0.00397443
0.00394175
0.00391521
0.00389475
0.00387919
0.00386781
0.00386037
0.00385633
0.00385501
0.00385655
0.00386057
0.00386572
0.00387205
0.00388022
0.00388994
0.00390077
0.00391305
0.00392762
0.00394525
0.00396661
0.00399279
0.00402561
0.00406754
0.00412166
0.00419203
0.00428297
0.00439945
0.00454675
0.00472509
0.00492293
0.00510899
0.00522572
0.00519907
0.00494928
15.9482
52.3624
80.0247
97.5556
56.5858
24.2116
8.86274
4.9981
6.42422
12.7124
25.6519
22.1308
12.6597
5.08217
0.933769
0.0194831
0.00485745
0.0047049
0.00456186
0.00443027
0.00432309
0.00423097
0.0041493
0.00408285
0.00403042
0.00398744
0.00395147
0.00392182
0.0038979
0.00387932
0.00386489
0.00385396
0.00384659
0.0038422
0.00384013
0.0038407
0.00384356
0.00384745
0.00385242
0.00385913
0.00386737
0.00387662
0.00388708
0.00389934
0.00391389
0.00393124
0.00395215
0.00397783
0.00400986
0.00405003
0.00410078
0.00416522
0.00424633
0.00434596
0.00446408
0.0045958
0.00472499
0.00481704
0.00482429
0.00469084
12.9066
43.8263
68.4103
59.835
27.0681
10.2506
4.81236
4.60848
7.3347
15.1874
25.1269
18.3697
9.06368
2.84655
0.267456
0.00559494
0.00481265
0.00464515
0.00449304
0.00436622
0.00426688
0.00418084
0.00410566
0.00404556
0.00399906
0.0039612
0.00392959
0.00390376
0.00388291
0.00386664
0.00385383
0.00384389
0.00383711
0.00383283
0.00383039
0.00383025
0.0038321
0.0038348
0.00383846
0.00384373
0.00385031
0.00385774
0.00386622
0.00387623
0.00388805
0.0039019
0.00391826
0.00393795
0.00396199
0.0039916
0.00402818
0.00407324
0.00412817
0.00419425
0.00427164
0.00435753
0.00444358
0.00451232
0.0045397
0.00449095
12.4617
41.4598
63.1715
28.5628
11.0464
4.89851
3.84986
5.04397
8.706
18.0161
22.2906
14.4616
5.84709
1.23582
0.04154
0.00497862
0.0047684
0.00458235
0.00443427
0.00431419
0.00421996
0.00413857
0.00406894
0.00401401
0.00397197
0.00393774
0.00390934
0.00388643
0.00386807
0.00385382
0.0038427
0.00383405
0.00382814
0.0038243
0.00382199
0.00382166
0.00382295
0.00382492
0.00382775
0.00383198
0.00383727
0.0038432
0.0038499
0.00385778
0.00386704
0.00387779
0.00389028
0.00390499
0.00392254
0.00394366
0.0039692
0.00400009
0.0040371
0.0040807
0.00413068
0.00418585
0.00424307
0.00429545
0.00433543
0.00434682
23.2865
63.5944
28.7821
10.7321
4.82152
3.53153
3.98381
5.93825
10.5497
20.6993
18.5618
10.6426
3.32013
0.362229
0.00698706
0.0049469
0.00473043
0.00453983
0.00439155
0.00427627
0.00418594
0.00410828
0.00404279
0.00399158
0.00395279
0.00392148
0.00389572
0.003875
0.00385845
0.00384572
0.00383577
0.00382788
0.00382233
0.00381851
0.00381605
0.00381535
0.00381604
0.00381735
0.00381943
0.00382266
0.00382677
0.00383144
0.00383675
0.0038429
0.00384998
0.00385804
0.00386727
0.00387793
0.00389034
0.00390491
0.00392212
0.00394242
0.00396621
0.00399367
0.00402469
0.00405878
0.00409524
0.00413362
0.00417903
0.00423309
10.239
14.0938
6.73233
4.10839
3.37506
3.4932
4.56735
7.31519
13.0731
19.6704
14.9935
7.48301
1.66658
0.0678051
0.00516892
0.00494665
0.00467932
0.00449014
0.00435034
0.00424194
0.00415563
0.00408275
0.00402229
0.00397514
0.00393957
0.00391113
0.00388779
0.00386904
0.00385413
0.00384277
0.00383387
0.00382675
0.00382168
0.00381813
0.00381571
0.00381469
0.00381478
0.00381538
0.00381661
0.00381869
0.00382144
0.00382463
0.00382831
0.0038326
0.00383755
0.00384316
0.00384949
0.00385666
0.00386485
0.00387425
0.00388506
0.0038975
0.00391176
0.00392792
0.00394583
0.00396534
0.00398688
0.00401338
0.00405886
0.00414269
0.00448721
0.00537378
0.00644603
0.0078564
0.00976832
0.0124034
0.0160566
0.0211255
0.0281345
0.0377552
0.0508703
0.0687501
0.093453
0.128733
0.182166
0.269869
0.425384
0.710642
1.21879
2.11685
0.00443598
0.00520481
0.00613861
0.00738675
0.00911223
0.0115437
0.0149975
0.019918
0.0269199
0.0368317
0.0507839
0.0704201
0.098377
0.139412
0.203188
0.311077
0.510478
0.891927
1.57084
2.8847
0.00438531
0.00503493
0.00582802
0.00690519
0.00842139
0.0105999
0.01376
0.018366
0.0250865
0.0348641
0.0490328
0.0695573
0.0995481
0.144448
0.21494
0.33394
0.55008
0.947523
1.61563
2.43059
0.00433703
0.00487083
0.00552711
0.00643374
0.00773181
0.00962855
0.0124275
0.0165818
0.0227641
0.031958
0.0456002
0.0658373
0.0960246
0.141791
0.213508
0.331865
0.537539
0.895128
1.4523
2.11986
0.00429263
0.00471809
0.00524685
0.0059916
0.00707604
0.00868387
0.0110883
0.0147037
0.020157
0.0283875
0.0408002
0.0595232
0.0878566
0.131121
0.198435
0.306415
0.484928
0.777777
1.21576
1.77415
0.00425319
0.00458084
0.00499513
0.00559291
0.0064793
0.00781081
0.00982167
0.0128695
0.0174991
0.0245341
0.035221
0.0514632
0.0762019
0.114045
0.172401
0.263557
0.407575
0.632214
0.960342
1.38437
0.00421937
0.00446163
0.00477662
0.00524603
0.00595737
0.00704005
0.00868704
0.0111922
0.0150015
0.0207857
0.0295536
0.0428387
0.0629939
0.0936339
0.140303
0.211504
0.31993
0.482277
0.713656
1.01439
0.00419145
0.0043616
0.00459307
0.00495399
0.00551686
0.0063868
0.00771833
0.00974413
0.0128128
0.0174401
0.0243844
0.0347694
0.0502789
0.0734346
0.107966
0.159273
0.234868
0.344162
0.496079
0.693504
0.0041695
0.00428073
0.00444363
0.00471522
0.00515652
0.00585268
0.00692554
0.00855494
0.0110052
0.0146586
0.0200598
0.0279824
0.039527
0.0562534
0.0803368
0.114741
0.163363
0.230915
0.321998
0.438912
0.00415338
0.00421793
0.0043252
0.00452464
0.00486965
0.00542974
0.00630109
0.00762154
0.00958781
0.0124776
0.0166769
0.0227141
0.0312959
0.0433276
0.0598997
0.0822839
0.111996
0.150856
0.20073
0.262607
0.00414289
0.00417064
0.00423223
0.0043753
0.00464765
0.00510606
0.00582771
0.0069188
0.00852377
0.0108402
0.0141392
0.018792
0.0252972
0.03425
0.0461539
0.0612768
0.0797361
0.101841
0.128112
0.157692
0.00414336
0.00413596
0.00416252
0.00426611
0.00448476
0.00486298
0.00545977
0.00634902
0.00762378
0.00940611
0.0118564
0.0151981
0.019787
0.0260672
0.0340128
0.0428719
0.0519206
0.0616973
0.0756316
0.101315
0.00935119
0.00465743
0.00513163
0.00559214
0.00602113
0.00644934
0.00693399
0.00755005
0.00844394
0.0100838
0.0131562
0.0191328
0.0300465
0.0495649
0.0812311
0.127568
0.192534
0.292473
0.424984
0.591266
0.0559893
0.0394444
0.0469158
0.0533142
0.0618264
0.0745191
0.0930804
0.119447
0.156503
0.208738
0.283168
0.358758
0.398282
0.462067
0.570805
0.732043
0.991884
1.37871
1.44129
2.14582
0.0145535
0.0222146
0.0355367
0.0585006
0.0905221
0.131666
0.181861
0.237996
0.30134
0.366396
0.411456
0.441229
0.826542
0.775936
0.682982
0.606244
0.562615
0.524586
0.503981
0.74482
0.00965378
0.00863183
0.00491378
0.00497418
0.00531079
0.00595778
0.00689103
0.00804947
0.00934306
0.0106211
0.0118467
0.017434
0.0613688
0.1014
0.108545
0.0943507
0.0691711
0.0423127
0.0247566
0.0271072
0.00631173
0.00904003
0.00462407
0.00407542
0.00399913
0.00403688
0.00411603
0.00419998
0.00425796
0.00427835
0.00434699
0.00467282
0.00510061
0.00607632
0.00705349
0.0074455
0.00726448
0.00682256
0.00613687
0.00613678
0.00617665
0.0094855
0.00452369
0.00390898
0.00378965
0.00378944
0.00383508
0.00389035
0.00393359
0.00395689
0.00398156
0.00405866
0.00425107
0.00450686
0.0048108
0.00514231
0.00541244
0.00552422
0.0054787
0.00551213
0.00656327
0.00973178
0.00454193
0.00387504
0.00375025
0.00374105
0.00377566
0.00382374
0.00387111
0.00391392
0.00395938
0.00402762
0.00414598
0.00431732
0.00452986
0.00475242
0.00493691
0.00504687
0.0050972
0.00514071
0.00715894
0.00945179
0.00457172
0.0039073
0.0037841
0.00377301
0.00380085
0.00384203
0.003887
0.00393378
0.00398617
0.00405274
0.00414407
0.00426434
0.00440633
0.00455328
0.00468369
0.0047826
0.00485161
0.00490315
0.00783247
0.00869757
0.00453365
0.00395811
0.00384844
0.00383737
0.00385781
0.00388977
0.003927
0.00396836
0.00401577
0.00407324