/*--------------------------------*- C++ -*----------------------------------*\
| =========                 |                                                 |
| \\      /  F ield         | OpenFOAM: The Open Source CFD Toolbox           |
|  \\    /   O peration     | Version:  v1912                                 |
|   \\  /    A nd           | Website:  www.openfoam.com                      |
|    \\/     M anipulation  |                                                 |
\*---------------------------------------------------------------------------*/
FoamFile
{
    version     2.0;
    format      ascii;
    class       volScalarField;
    location    "48";
    object      nut;
}
// * * * * * * * * * * * * * * * * * * * * * * * * * * * * * * * * * * * * * //

dimensions      [0 2 -1 0 0 0 0];


internalField   nonuniform List<scalar> 
20320
(
0.0347182
0.00759858
0.00766703
0.00773357
0.00779775
0.00785916
0.0079173
0.00797154
0.00802114
0.00806526
0.00810299
0.00813324
0.00815471
0.00816595
0.00816525
0.00815005
0.00811475
0.0080452
0.00789941
0.00750042
0.0352324
0.0352741
0.035448
0.0356822
0.0359603
0.0362496
0.0365107
0.0367185
0.0368724
0.0369822
0.0370617
0.0371243
0.037171
0.0371885
0.0371431
0.0369687
0.0365008
0.0353727
0.03274
0.0240128
0.0353555
0.0356355
0.0361382
0.0368843
0.0379755
0.0395126
0.0415836
0.0442361
0.047444
0.0510825
0.0549174
0.0586258
0.0618523
0.0642642
0.0655816
0.0655818
0.0640522
0.0606198
0.0540184
0.0355579
0.0355267
0.0361112
0.036922
0.0379618
0.039332
0.0411468
0.0435357
0.0466407
0.0506011
0.0555121
0.0613525
0.0678957
0.0746415
0.0808328
0.0855702
0.0879759
0.087315
0.0828958
0.0728787
0.0445489
0.0357349
0.0367054
0.0379038
0.0393062
0.0410057
0.0431102
0.0457481
0.0490743
0.0532716
0.0585393
0.0650517
0.0728564
0.0817035
0.0908642
0.0990767
0.104723
0.106179
0.101985
0.0893409
0.0517388
0.0359691
0.0373978
0.0390521
0.0408846
0.0429773
0.0454286
0.0483595
0.0519223
0.0563066
0.0617425
0.0684916
0.0767883
0.0866758
0.0977141
0.10867
0.11746
0.121537
0.118342
0.103694
0.0575663
0.036219
0.0381572
0.0403162
0.0426294
0.0451666
0.0480146
0.0512853
0.0551248
0.0597207
0.0653108
0.0721907
0.0806941
0.0910772
0.103219
0.116139
0.127609
0.134334
0.13254
0.116332
0.0624232
0.0364733
0.0389503
0.0416422
0.0444705
0.0474919
0.0507811
0.0544384
0.0586014
0.0634524
0.0692281
0.0762372
0.084864
0.0955009
0.108293
0.12258
0.136213
0.145384
0.145137
0.127668
0.0665947
0.0367203
0.0397416
0.0429732
0.046333
0.0498662
0.0536347
0.0577261
0.0622667
0.06743
0.0734466
0.0806275
0.089383
0.100191
0.113397
0.128653
0.144011
0.155354
0.156649
0.138101
0.0703499
0.0369487
0.0404952
0.0442506
0.0481395
0.0521984
0.0564778
0.0610512
0.0660316
0.0715797
0.0779142
0.0853411
0.094282
0.105268
0.118794
0.134786
0.151551
0.164809
0.167565
0.148017
0.0739436
0.0371477
0.0411762
0.0454169
0.0498132
0.054397
0.0592101
0.0643129
0.069803
0.075824
0.0825772
0.0903554
0.0995809
0.110817
0.124669
0.141295
0.159273
0.17426
0.178397
0.157875
0.077558
0.037308
0.0417528
0.0464194
0.0512813
0.0563728
0.0617318
0.0674078
0.0734826
0.08008
0.0873777
0.0956471
0.1053
0.116919
0.131186
0.148461
0.167583
0.184207
0.189678
0.168158
0.0814437
0.0374224
0.0421987
0.0472126
0.0524797
0.058044
0.0639466
0.0702314
0.0769672
0.0842568
0.0922495
0.101188
0.111463
0.12366
0.138523
0.15658
0.176922
0.19523
0.20208
0.179523
0.0859387
0.0374861
0.0424944
0.047762
0.053356
0.0593391
0.0657646
0.0726792
0.0801452
0.088248
0.0971075
0.10693
0.11808
0.131132
0.146877
0.165991
0.187809
0.208049
0.216477
0.192835
0.0914953
0.0374973
0.0426285
0.0480453
0.053873
0.0602012
0.067106
0.0746489
0.0828969
0.0919275
0.101836
0.112794
0.125131
0.139409
0.156455
0.17709
0.2009
0.223648
0.234188
0.209536
0.0988572
0.0374568
0.0425985
0.0480546
0.0540116
0.0605927
0.0679073
0.0760456
0.0850961
0.0951454
0.10628
0.118643
0.132535
0.148509
0.167439
0.19031
0.217005
0.243371
0.257155
0.231835
0.109308
0.0373685
0.0424108
0.0477967
0.0537723
0.0604983
0.0681259
0.0767886
0.0866162
0.0977291
0.11023
0.12426
0.140107
0.158338
0.179907
0.206036
0.237045
0.26903
0.288435
0.263731
0.125491
0.0372388
0.0420803
0.0472928
0.0531758
0.059928
0.0677471
0.0768211
0.0873413
0.0994917
0.113428
0.129327
0.147508
0.168592
0.193689
0.224407
0.261815
0.302766
0.332543
0.312316
0.153075
0.037076
0.0416295
0.0465768
0.052262
0.0589181
0.0667888
0.0761216
0.0871847
0.100254
0.115582
0.133432
0.154211
0.178669
0.20818
0.244963
0.291378
0.346146
0.394664
0.388795
0.205663
0.03689
0.0410863
0.0456929
0.0510869
0.0575295
0.065304
0.0747141
0.0861093
0.0998768
0.116404
0.136097
0.159517
0.187619
0.222154
0.266188
0.324004
0.397757
0.475482
0.500193
0.300745
0.0374011
0.0284184
0.0313926
0.0331585
0.0350331
0.0363658
0.0408106
0.049194
0.0596366
0.0708009
0.0830313
0.0970089
0.112088
0.134537
0.160805
0.178912
0.189824
0.199514
0.198113
0.20188
0.208418
0.211874
0.194601
0.174742
0.15992
0.148887
0.140423
0.134379
0.130346
0.126119
0.122485
0.121128
0.123719
0.129195
0.134793
0.143189
0.157342
0.18062
0.219307
0.214595
0.20068
0.185914
0.17475
0.170294
0.159538
0.168374
0.144933
0.0993893
0.0782519
0.0687153
0.065272
0.0648015
0.0651649
0.065427
0.065425
0.0652382
0.0649693
0.0646869
0.0644341
0.0642394
0.0474635
0.404437
0.562278
0.649936
0.718824
0.778888
0.860995
0.992364
1.14607
1.2991
1.457
1.63302
1.84567
2.13021
2.43463
2.66465
2.76357
2.73405
2.67463
2.32547
2.09632
1.80544
1.59829
1.43965
1.29656
1.17542
1.056
0.931603
0.816727
0.732155
0.692732
0.705759
0.747773
0.780066
0.792298
0.792791
0.785399
0.771839
0.773575
0.765674
0.760049
0.778785
0.820666
0.808051
0.599166
0.438816
0.236554
0.208891
0.230554
0.327932
0.492942
0.66159
0.780488
0.848921
0.886871
0.910263
0.927565
0.942728
0.957646
0.973252
0.0566702
0.577142
0.891442
1.06743
1.18505
1.27754
1.3875
1.55684
1.76475
1.97504
2.18415
2.41231
2.68553
3.02826
3.41033
3.72234
3.84907
3.6774
3.3917
3.06661
2.79837
2.56719
2.36995
2.1998
2.03447
1.85351
1.65245
1.44817
1.26677
1.13538
1.06227
1.03624
1.0345
1.03254
1.01941
0.994727
0.958434
0.916476
0.884524
0.868153
0.862328
0.878078
0.899246
0.831983
0.65837
0.491141
0.380524
0.363609
0.466367
0.702746
1.00878
1.28277
1.47464
1.59325
1.6664
1.71627
1.75555
1.79059
1.82463
1.85917
0.0649631
0.725631
1.11245
1.33489
1.48161
1.60099
1.73763
1.927
2.15632
2.393
2.63262
2.89854
3.21833
3.61911
4.08044
4.47167
4.09222
3.76461
3.54477
3.33351
3.12541
2.93586
2.77108
2.62864
2.49
2.32991
2.13778
1.92887
1.72941
1.56801
1.461
1.4032
1.37611
1.35882
1.33675
1.29914
1.23291
1.1327
1.01713
0.916948
0.851387
0.816568
0.79247
0.746193
0.647759
0.516472
0.479752
0.602113
0.892613
1.27816
1.64774
1.9337
2.12753
2.25241
2.33549
2.39641
2.44673
2.49256
2.5372
2.582
0.0729011
0.871095
1.30832
1.55694
1.72575
1.87336
2.04191
2.25238
2.49807
2.75656
3.02849
3.33907
3.71534
4.19684
4.80232
4.44713
3.99178
3.73277
3.57156
3.43009
3.2828
3.13823
3.01041
2.90384
2.80671
2.69724
2.56118
2.4056
2.24901
2.11321
2.01887
1.97011
1.95472
1.95547
1.95465
1.93199
1.86158
1.72135
1.51552
1.27584
1.05133
0.885366
0.771462
0.691222
0.638075
0.661292
0.839026
1.18132
1.60895
2.02075
2.35398
2.59421
2.75693
2.86693
2.94549
3.00722
3.06085
3.11117
3.16088
3.21073
0.0807587
1.01532
1.49927
1.76979
1.95849
2.13349
2.3354
2.57295
2.83851
3.12058
3.42758
3.78773
4.23161
4.79891
4.82049
4.27671
3.93067
3.73086
3.60073
3.49225
3.38482
3.27914
3.18644
3.11378
3.05564
2.99725
2.92566
2.84297
2.75903
2.68629
2.64283
2.63403
2.64905
2.6744
2.69442
2.69015
2.63975
2.52075
2.3259
2.06625
1.7716
1.49556
1.29029
1.17946
1.19204
1.35864
1.67313
2.07201
2.46799
2.80135
3.05322
3.23196
3.35661
3.44634
3.51556
3.57413
3.62802
3.68054
3.73356
3.78696
0.0883286
1.15848
1.68893
1.98296
2.19106
2.38984
2.62297
2.89253
3.18462
3.49262
3.83212
4.23997
4.76358
5.34901
4.65272
4.19678
3.92975
3.76984
3.65729
3.56439
3.48078
3.4055
3.34437
3.30227
3.277
3.26029
3.24301
3.22616
3.21185
3.20333
3.21434
3.24543
3.28476
3.32318
3.35049
3.35499
3.32477
3.24737
3.11683
2.93339
2.70918
2.47534
2.29066
2.20113
2.24079
2.41714
2.69488
3.00892
3.29834
3.53155
3.70528
3.83122
3.92468
3.99738
4.05807
4.11364
4.16792
4.22292
4.27971
4.33714
0.0956821
1.29637
1.87659
2.19752
2.42571
2.64376
2.9027
3.20521
3.52999
3.86724
4.23737
4.69357
5.31281
5.16339
4.54847
4.17431
3.95933
3.82344
3.72339
3.64304
3.57793
3.52782
3.49538
3.48174
3.48521
3.50132
3.52224
3.54911
3.58042
3.61283
3.65525
3.70864
3.76175
3.80915
3.84367
3.85871
3.84811
3.80822
3.73959
3.64448
3.52488
3.39433
3.28821
3.24467
3.28918
3.4239
3.6213
3.83749
4.03383
4.19146
4.31054
4.39995
4.4713
4.52932
4.58276
4.63645
4.69207
4.75042
4.81186
4.87404
0.103191
1.4256
2.06045
2.41131
2.66128
2.89559
3.17333
3.50508
3.86505
4.23683
4.64569
5.1661
5.76435
5.00957
4.49149
4.1804
3.99081
3.8655
3.77664
3.71078
3.66294
3.63393
3.62558
3.63308
3.65451
3.68702
3.7248
3.77362
3.82612
3.88018
3.94366
4.00978
4.07219
4.12929
4.17654
4.20929
4.22418
4.22006
4.20145
4.17398
4.14145
4.10643
4.0788
4.08434
4.14019
4.24726
4.39412
4.55259
4.69413
4.78977
4.84583
4.89224
4.93296
4.97621
5.02106
5.07241
5.12951
5.19145
5.25765
5.32425
0.110593
1.54872
2.23853
2.6205
2.89363
3.14358
3.43444
3.78916
4.18243
4.59114
5.05104
5.66388
5.59574
4.90378
4.46326
4.18313
3.99791
3.87774
3.80259
3.75217
3.71797
3.70145
3.69918
3.71423
3.7425
3.78683
3.83602
3.89883
3.96289
4.02716
4.10178
4.17785
4.24913
4.31607
4.3766
4.42776
4.46775
4.49741
4.52186
4.54787
4.58674
4.64062
4.69189
4.74727
4.83036
4.93636
5.06554
5.15305
5.18536
5.20113
5.21982
5.23863
5.26955
5.30925
5.35162
5.40251
5.46162
5.52728
5.59805
5.66852
0.117718
1.6693
2.41114
2.82066
3.11572
3.38171
3.68364
4.05668
4.48082
4.92528
5.44709
6.14799
5.41172
4.82409
4.43106
4.15268
3.96348
3.85378
3.79806
3.75832
3.72576
3.70845
3.70771
3.72649
3.75923
3.80814
3.8641
3.93108
3.99982
4.06844
4.14562
4.22616
4.30394
4.3788
4.45011
4.51642
4.57711
4.63384
4.69067
4.75346
4.83333
4.94067
5.05893
5.17619
5.29076
5.38302
5.43939
5.45202
5.44808
5.44881
5.45771
5.47188
5.50189
5.54169
5.58633
5.63983
5.70238
5.77234
5.84772
5.92172
0.124555
1.78487
2.57638
3.00857
3.31996
3.60083
3.91454
4.30577
4.76293
5.2502
5.84213
5.99965
5.25559
4.74813
4.36053
4.0689
3.88585
3.8007
3.76585
3.72654
3.69032
3.66685
3.66077
3.67554
3.70698
3.7532
3.8079
3.87098
3.93669
4.00338
4.0772
4.15657
4.23708
4.31764
4.39775
4.47655
4.55377
4.63064
4.70977
4.79524
4.89532
5.01849
5.14802
5.27776
5.39313
5.46828
5.51746
5.54867
5.56385
5.57608
5.59051
5.61102
5.64521
5.68875
5.73869
5.7973
5.86476
5.93969
6.01983
6.09697
0.131532
1.89407
2.73203
3.18276
3.50293
3.79472
4.12081
4.5324
5.02775
5.56783
6.25732
5.75018
5.1367
4.63831
4.22438
3.93082
3.78062
3.73786
3.71063
3.66273
3.61371
3.57798
3.56102
3.56497
3.58622
3.62091
3.66437
3.71511
3.77021
3.82938
3.8969
3.97307
4.05511
4.14127
4.23045
4.32143
4.41349
4.50699
4.60325
4.70471
4.81622
4.94219
5.07076
5.19806
5.31155
5.39815
5.47401
5.53629
5.57865
5.60938
5.63701
5.66926
5.71167
5.76219
5.81954
5.88493
5.95842
6.03885
6.12369
6.20343
0.13853
1.99533
2.87614
3.344
3.66841
3.96538
4.30481
4.73807
5.26993
5.85138
6.2151
5.57751
4.9845
4.44744
4.0177
3.76059
3.67356
3.67262
3.63402
3.56128
3.49165
3.43792
3.40426
3.39052
3.39295
3.4075
3.43099
3.46279
3.50273
3.55214
3.61418
3.68928
3.77511
3.86924
3.96957
4.07402
4.18114
4.29053
4.40266
4.51886
4.64131
4.77129
4.90212
5.03169
5.15324
5.26205
5.36401
5.45063
5.5159
5.56609
5.61048
5.65717
5.71052
5.77029
5.83637
5.90951
5.98968
6.07587
6.1652
6.24682
0.144255
2.0863
3.00745
3.49391
3.82322
4.12276
4.47611
4.93947
5.48449
5.97191
5.94825
5.34364
4.72685
4.16808
3.76954
3.59418
3.59085
3.60048
3.52784
3.42133
3.32207
3.24347
3.18632
3.14772
3.12369
3.11125
3.10942
3.11977
3.14474
3.18675
3.24764
3.32661
3.42064
3.52623
3.6402
3.75961
3.88246
4.00781
4.13569
4.26677
4.40199
4.54101
4.68009
4.81843
4.9534
5.08178
5.20197
5.30585
5.3897
5.45855
5.52045
5.58229
5.64784
5.71807
5.79357
5.87494
5.96211
6.05411
6.14762
6.23039
0.145748
2.16354
3.12506
3.63373
3.97196
4.27313
4.63897
5.14324
5.59393
6.05315
5.64138
5.02312
4.38672
3.84414
3.52657
3.46249
3.52811
3.50239
3.38666
3.24088
3.10568
2.99459
2.90607
2.83521
2.77841
2.73475
2.70628
2.69731
2.712
2.75259
2.81874
2.9075
3.01434
3.13462
3.2641
3.39931
3.53807
3.67922
3.82247
3.96822
4.1169
4.26782
4.4187
4.56896
4.71725
4.86016
4.99267
5.10935
5.20849
5.29405
5.37231
5.44876
5.52677
5.60792
5.69313
5.78293
5.87729
5.97515
6.0726
6.15608
0.148786
2.22194
3.2301
3.76451
4.11512
4.41533
4.77698
5.24134
5.68615
5.97724
5.34733
4.67721
4.02028
3.52448
3.32484
3.38203
3.45019
3.37096
3.2068
3.01823
2.84268
2.69229
2.56465
2.45484
2.36089
2.28484
2.23219
2.20955
2.22132
2.26773
2.34532
2.44861
2.5715
2.70829
2.85412
3.00534
3.15977
3.31625
3.47432
3.63405
3.79569
3.95864
4.12138
4.28301
4.44193
4.59478
4.73654
4.86328
4.97502
5.07497
5.16788
5.25803
5.34835
5.44055
5.53561
5.63405
5.73588
5.83988
5.94143
6.02562
0.158821
2.2636
3.32861
3.88935
4.25251
4.54761
4.88368
5.3012
5.80866
5.70662
5.04433
4.31737
3.65216
3.23839
3.18007
3.32626
3.34284
3.20469
2.98864
2.75406
2.53395
2.33826
2.16514
2.01165
1.87877
1.77215
1.70059
1.67179
1.68818
1.74622
1.83901
1.95887
2.09857
2.25181
2.41357
2.58022
2.74961
2.9206
3.09253
3.2652
3.43859
3.61213
3.7847
3.95507
4.12139
4.28068
4.42958
4.56526
4.688
4.80069
4.90698
5.01018
5.11267
5.21603
5.32121
5.42879
5.53872
5.64962
5.75597
5.84141
0.173864
2.36136
3.43961
4.0175
4.39116
4.67941
4.99275
5.38688
5.86373
5.45856
4.72104
3.94304
3.29462
3.005
3.09414
3.25657
3.20452
3.0046
2.73489
2.45111
2.18196
1.93594
1.71333
1.51442
1.34407
1.21172
1.12882
1.10191
1.12872
1.20096
1.30886
1.4436
1.59766
1.76487
1.94037
2.1206
2.30327
2.48706
2.67117
2.85507
3.03841
3.22059
3.40062
3.57724
3.74876
3.91293
4.06756
4.21144
4.34495
4.46989
4.58912
4.70516
4.81997
4.93485
5.05084
5.16857
5.28793
5.407
5.51919
5.60678
0.191599
2.52943
3.59529
4.16602
4.54573
4.8303
5.1225
5.50808
5.87512
5.19732
4.38565
3.56407
2.96489
2.83838
3.05693
3.15519
3.03058
2.77099
2.44803
2.11258
1.79048
1.49114
1.21902
0.978102
0.777963
0.63155
0.550417
0.534931
0.574592
0.657208
0.773135
0.914769
1.07569
1.2504
1.43433
1.62387
1.81633
2.00992
2.20345
2.39614
2.58732
2.77627
2.96205
3.1436
3.31964
3.48869
3.64956
3.80169
3.94561
4.08273
4.21489
4.344
4.47172
4.59934
4.72776
4.85739
4.98778
5.11637
5.23537
5.32571
0.211179
2.74919
3.80919
4.3581
4.73203
5.01974
5.29395
5.66056
5.70851
4.94359
4.0445
3.18599
2.68308
2.74064
3.01637
3.0227
2.82536
2.50697
2.13088
1.74168
1.36442
1.01385
0.701989
0.439161
0.243016
0.131975
0.0941357
0.0990202
0.133621
0.197495
0.291498
0.414017
0.560958
0.726981
0.906928
1.09629
1.29138
1.4893
1.68799
1.88609
2.08263
2.27665
2.46723
2.65348
2.83442
3.00919
3.1772
3.33831
3.49304
3.64245
3.78795
3.931
4.0729
4.21469
4.35704
4.50012
4.64302
4.78229
4.9088
5.00227
0.231406
3.00693
4.07723
4.60405
4.95867
5.24626
5.49847
5.84462
5.54202
4.66125
3.67883
2.81061
2.46922
2.70414
2.93851
2.86109
2.59348
2.21708
1.78705
1.34214
0.916142
0.535507
0.22942
0.051058
0.0120644
0.0206402
0.0258921
0.021266
0.0144521
0.0154711
0.0316854
0.0735425
0.149958
0.262038
0.404353
0.569293
0.74974
0.93987
1.13529
1.33294
1.53079
1.72729
1.9214
2.11216
2.29863
2.48007
2.65621
2.8271
2.99324
3.15547
3.31488
3.47256
3.62955
3.78666
3.94432
4.10226
4.25883
4.40942
4.54353
4.64006
0.249715
3.26544
4.38535
4.89926
5.22012
5.49402
5.7362
5.98587
5.33409
4.33894
3.27721
2.45154
2.33597
2.69628
2.83628
2.67264
2.3388
1.90517
1.41966
0.929221
0.481691
0.142876
0.0139664
0.0306314
0.0440641
0.0441528
0.0434053
0.0426727
0.0417622
0.0396294
0.0330339
0.0200297
0.0141555
0.0266248
0.0676713
0.147125
0.264814
0.412881
0.581829
0.763736
0.952923
1.14552
1.33897
1.53159
1.72232
1.91029
2.09514
2.27627
2.45412
2.62938
2.80291
2.97564
3.1484
3.32178
3.49582
3.66958
3.84033
4.00208
4.14301
4.24184
0.269285
3.51932
4.72168
5.24185
5.51998
5.74493
6.00116
6.03248
5.08912
3.95971
2.84
2.14155
2.27393
2.67987
2.70398
2.46251
2.06514
1.57411
1.04295
0.532638
0.140069
0.0106519
0.0384103
0.0445209
0.043853
0.0430936
0.0424445
0.0419782
0.0416644
0.0414613
0.0413758
0.0411848
0.0400516
0.0353546
0.0233471
0.0150081
0.0248566
0.0633164
0.14095
0.257532
0.404373
0.571352
0.750521
0.936472
1.12581
1.31643
1.50705
1.69696
1.88603
2.07392
2.26135
2.44912
2.63789
2.82793
3.0187
3.20832
3.39269
3.56422
3.71
3.80942
0.290757
3.78511
5.07637
5.63806
5.9156
6.11047
6.3036
6.06505
4.81446
3.53159
2.39065
1.92317
2.25705
2.62868
2.55074
2.23381
1.77494
1.23444
0.677871
0.207182
0.0134698
0.0361781
0.0442409
0.0435119
0.0427926
0.0421392
0.0415622
0.0411019
0.0407804
0.0406202
0.0406133
0.0407031
0.0408585
0.0410569
0.0410825
0.0403724
0.0370757
0.0271537
0.0166256
0.0218689
0.0540302
0.125556
0.238174
0.38316
0.549749
0.729662
0.917542
1.11014
1.30566
1.50335
1.703
1.90493
2.10895
2.31485
2.52133
2.72528
2.921
3.09924
3.24608
3.3425
0.312458
4.06672
5.43929
6.06684
6.43983
6.74984
7.08076
6.07588
4.4868
3.06148
1.97371
1.81281
2.28512
2.54088
2.37565
1.98917
1.47411
0.900181
0.356305
0.0369431
0.0244183
0.0438048
0.0432852
0.0425493
0.0419178
0.0413229
0.0407941
0.0403839
0.0401076
0.0399517
0.0398923
0.0399321
0.0400616
0.0402406
0.0404414
0.0406779
0.0409059
0.0409545
0.0404956
0.0382863
0.0307706
0.0193346
0.0202429
0.047466
0.116424
0.231356
0.3823
0.556792
0.745954
0.944624
1.15012
1.36105
1.5765
1.79491
2.0138
2.22809
2.43058
2.61005
2.7512
2.83635
0.33319
4.35712
5.81808
6.47999
6.97885
7.53291
7.81706
5.93613
4.0672
2.56992
1.64763
1.77318
2.30166
2.44465
2.18547
1.73194
1.17302
0.588238
0.126714
0.00872255
0.0419283
0.0431505
0.0424294
0.0417652
0.041179
0.0406359
0.0401699
0.0398152
0.0395606
0.0393913
0.0393084
0.0393231
0.0394055
0.0395291
0.0396954
0.0398923
0.0400851
0.0402672
0.040464
0.0406444
0.0406904
0.0403435
0.0384744
0.0317333
0.0211293
0.0237601
0.0580603
0.142214
0.276445
0.446495
0.639252
0.846584
1.06349
1.28587
1.50896
1.7261
1.92765
2.09995
2.22419
2.2773
0.346498
4.65689
6.20329
6.85618
7.3211
7.70124
7.66464
5.32351
3.51515
2.08431
1.44964
1.76385
2.30476
2.31576
1.98081
1.47073
0.881429
0.322395
0.0249616
0.0297654
0.0430789
0.0423834
0.0416895
0.0410871
0.0405563
0.0400665
0.0396537
0.0393343
0.0390925
0.0389256
0.0388391
0.0388317
0.0388773
0.0389682
0.0390996
0.0392481
0.0394038
0.0395722
0.0397484
0.0399139
0.0400768
0.04026
0.040428
0.0404398
0.0397892
0.0365439
0.0281178
0.0236774
0.0439519
0.112014
0.237027
0.405577
0.600879
0.810517
1.02456
1.23287
1.42273
1.57678
1.6692
1.65435
0.351881
4.79977
6.42893
7.02438
7.42676
7.82394
6.69325
4.6332
2.92897
1.65469
1.35531
1.77999
2.28408
2.16476
1.76052
1.20815
0.60996
0.132218
0.00789761
0.0413723
0.042393
0.0417077
0.0410661
0.040511
0.0400216
0.0395799
0.0392125
0.0389215
0.0386947
0.0385366
0.0384501
0.0384269
0.0384492
0.0385145
0.0386122
0.0387276
0.038863
0.039011
0.0391548
0.0392991
0.0394617
0.039641
0.0398276
0.0400433
0.0402823
0.0404097
0.0399427
0.0373242
0.0306961
0.0274694
0.0473906
0.114521
0.237755
0.401293
0.584062
0.767644
0.933693
1.05958
1.11099
1.02056
0.36612
4.76012
6.38793
7.04682
7.48595
7.54085
5.9371
4.00358
2.36396
1.31926
1.30503
1.82031
2.2107
2.0084
1.53747
0.951231
0.372304
0.0352277
0.0245869
0.0424497
0.0418083
0.041135
0.0405287
0.0400079
0.0395585
0.0391584
0.0388254
0.0385613
0.0383538
0.0382053
0.0381176
0.0380836
0.0380909
0.0381355
0.0382085
0.0383036
0.0384208
0.0385431
0.0386651
0.0388013
0.0389517
0.0391068
0.0392802
0.0394953
0.0397555
0.0400638
0.0404051
0.0406351
0.0402158
0.0376663
0.0319663
0.030928
0.0530639
0.118559
0.228738
0.361432
0.488479
0.579794
0.596114
0.471373
0.361057
4.71622
6.23945
6.99466
7.38421
6.95069
5.12517
3.29386
1.78297
1.08663
1.28582
1.89899
2.10375
1.82051
1.30612
0.705119
0.186085
0.00824909
0.0392689
0.0419455
0.041256
0.0406281
0.0400625
0.0395741
0.0391549
0.0387863
0.0384843
0.038244
0.0380551
0.0379176
0.0378311
0.0377907
0.0377859
0.0378141
0.0378706
0.0379489
0.0380445
0.0381471
0.0382588
0.0383843
0.0385163
0.0386558
0.038817
0.0390089
0.0392412
0.0395325
0.0398976
0.04035
0.0408795
0.041349
0.0412585
0.0393638
0.034824
0.0331982
0.0476902
0.0878693
0.144829
0.189763
0.186153
0.104895
0.350764
4.51922
6.07512
6.82701
6.95887
6.01842
4.17131
2.46454
1.23742
0.957219
1.30724
1.92786
1.9943
1.62415
1.07037
0.47601
0.067423
0.0134031
0.041685
0.0414032
0.0407358
0.0401439
0.039621
0.0391701
0.038783
0.0384513
0.038181
0.0379632
0.0377913
0.0376645
0.0375811
0.0375369
0.0375238
0.0375401
0.0375823
0.0376448
0.0377237
0.0378121
0.0379105
0.0380204
0.0381392
0.0382687
0.0384142
0.0385827
0.0387866
0.0390389
0.0393546
0.0397606
0.0402857
0.040957
0.0417915
0.0427304
0.0435079
0.043545
0.0420982
0.0394617
0.0378864
0.0377733
0.0361762
0.0369436
0.340501
4.19668
5.75553
6.38728
6.21513
4.82029
3.09183
1.62544
0.851101
0.915456
1.36783
1.92497
1.8409
1.41438
0.836225
0.277078
0.0163039
0.0329535
0.0415283
0.0408361
0.0402094
0.0396666
0.0391828
0.0387715
0.0384252
0.0381351
0.0378979
0.0377046
0.0375511
0.0374365
0.0373581
0.037313
0.0372957
0.037304
0.0373344
0.0373842
0.0374508
0.0375265
0.0376104
0.0377059
0.0378123
0.0379291
0.0380589
0.0382084
0.0383862
0.0386007
0.0388652
0.039201
0.0396328
0.0401928
0.0409199
0.0418548
0.0430373
0.0444543
0.0459794
0.0473893
0.0483619
0.0485134
0.0472686
0.0434435
0.311348
3.79287
5.21964
5.63031
5.12638
3.54216
2.02188
0.9571
0.678194
0.934915
1.45271
1.87006
1.66273
1.1862
0.604468
0.126005
0.00675144
0.0403146
0.0410185
0.0403482
0.0397478
0.0392293
0.0387714
0.0383916
0.0380817
0.0378277
0.037621
0.0374513
0.0373161
0.0372162
0.0371467
0.0371047
0.0370875
0.0370922
0.0371151
0.0371559
0.0372124
0.037277
0.0373497
0.0374338
0.0375278
0.0376307
0.0377453
0.0378771
0.0380314
0.0382139
0.038434
0.0387063
0.0390505
0.0394884
0.0400498
0.0407709
0.0416791
0.0427835
0.0440517
0.0453292
0.0462616
0.0463029
0.0448699
0.0414969
0.276385
3.30163
4.48353
4.58544
3.71218
2.28088
1.12231
0.583077
0.65523
0.992924
1.54811
1.76288
1.46584
0.948628
0.385931
0.0384028
0.0213195
0.0412019
0.0405948
0.0399088
0.0393493
0.0388647
0.0384291
0.0380707
0.037786
0.0375556
0.0373678
0.0372151
0.0370951
0.0370076
0.0369467
0.0369086
0.0368924
0.0368951
0.0369132
0.0369477
0.0369964
0.0370525
0.037116
0.0371906
0.0372748
0.0373664
0.0374674
0.0375822
0.0377151
0.03787
0.0380527
0.0382731
0.0385443
0.0388823
0.0393072
0.0398394
0.0404993
0.0413006
0.0422174
0.0431396
0.0438199
0.0438469
0.0427437
0.0401216
0.243677
2.754
3.56247
3.36889
2.27721
1.20035
0.564218
0.476565
0.695926
1.07423
1.63182
1.62559
1.23524
0.699728
0.198349
0.00851702
0.0372792
0.0408457
0.0401613
0.0395129
0.038982
0.0385246
0.0381189
0.0377899
0.0375329
0.037325
0.0371541
0.0370166
0.0369097
0.0368315
0.0367759
0.0367395
0.0367227
0.0367226
0.0367358
0.0367639
0.0368052
0.0368531
0.0369078
0.0369729
0.0370474
0.0371285
0.0372175
0.0373175
0.0374312
0.0375616
0.0377126
0.037891
0.0381051
0.0383645
0.0386816
0.0390716
0.0395478
0.0401146
0.0407585
0.0414213
0.0419463
0.0420183
0.041207
0.0391311
0.220643
2.17468
2.56523
1.9868
1.11081
0.528521
0.36765
0.51237
0.758909
1.17741
1.62751
1.45682
0.990383
0.455649
0.0695516
0.0106574
0.0407347
0.0404811
0.0397339
0.0391042
0.0386084
0.0381787
0.0378034
0.0375051
0.0372772
0.0370947
0.0369455
0.036827
0.0367355
0.0366687
0.0366209
0.036589
0.0365745
0.0365741
0.0365842
0.0366075
0.0366422
0.0366824
0.0367288
0.0367846
0.0368486
0.0369182
0.0369945
0.0370803
0.0371769
0.0372858
0.0374094
0.0375523
0.0377199
0.0379186
0.0381558
0.038439
0.0387749
0.0391677
0.0396122
0.040076
0.040464
0.0405557
0.039986
0.0383535
0.218199
1.55035
1.55965
0.896669
0.445979
0.294945
0.394101
0.582185
0.834127
1.28503
1.54132
1.26128
0.73532
0.239024
0.0143679
0.0309394
0.0408832
0.040089
0.0393538
0.038753
0.0382798
0.0378711
0.037522
0.0372486
0.0370424
0.0368778
0.0367444
0.0366404
0.0365611
0.0365042
0.0364645
0.0364386
0.0364278
0.0364288
0.0364387
0.0364598
0.0364904
0.0365254
0.0365659
0.0366148
0.0366703
0.0367301
0.0367951
0.0368674
0.0369481
0.0370378
0.037138
0.0372512
0.0373806
0.0375303
0.0377046
0.0379081
0.0381447
0.0384158
0.0387182
0.0390367
0.0393223
0.0394326
0.0390669
0.0377945
0.300514
1.10207
0.645828
0.335165
0.242249
0.330611
0.49295
0.647446
0.921418
1.3853
1.40232
1.0448
0.492462
0.0876388
0.00663851
0.0388863
0.0406751
0.0397904
0.0390506
0.0384704
0.0380144
0.0376225
0.037293
0.0370375
0.0368471
0.0366967
0.0365762
0.0364829
0.0364123
0.0363627
0.0363284
0.0363058
0.0362961
0.0362963
0.0363044
0.0363226
0.0363489
0.0363793
0.0364145
0.0364567
0.0365043
0.0365559
0.0366116
0.0366728
0.0367398
0.0368129
0.0368931
0.0369819
0.0370808
0.0371921
0.0373181
0.0374613
0.0376234
0.0378051
0.0380048
0.0382165
0.0384185
0.0385303
0.0383245
0.0373523
0.20052
0.280503
0.211164
0.2345
0.345664
0.471789
0.558874
0.717503
1.02741
1.35625
1.22875
0.82391
0.291256
0.0208693
0.0185447
0.0404339
0.0403687
0.039456
0.0387532
0.0382045
0.0377667
0.0373975
0.0370924
0.0368565
0.0366819
0.0365454
0.0364366
0.0363528
0.0362901
0.0362468
0.0362173
0.0361978
0.0361899
0.0361906
0.036198
0.0362134
0.0362355
0.036261
0.0362905
0.0363252
0.0363643
0.0364064
0.0364519
0.0365014
0.0365551
0.0366131
0.0366756
0.0367433
0.0368169
0.0368976
0.0369862
0.0370839
0.0371914
0.037309
0.0374355
0.037569
0.0377037
0.0378037
0.0377166
0.0370004
0.0366908
0.0404817
0.0446917
0.0497179
0.0558426
0.063378
0.0726724
0.0841466
0.0983005
0.115678
0.136871
0.162646
0.194219
0.233759
0.285232
0.355056
0.449521
0.560284
0.62357
0.459925
0.0364823
0.0398405
0.0436132
0.0482092
0.0539236
0.0610864
0.0700731
0.0813536
0.0955206
0.113268
0.135391
0.162887
0.197233
0.240933
0.298537
0.377719
0.486811
0.617668
0.702387
0.593109
0.0362712
0.0391743
0.0424799
0.0465959
0.0518219
0.0584942
0.0669952
0.0778118
0.0915868
0.109125
0.131398
0.15962
0.195476
0.241615
0.302563
0.385622
0.498004
0.631033
0.729088
0.649882
0.0360656
0.0385096
0.0413365
0.0449422
0.0496234
0.0557131
0.0635843
0.0737059
0.0867115
0.103441
0.124964
0.152638
0.188271
0.234452
0.295191
0.376376
0.483134
0.608418
0.712066
0.713061
0.0358726
0.0378713
0.0402279
0.0433156
0.0474213
0.0528678
0.0600089
0.0692713
0.0812232
0.0966447
0.116583
0.142415
0.175945
0.219586
0.276666
0.351541
0.447623
0.560237
0.665774
0.722164
0.035698
0.037281
0.0391932
0.0417775
0.045305
0.0500829
0.0564419
0.0647585
0.075504
0.0893202
0.107102
0.130082
0.159913
0.198733
0.249248
0.314614
0.397175
0.494577
0.594757
0.675196
0.0355459
0.036755
0.0382627
0.0403774
0.0433505
0.0474691
0.0530403
0.0603955
0.0699108
0.0820599
0.0974977
0.117164
0.142382
0.174898
0.216851
0.270576
0.337859
0.418024
0.505483
0.589106
0.0354188
0.0363037
0.0374564
0.0391492
0.0416136
0.0451136
0.0499317
0.0563637
0.0647154
0.0753194
0.0885874
0.105104
0.125733
0.151684
0.184481
0.225803
0.277062
0.338519
0.408099
0.480897
0.0353178
0.0359319
0.0367821
0.0381082
0.040125
0.0430727
0.0472066
0.0527923
0.0600912
0.0693517
0.0808213
0.0947952
0.111697
0.132145
0.156963
0.187113
0.223521
0.266733
0.316374
0.370738
0.0352429
0.0356386
0.0362356
0.0372516
0.0388912
0.0413708
0.0449175
0.049766
0.0561436
0.0642575
0.0742893
0.0864042
0.100775
0.117595
0.137057
0.159368
0.184787
0.213642
0.24613
0.281946
0.0351938
0.0354147
0.0357983
0.0365624
0.0379022
0.0400071
0.0430771
0.0473127
0.0528998
0.0600089
0.0687983
0.0794257
0.0920535
0.106775
0.123395
0.141429
0.16038
0.180072
0.200185
0.217616
0.0350881
0.0352158
0.0353422
0.0357542
0.0366086
0.0380658
0.0402925
0.0434316
0.0475939
0.0528535
0.0592298
0.0667004
0.0752157
0.0838749
0.0908256
0.0920575
0.0855594
0.0726808
0.0585031
0.0504575
0.0152808
0.0216491
0.0165621
0.0142656
0.0131785
0.01264
0.0123462
0.0121365
0.0118047
0.010953
0.0102275
0.0105636
0.0130287
0.0183852
0.0270426
0.0390966
0.0544303
0.0738157
0.0975209
0.123972
0.0122614
0.0113275
0.0151301
0.0185337
0.0221871
0.0264717
0.0316634
0.0380011
0.0457227
0.0551037
0.066565
0.0781471
0.0879316
0.101248
0.121633
0.148537
0.182035
0.217453
0.228619
0.282038
0.00812088
0.011856
0.0150372
0.0210287
0.0286626
0.0374068
0.0467632
0.0559087
0.0648333
0.0728586
0.0783836
0.084222
0.132479
0.139606
0.140046
0.139405
0.134992
0.120286
0.111933
0.144044
0.0113685
0.013137
0.01576
0.0157027
0.0125824
0.0103052
0.00915322
0.00859991
0.00831612
0.00815582
0.00822612
0.0102791
0.0238487
0.0379024
0.0434698
0.0418385
0.0343811
0.0236948
0.0155956
0.0140493
0.0121293
0.013844
0.0172696
0.0284477
0.0318556
0.0313589
0.0302134
0.0291182
0.0281285
0.0272039
0.0264287
0.0253148
0.0191012
0.0144945
0.0140488
0.0154094
0.0181859
0.0228221
0.0284788
0.0330911
0.0135021
0.0146587
0.0169293
0.0289815
0.0342381
0.0352202
0.035351
0.0353922
0.0354004
0.0353626
0.0353663
0.035574
0.0360136
0.0362732
0.0368855
0.0382759
0.0400526
0.0414911
0.0422189
0.0428862
0.0141817
0.0154259
0.017695
0.0294844
0.0343964
0.0352886
0.0355258
0.0357314
0.0359301
0.0361108
0.0363111
0.0366332
0.0372054
0.038022
0.039006
0.0400108
0.0408236
0.0412919
0.0414864
0.0416345
0.0148189
0.0160232
0.0194107
0.0308446
0.0346823
0.0352208
0.0353896
0.0355787
0.0357843
0.0359972
0.0362369
0.0365473
0.0369801
0.0375485
0.0382064
0.0388646
0.0394222
0.039819
0.0400719
0.040243
0.0150794
0.0165852
0.0222821
0.0326558
0.03502
0.035234
0.0353314
0.0354729
0.0356402
0.035826
0.0360394
0.0363002
0.0366279
0.037026
0.0374706
0.0379169
0.0383155
0.0386341
0.0388689
0.0390356
0.0137034
0.0173385
0.026402
0.0342805
0.0352422
0.0352596
0.0353053
0.0353968
0.0355145
0.0356531
0.0358159
0.036011
0.0362457
0.0365195
0.036819
0.0371207
0.0373982
0.0376322
0.0378154
0.0379507
0.0137876
0.0192408
0.0312828
0.0352063
0.0353062
0.0352568
0.0352707
0.0353197
0.0353902
0.0354781
0.0355842
0.0357111
0.0358612
0.036033
0.0362193
0.0364074
0.0365834
0.0367361
0.0368597
0.0369539
0.0169996
0.0253532
0.0348272
0.03536
0.0352527
0.0352154
0.0352159
0.0352348
0.0352655
0.0353061
0.0353564
0.0354172
0.0354889
0.0355706
0.035659
0.0357488
0.0358339
0.0359092
0.0359719
0.0360213
0.062056
0.0804618
0.0897515