/*--------------------------------*- C++ -*----------------------------------*\
| =========                 |                                                 |
| \\      /  F ield         | OpenFOAM: The Open Source CFD Toolbox           |
|  \\    /   O peration     | Version:  v1912                                 |
|   \\  /    A nd           | Website:  www.openfoam.com                      |
|    \\/     M anipulation  |                                                 |
\*---------------------------------------------------------------------------*/
FoamFile
{
    version     2.0;
    format      ascii;
    class       volScalarField;
    location    "48";
    object      p;
}
// * * * * * * * * * * * * * * * * * * * * * * * * * * * * * * * * * * * * * //

dimensions      [1 -1 -2 0 0 0 0];


internalField   nonuniform List<scalar> 
20320
(
419125
429378
429405
429456
429528
429616
429718
429833
429957
430088
430221
430355
430486
430610
430726
430829
430919
430993
431048
431079
399201
409113
409148
409202
409275
409364
409467
409583
409707
409838
409971
410105
410236
410360
410475
410577
410665
410734
410785
410817
379877
389478
389514
389568
389641
389730
389834
389949
390073
390204
390337
390470
390600
390723
390836
390938
391024
391092
391142
391174
361152
370454
370489
370543
370615
370704
370806
370921
371044
371174
371306
371437
371565
371686
371798
371897
371982
372051
372101
372136
343014
352024
352058
352111
352182
352269
352371
352483
352605
352733
352863
352993
353118
353237
353346
353443
353526
353594
353645
353684
325450
334174
334208
334259
334329
334414
334512
334622
334741
334866
334993
335120
335243
335359
335465
335559
335639
335705
335757
335798
308446
316891
316923
316973
317040
317122
317217
317323
317438
317558
317681
317804
317922
318034
318136
318226
318303
318366
318417
318460
291991
300163
300193
300241
300304
300381
300471
300572
300681
300795
300912
301028
301140
301246
301341
301426
301498
301557
301606
301650
276073
283977
284005
284049
284107
284179
284262
284355
284455
284561
284668
284775
284878
284974
285061
285137
285202
285255
285300
285344
260680
268322
268347
268386
268438
268502
268577
268660
268749
268842
268936
269029
269118
269201
269275
269338
269391
269435
269474
269515
245802
253186
253207
253241
253285
253340
253403
253472
253546
253622
253699
253773
253842
253904
253958
254002
254038
254067
254096
254133
231429
238560
238577
238604
238639
238682
238730
238783
238837
238892
238944
238991
239032
239065
239089
239104
239112
239119
239132
239159
217550
224434
224446
224465
224489
224517
224548
224580
224610
224636
224656
224668
224670
224660
224640
224611
224578
224548
224535
224544
204156
210795
210802
210812
210823
210835
210846
210853
210853
210845
210824
210788
210736
210668
210583
210488
210389
210301
210244
210222
191237
197638
197638
197638
197636
197630
197618
197596
197562
197511
197439
197344
197222
197071
196895
196699
196497
196313
196179
196104
178784
184950
184944
184934
184917
184891
184854
184801
184727
184628
184497
184328
184116
183856
183550
183205
182840
182492
182220
182042
166785
172723
172710
172689
172657
172611
172547
172461
172346
172193
171994
171740
171418
171020
170538
169975
169352
168721
168183
167792
155229
160944
160925
160893
160846
160780
160691
160571
160413
160205
159935
159585
159139
158573
157866
157002
155982
154857
153780
152863
144106
149603
149578
149537
149476
149391
149277
149126
148926
148664
148323
147878
147299
146549
145578
144329
142742
140790
138590
136261
133402
138689
138658
138608
138534
138433
138297
138116
137879
137569
137163
136629
135926
134995
133752
132076
129786
126617
122217
116087
153286
155919
155386
154347
153053
151249
149569
147802
145768
143494
141161
138879
137065
136963
139057
140157
140801
133170
108521
107160
105717
104608
104019
98750.5
86360.8
67217.5
51970
41006.5
34993.1
32712.8
32373.7
32387.7
32410.4
33704.7
39743.8
42678.2
39580.4
25688.3
18284.8
18332.2
18356.3
18408
18423.4
18406.8
18475.9
18484.4
18352.1
19977.9
29658.4
31454.1
32110.3
32266
32181.1
31983.8
31749.7
31521.1
31316.6
31139.5
30987
30866.9
148846
151171
150616
149654
148073
146477
145037
143298
141182
138707
136109
133641
133218
132337
129758
126423
122006
116972
107641
107221
105929
104570
101977
92511.6
79586.3
63512.7
49986.3
40032.7
34320.7
32085.6
31429.4
31002.2
30855.9
29997.9
33003.9
35389
33683.4
25348.5
18691.9
18300.4
18347.4
18398.2
18422.6
18390
18453.1
18536.4
18497
18516.5
24556.1
26415.2
27165.8
27333.2
27216.8
26989.3
26737.7
26498.8
26287.7
26107.1
25951.1
25817.7
143508
146248
145545
144563
143248
142034
140781
138983
136542
133909
131119
128402
126709
124892
121900
121009
132012
120221
102850
101861
97663.5
91749.2
84459.6
75654
65944.9
54007.4
42955.5
34440.8
29144.7
26610.9
25507.6
24936.1
24632.1
24315.9
25744.3
27401
26563.5
21792.1
18328.4
17573.4
18334.7
18388.8
18414.4
18392.7
18435.7
18479.3
18474
17841.2
20349.5
21726.3
22301
22374.4
22188.3
21912.5
21636.6
21383.6
21162.8
20975.9
20812.2
20658.9
138325
141001
140470
139503
138397
137257
135964
134178
131880
129202
126172
123117
120965
117978
119590
127847
137263
121452
95100
86649
81058
75428
68909.8
61154.5
52729.2
43429.4
34688.9
27704.4
22890
20213.6
19020.6
18408.8
17954.6
17640.7
18294.6
19353.2
19022.7
16426.5
14229.9
14169.2
15861.9
17648
18405.1
18409.5
18447.9
18465.5
17901.7
15691.2
16517.6
17232
17488
17391.4
17078.6
16725.5
16414.9
16143
15911.2
15719.4
15549.9
15382.1
133026
135864
135216
134408
133523
132520
131315
129291
127217
124620
121591
118744
115420
112750
122723
127176
120996
104942
86710.2
74854.2
66913.3
60084.1
53318.5
46276.5
39129.7
31910
25204
19882.9
15893.5
13286.3
12001.7
11237.8
10458.1
10001.7
10216.6
10973.4
11432.4
10602.7
9669.68
9958.18
11619.3
14008.3
16558.9
18080.1
18065.2
16838.2
14772
13003.1
12756.4
12854.7
12729
12403
11898.8
11434.1
11083.7
10788.9
10544.8
10351.5
10181
10007.5
127533
130369
129980
129414
128713
127755
126591
124936
123404
120354
117642
113889
109502
108088
114856
113410
104704
91546.9
75357
62052.1
52316.7
44459.8
37503
31076.3
25057.6
19570.4
14577.4
11023.2
8098.32
5563.78
4315.87
3558.75
2420.42
1831.9
1809.79
2162.4
3520.14
4583.88
4788.13
5434.69
7083.88
9319.53
11671.6
13480.3
13730.7
12719
11114.8
9583.86
8903.19
8537.59
8037.88
7440.89
6654.83
6048.47
5658.1
5330.71
5066.07
4880.14
4712.85
4544.91
122146
124808
124557
124127
123605
122884
122160
121195
119145
116700
113323
109057
104634
108118
110733
100765
90159.2
77117.3
61877.2
47985.8
37076.9
28463.7
21262.3
15214.2
9759.06
6192.21
2172.25
1266.46
772.336
103.462
7.4231
8.28886
5.01751
6.60669
1.90206
-5.07992
-16.6995
73.4778
633.188
1061.81
2189.04
4296.26
6487.64
8139.26
8635.47
8101.43
6912.83
5699.27
4945.23
4262.54
2969.49
2006.15
1015.16
628.596
497.711
372.861
336.52
309.043
280.633
250.661
116823
119321
119157
119094
118894
118161
117414
116611
114604
112606
109199
104499
98612
103942
99548.8
87986.9
75844.8
62112.7
46948.4
32722
21007.3
11482.5
4255.68
954.349
54.426
5.54369
21.7966
14.0225
11.6646
11.4352
11.8
9.26501
5.23878
0.670136
-6.47874
-16.7872
-30.7023
-48.3562
-67.5168
-116.416
-218.749
-313.432
1062.41
2588.83
3228.73
3173.83
2398.22
1713.25
1148.42
83.9049
-31.9273
-31.924
-22.052
-29.3675
-31.1316
-31.6185
-32.0849
-32.5788
-33.0966
-33.6103
111471
113800
113654
113619
113712
113421
112570
111835
110538
109063
105572
99308.6
100579
99281.4
87776.3
75195.9
61609.5
46781.9
31137.3
16098.2
3927.12
200.338
6.89704
-7.67127
-2.83709
-0.624931
1.71285
2.25895
0.796425
0.362862
1.64963
0.0835902
-3.59738
-8.23651
-15.0014
-24.645
-37.6812
-54.3371
-74.4084
-97.38
-124.673
-198.364
-524.03
-878.132
-841.82
-480.429
-80.4076
-87.7038
-45.019
-45.0243
-40.5757
-40.9769
-34.3289
-34.6044
-35.9202
-36.7137
-37.4157
-38.0734
-38.7049
-39.2853
106010
108229
108069
108075
108316
108292
107705
107167
106583
106182
101688
95689.2
95706.8
90013.8
76407.5
62500.4
47490.1
31443.6
14311.8
1130.26
-5.79845
-16.4803
-18.3481
-21.3777
-18.8217
-14.8398
-11.943
-9.34105
-8.89518
-8.74653
-8.08317
-9.10091
-12.1841
-16.7601
-23.3772
-32.6842
-45.0546
-60.7368
-79.6634
-101.06
-122.572
-134.337
-159.915
-159.905
-159.064
-156.161
-84.754
-70.3335
-60.7308
-52.3417
-47.8906
-46.1933
-42.5513
-41.8147
-42.4681
-43.1447
-43.7731
-44.3587
-44.9025
-45.3911
100580
102637
102947
103473
103247
103324
103191
102323
102887
102789
97728.2
97877
94438.3
79604.4
65259.1
49996.2
33655.5
15715.4
820.005
-19.276
-26.6755
-30.8449
-33.1677
-34.0989
-32.0319
-27.9567
-24.3663
-20.9495
-19.1629
-18.3107
-17.7348
-18.5168
-21.1234
-25.4215
-31.7706
-40.6283
-52.2802
-66.9296
-84.3603
-103.779
-123.168
-137.589
-146.971
-145.592
-139.174
-132.486
-107.636
-84.704
-70.6346
-61.6098
-56.2938
-53.4045
-50.5194
-49.3415
-49.4526
-49.8932
-50.3931
-50.873
-51.3052
-51.6714
94835.4
97024.5
97358.8
98171.2
98805
98275
97993
97419.4
97743.8
99946.8
95844.4
92125.3
83399.1
69524.4
54280.2
37807.7
19951.3
1662.69
-24.6412
-31.6382
-39.9925
-44.8246
-46.6363
-46.3827
-44.0856
-40.1533
-36.0612
-32.2137
-29.5938
-28.1539
-27.4371
-28.0478
-30.2988
-34.2739
-40.3209
-48.677
-59.5563
-73.086
-89.0043
-106.48
-123.767
-137.527
-146.963
-147.44
-143.422
-135.062
-115.302
-94.9811
-80.7158
-71.0602
-64.9596
-61.2733
-58.5143
-57.0968
-56.7943
-56.9594
-57.2833
-57.6256
-57.9229
-58.1415
88402
90913.9
91285.2
92266.5
93350.9
93636.6
92394.4
92040.1
90599.2
96906.3
94823.9
89671
73842.5
59665.9
43551.4
25986.8
5760.06
-21.0961
-39.8864
-47.0168
-54.0412
-57.6905
-58.781
-57.8698
-55.2917
-51.3883
-47.1143
-43.0332
-40.0001
-38.0986
-37.2176
-37.6629
-39.6357
-43.3578
-49.0528
-56.8604
-66.9456
-79.355
-93.7435
-109.375
-124.733
-137.337
-145.903
-147.984
-144.504
-136.183
-120.791
-103.735
-90.1334
-80.3654
-73.8136
-69.5799
-66.6966
-65.0677
-64.4282
-64.3153
-64.4363
-64.6163
-64.7608
-64.812
81308.8
84411
84869.4
86075.7
87741.5
88691.7
87549.1
86455.7
91192.5
96699
92379.1
78687.6
65242.4
50141.4
33182.3
13919.9
154.542
-47.2457
-54.7167
-62.2361
-66.9785
-69.4366
-69.8277
-68.4455
-65.6543
-61.7997
-57.5161
-53.431
-50.2138
-48.0466
-47.0399
-47.3382
-49.1221
-52.6053
-57.9148
-65.1672
-74.464
-85.7506
-98.6807
-112.582
-126.089
-137.364
-145.137
-147.741
-145.102
-137.697
-125.31
-111.152
-98.8186
-89.3771
-82.6778
-78.1163
-75.0586
-73.2182
-72.29
-71.9174
-71.8273
-71.8329
-71.8145
-71.6907
73358.6
77591.6
78611.9
80096.3
82006.8
84078.2
83985.4
85037.1
90311.7
85688.1
82367.2
69898.3
56901.1
40992.4
23096.5
2673.8
-47.9981
-61.4962
-69.5941
-75.2706
-78.6138
-80.0797
-79.8362
-78.1452
-75.269
-71.5072
-67.3438
-63.395
-60.1579
-57.925
-56.849
-57.0594
-58.7083
-61.9393
-66.8633
-73.5664
-82.0741
-92.2686
-103.824
-116.076
-127.868
-137.835
-144.771
-147.461
-145.58
-139.397
-129.374
-117.684
-106.837
-98.0208
-91.4151
-86.7223
-83.5293
-81.498
-80.3258
-79.72
-79.4255
-79.2566
-79.0746
-78.7776
66848.6
70785.1
72498
74424.8
76031.6
79180.9
83974.7
83956.4
80046.9
92984.1
77396.7
63714.9
49000
32199.2
12675.3
67.4297
-68.2639
-75.5607
-82.4588
-86.6251
-88.9601
-89.6632
-88.9538
-87.0865
-84.2189
-80.6069
-76.692
-72.9659
-69.867
-67.6982
-66.6393
-66.8156
-68.3367
-71.3236
-75.867
-82.0115
-89.7418
-98.8967
-109.132
-119.838
-130.111
-138.845
-144.977
-147.598
-146.339
-141.363
-133.286
-123.67
-114.288
-106.249
-99.9435
-95.2966
-92.0361
-89.8544
-88.4855
-87.6775
-87.1968
-86.8632
-86.5284
-86.0734
60824.5
64444.4
65933.6
67670.1
69384.9
72280.3
78614.2
76273.7
74471.8
82509.1
73285.2
57336.2
41393
23652.5
2945.43
-73.8059
-81.4576
-88.629
-93.6622
-96.6896
-98.2148
-98.3376
-97.3439
-95.4007
-92.6261
-89.2587
-85.6611
-82.2466
-79.3929
-77.3831
-76.4011
-76.5637
-77.9718
-80.7239
-84.8831
-90.467
-97.4204
-105.563
-114.569
-123.912
-132.831
-140.431
-145.84
-148.336
-147.578
-143.679
-137.206
-129.3
-121.275
-114.099
-108.249
-103.778
-100.519
-98.2395
-96.7214
-95.7461
-95.1059
-94.6286
-94.1611
-93.5704
53484.1
57978
58256.3
59987.9
61864.7
63981.3
66584.7
65839.7
59807.1
80835
64148
50268.7
33822.7
14782.8
93.2034
-87.9681
-94.2295
-100.083
-103.641
-105.779
-106.61
-106.335
-105.186
-103.259
-100.659
-97.594
-94.3691
-91.3238
-88.7769
-86.9822
-86.108
-86.2722
-87.5733
-90.0896
-93.8616
-98.8858
-105.083
-112.28
-120.17
-128.291
-136.018
-142.627
-147.391
-149.736
-149.38
-146.385
-141.221
-134.738
-127.946
-121.66
-116.344
-112.127
-108.932
-106.61
-104.989
-103.887
-103.123
-102.53
-101.957
-101.257
44155.7
50280.4
50788.2
52330.6
54070.6
56028.4
57822.7
58367.7
66896.1
59837.1
56494.4
42707.7
26244.1
5632.62
-60.9883
-100.196
-105.966
-110.309
-112.806
-114.138
-114.428
-113.905
-112.687
-110.838
-108.457
-105.727
-102.902
-100.257
-98.0507
-96.4942
-95.7418
-95.9176
-97.1123
-99.3907
-102.779
-107.256
-112.741
-119.063
-125.947
-132.991
-139.678
-145.412
-149.607
-151.802
-151.752
-149.498
-145.405
-140.126
-134.439
-129.002
-124.236
-120.319
-117.243
-114.931
-113.255
-112.073
-111.223
-110.549
-109.898
-109.119
35527.7
41702.2
43232.6
44884
46290.6
48149.7
50479.2
50272.8
64249.5
57371.2
47730.4
34968.7
18603.1
526.77
-112.004
-111.253
-116.973
-119.839
-121.413
-122.046
-121.956
-121.269
-120.026
-118.282
-116.136
-113.751
-111.333
-109.095
-107.233
-105.918
-105.294
-105.483
-106.57
-108.611
-111.624
-115.581
-120.404
-125.934
-131.919
-138.015
-143.79
-148.761
-152.459
-154.5
-154.68
-153.029
-149.823
-145.555
-140.824
-136.158
-131.932
-128.341
-125.431
-123.18
-121.502
-120.284
-119.388
-118.665
-117.965
-117.136
26963.7
32806.7
34507.4
36672.1
38466.9
40120.2
41332.6
48365.3
46291.3
49178.9
40108.3
27693.6
10819.5
-41.383
-118.026
-123.509
-127.142
-128.918
-129.669
-129.779
-129.408
-128.59
-127.345
-125.721
-123.825
-121.787
-119.756
-117.886
-116.335
-115.246
-114.749
-114.953
-115.936
-117.748
-120.405
-123.876
-128.091
-132.904
-138.091
-143.352
-148.335
-152.644
-155.899
-157.789
-158.144
-156.975
-154.491
-151.062
-147.146
-143.17
-139.458
-136.209
-133.504
-131.36
-129.725
-128.512
-127.602
-126.859
-126.139
-125.292
18520.3
24283.8
27554.2
28029.8
29355.1
31924.8
34089.2
36225.1
56034.6
42004.6
33157.9
21021.4
3603.02
-115.009
-130.01
-134.236
-136.744
-137.627
-137.767
-137.505
-136.908
-135.984
-134.769
-133.318
-131.682
-129.953
-128.238
-126.662
-125.357
-124.452
-124.059
-124.276
-125.172
-126.784
-129.12
-132.15
-135.813
-139.98
-144.458
-148.992
-153.287
-157.019
-159.884
-161.627
-162.105
-161.318
-159.416
-156.68
-153.456
-150.09
-146.861
-143.96
-141.488
-139.484
-137.925
-136.746
-135.849
-135.112
-134.399
-133.566
12958.8
17935.6
19449.9
18048.8
18630.5
22292.8
23751.8
48925.2
37747
36150.1
26949.4
15112.9
372.034
-141.792
-140.251
-144.408
-145.857
-146.08
-145.827
-145.3
-144.518
-143.537
-142.397
-141.102
-139.68
-138.197
-136.739
-135.405
-134.308
-133.552
-133.237
-133.453
-134.261
-135.691
-137.744
-140.391
-143.571
-147.172
-151.026
-154.926
-158.621
-161.852
-164.371
-165.971
-166.532
-166.045
-164.608
-162.441
-159.804
-156.977
-154.198
-151.641
-149.415
-147.569
-146.106
-144.982
-144.117
-143.408
-142.728
-141.939
7284.49
10655.9
9902.5
10291.6
13333.8
14564
17141.4
38690.8
36646.8
29627.3
21308.4
9554.6
-74.5981
-144.85
-151.548
-153.801
-154.549
-154.377
-153.889
-153.165
-152.26
-151.271
-150.198
-149.028
-147.777
-146.495
-145.248
-144.116
-143.194
-142.567
-142.317
-142.524
-143.243
-144.497
-146.292
-148.598
-151.355
-154.465
-157.784
-161.138
-164.317
-167.113
-169.326
-170.786
-171.395
-171.134
-170.075
-168.378
-166.238
-163.889
-161.52
-159.289
-157.308
-155.629
-154.273
-153.215
-152.394
-151.727
-151.103
-150.393
-860.807
2922.11
4128.54
6002.11
7358.42
5442.07
14518.8
28927.3
32013.6
24062.1
16321.4
4873.34
-125.675
-159.388
-161.299
-162.807
-162.982
-162.597
-161.958
-161.096
-160.144
-159.163
-158.147
-157.08
-155.971
-154.856
-153.783
-152.82
-152.042
-151.522
-151.327
-151.525
-152.162
-153.259
-154.817
-156.813
-159.193
-161.874
-164.733
-167.618
-170.356
-172.778
-174.718
-176.044
-176.673
-176.585
-175.826
-174.514
-172.8
-170.863
-168.863
-166.937
-165.189
-163.678
-162.434
-161.447
-160.673
-160.053
-159.5
-158.911
-8877.59
-4002.63
-4502.63
-4230.39
-4981.09
-6356.9
-5893.67
23153.2
20285.2
18036.9
11689.1
1238.46
-174.177
-168.425
-170.719
-171.482
-171.286
-170.776
-170.036
-169.101
-168.143
-167.187
-166.228
-165.252
-164.264
-163.287
-162.359
-161.535
-160.877
-160.444
-160.293
-160.48
-161.043
-162.002
-163.354
-165.079
-167.129
-169.435
-171.89
-174.371
-176.736
-178.839
-180.539
-181.733
-182.358
-182.392
-181.869
-180.868
-179.509
-177.929
-176.258
-174.611
-173.083
-171.732
-170.597
-169.679
-168.949
-168.37
-167.889
-167.467
-12875.7
-11759.3
-12962.8
-12867.9
-12636.9
-11865.2
-10496.3
5088.17
15270.3
12229
7496.86
156.593
-181.927
-177.7
-179.589
-179.876
-179.514
-178.943
-178.122
-177.196
-176.251
-175.332
-174.433
-173.54
-172.654
-171.793
-170.986
-170.277
-169.717
-169.356
-169.239
-169.413
-169.91
-170.747
-171.919
-173.409
-175.176
-177.161
-179.27
-181.402
-183.444
-185.271
-186.768
-187.848
-188.455
-188.569
-188.216
-187.457
-186.387
-185.109
-183.725
-182.33
-181.006
-179.807
-178.775
-177.92
-177.229
-176.675
-176.235
-176
-12969.2
-12995.2
-12977
-12961.1
-12776
-12464.8
-11290.4
-6605.42
7137.75
7078.5
3846.91
-116.281
-179.479
-187.273
-188.039
-188.083
-187.693
-187.103
-186.27
-185.363
-184.457
-183.591
-182.755
-181.938
-181.141
-180.378
-179.674
-179.062
-178.583
-178.279
-178.188
-178.348
-178.786
-179.515
-180.531
-181.817
-183.339
-185.048
-186.862
-188.699
-190.464
-192.052
-193.371
-194.346
-194.931
-195.106
-194.885
-194.313
-193.465
-192.428
-191.284
-190.112
-188.973
-187.918
-186.984
-186.189
-185.528
-184.981
-184.518
-184.141
-13061.1
-12981.4
-13002
-12979.6
-12883.1
-12732.1
-13007.8
-9226.82
-122.917
2727.87
1249.29
-192.104
-196.64
-196.434
-196.41
-196.252
-195.873
-195.265
-194.485
-193.619
-192.766
-191.96
-191.19
-190.445
-189.726
-189.048
-188.431
-187.9
-187.488
-187.229
-187.158
-187.306
-187.69
-188.324
-189.203
-190.313
-191.624
-193.094
-194.658
-196.242
-197.769
-199.15
-200.312
-201.193
-201.749
-201.965
-201.847
-201.427
-200.763
-199.921
-198.97
-197.979
-197.001
-196.078
-195.238
-194.503
-193.874
-193.331
-192.84
-192.34
-13036.2
-13071.8
-13052.3
-13036.1
-12975.9
-12893.4
-13098.3
-11090.1
-3959.58
-374.884
-231.973
-193.811
-204.576
-204.188
-204.508
-204.378
-204.066
-203.486
-202.758
-201.959
-201.177
-200.438
-199.734
-199.056
-198.41
-197.808
-197.264
-196.802
-196.445
-196.224
-196.168
-196.301
-196.638
-197.187
-197.948
-198.906
-200.035
-201.3
-202.649
-204.017
-205.338
-206.542
-207.567
-208.359
-208.883
-209.124
-209.083
-208.783
-208.27
-207.593
-206.807
-205.97
-205.127
-204.314
-203.56
-202.887
-202.296
-201.773
-201.303
-200.866
-13183.5
-13193.4
-13127.5
-13100.2
-13062.4
-13016.7
-14178.5
-11304.2
-5521.23
-2117.17
-333.77
-229.105
-213.082
-212.905
-212.828
-212.613
-212.308
-211.798
-211.125
-210.397
-209.689
-209.022
-208.385
-207.774
-207.196
-206.66
-206.181
-205.777
-205.467
-205.277
-205.233
-205.351
-205.645
-206.12
-206.777
-207.604
-208.578
-209.668
-210.831
-212.011
-213.156
-214.207
-215.11
-215.823
-216.313
-216.567
-216.583
-216.379
-215.986
-215.445
-214.801
-214.099
-213.376
-212.667
-211.993
-211.377
-210.83
-210.348
-209.938
-209.629
-13213.9
-13208
-13179.9
-13154.9
-13130.6
-12959.6
-15458.4
-10448.7
-5816.24
-2888.25
-79.7412
-224.186
-220.96
-221.075
-221.096
-220.945
-220.631
-220.177
-219.579
-218.934
-218.309
-217.715
-217.147
-216.602
-216.087
-215.611
-215.19
-214.835
-214.566
-214.403
-214.366
-214.469
-214.725
-215.136
-215.703
-216.416
-217.257
-218.197
-219.199
-220.217
-221.211
-222.128
-222.926
-223.566
-224.022
-224.28
-224.337
-224.208
-223.913
-223.484
-222.959
-222.372
-221.757
-221.145
-220.552
-220.004
-219.511
-219.079
-218.722
-218.459
-13251.8
-13235.6
-13217.4
-13193.5
-13160.6
-13341.3
-14088.4
-9298.93
-5480.57
-2775.95
-215.207
-224.452
-229.764
-229.309
-229.359
-229.32
-229.071
-228.668
-228.144
-227.582
-227.039
-226.521
-226.022
-225.542
-225.086
-224.666
-224.295
-223.985
-223.751
-223.61
-223.578
-223.667
-223.89
-224.247
-224.735
-225.348
-226.073
-226.885
-227.748
-228.627
-229.491
-230.293
-230.996
-231.571
-231.993
-232.25
-232.337
-232.265
-232.049
-231.712
-231.286
-230.799
-230.279
-229.753
-229.238
-228.755
-228.321
-227.942
-227.633
-227.411
-13270.5
-13263.3
-13249.5
-13232.7
-13175.4
-14293.6
-12355.4
-8122.14
-4932.5
-2237.84
-245.442
-240.997
-238.26
-237.795
-237.809
-237.787
-237.625
-237.283
-236.829
-236.351
-235.891
-235.447
-235.017
-234.599
-234.2
-233.831
-233.506
-233.235
-233.033
-232.911
-232.883
-232.959
-233.151
-233.462
-233.882
-234.408
-235.032
-235.732
-236.477
-237.239
-237.99
-238.69
-239.31
-239.825
-240.214
-240.465
-240.572
-240.545
-240.392
-240.131
-239.789
-239.388
-238.951
-238.502
-238.057
-237.637
-237.258
-236.929
-236.662
-236.474
-13290
-13282.5
-13275
-13262.9
-13247.4
-14621.1
-10490.5
-7017.77
-4242.22
-1189.77
-254.642
-247.486
-246.383
-246.38
-246.442
-246.42
-246.312
-246.032
-245.651
-245.254
-244.872
-244.501
-244.136
-243.778
-243.434
-243.113
-242.83
-242.594
-242.419
-242.313
-242.289
-242.354
-242.52
-242.789
-243.152
-243.605
-244.141
-244.743
-245.387
-246.047
-246.7
-247.312
-247.859
-248.32
-248.676
-248.917
-249.038
-249.044
-248.941
-248.743
-248.472
-248.144
-247.779
-247.399
-247.017
-246.655
-246.327
-246.042
-245.814
-245.655
-13305.4
-13298.5
-13292.6
-13279.8
-13894
-12577.8
-8947.56
-5933.73
-3572.69
-112.669
-261.109
-255.311
-255.028
-255.163
-255.252
-255.261
-255.169
-254.929
-254.617
-254.301
-253.996
-253.692
-253.388
-253.086
-252.794
-252.519
-252.275
-252.072
-251.92
-251.828
-251.807
-251.864
-252.006
-252.237
-252.551
-252.942
-253.403
-253.921
-254.477
-255.048
-255.615
-256.15
-256.633
-257.046
-257.37
-257.599
-257.728
-257.759
-257.697
-257.55
-257.337
-257.071
-256.77
-256.45
-256.125
-255.815
-255.534
-255.289
-255.094
-254.958
-13316.1
-13310.3
-13308.2
-13287.7
-14002.1
-10602.6
-7559.37
-4895.04
-2661.17
-224.482
-261.755
-263.743
-263.581
-263.96
-264.145
-264.22
-264.163
-263.977
-263.739
-263.502
-263.268
-263.027
-262.78
-262.53
-262.287
-262.055
-261.846
-261.672
-261.541
-261.461
-261.445
-261.495
-261.617
-261.815
-262.086
-262.423
-262.82
-263.267
-263.746
-264.241
-264.732
-265.199
-265.625
-265.993
-266.289
-266.504
-266.635
-266.685
-266.655
-266.551
-266.387
-266.174
-265.927
-265.66
-265.386
-265.123
-264.883
-264.674
-264.508
-264.391
-13333.5
-13318.4
-13298.6
-14088
-11794.2
-8914.72
-6208.9
-3920.27
-1544.54
-276.804
-272.642
-272.064
-272.352
-272.908
-273.19
-273.335
-273.325
-273.194
-273.032
-272.87
-272.702
-272.52
-272.324
-272.121
-271.922
-271.73
-271.552
-271.404
-271.292
-271.224
-271.212
-271.257
-271.363
-271.533
-271.766
-272.056
-272.399
-272.784
-273.198
-273.624
-274.05
-274.458
-274.834
-275.161
-275.428
-275.63
-275.761
-275.823
-275.818
-275.749
-275.625
-275.458
-275.257
-275.036
-274.808
-274.586
-274.382
-274.205
-274.064
-273.965
-13379.4
-13335
-13763.1
-12359.7
-9824.01
-7199.29
-4851.07
-3045.18
-102.775
-288.827
-282.356
-281.431
-281.655
-282.121
-282.446
-282.637
-282.663
-282.593
-282.504
-282.413
-282.308
-282.178
-282.028
-281.867
-281.707
-281.548
-281.4
-281.274
-281.18
-281.125
-281.116
-281.156
-281.249
-281.396
-281.596
-281.846
-282.142
-282.475
-282.831
-283.197
-283.566
-283.922
-284.252
-284.543
-284.785
-284.972
-285.1
-285.171
-285.185
-285.142
-285.052
-284.923
-284.763
-284.582
-284.393
-284.208
-284.036
-283.888
-283.769
-283.684
-16119.8
-13975.3
-11860.7
-9787.47
-7488.7
-5279.59
-3462.63
-1839.16
-272.259
-293.305
-292.58
-291.514
-291.494
-291.713
-291.983
-292.156
-292.197
-292.187
-292.172
-292.146
-292.093
-292.008
-291.898
-291.773
-291.645
-291.516
-291.395
-291.29
-291.212
-291.169
-291.163
-291.199
-291.28
-291.408
-291.58
-291.797
-292.053
-292.34
-292.645
-292.96
-293.278
-293.588
-293.877
-294.136
-294.355
-294.528
-294.651
-294.728
-294.755
-294.733
-294.671
-294.573
-294.446
-294.3
-294.146
-293.994
-293.851
-293.727
-293.626
-293.555
123107
128189
128153
128095
128011
127895
127739
127535
127267
126917
126457
125851
125046
123966
122494
120442
117488
112997
105532
91599.5
112934
118001
117962
117897
117804
117676
117505
117282
116990
116610
116111
115455
114582
113407
111795
109531
106229
101131
92686.3
77528.1
102790
107841
107798
107728
107628
107491
107309
107071
106763
106363
105841
105158
104255
103047
101407
99135.5
95912.8
91197.5
84089.4
73060.7
92675.5
97710
97664.9
97591.4
97485.7
97341.9
97152.3
96906.1
96588.4
96179.1
95650.4
94964
94066.7
92883.1
91306.1
89181.2
86282.6
82276
76680
68898.6
82592.9
87610.6
87564
87488
87378.9
87231.3
87037.6
86787.6
86467.4
86058.4
85535.5
84864.7
84000.3
82880.5
81421.7
79512.1
77003.2
73699.8
69363.9
63805.6
72542.9
77543.9
77496.4
77419.1
77308.6
77159.6
76965.1
76715.6
76398.6
75997.3
75489.8
74847.4
74032.4
72996.2
71676.7
69996
67859.7
65157.6
61776.6
57649.4
62525.9
67510.3
67462.7
67385.4
67275
67126.8
66934.2
66688.7
66379
65990.7
65504.8
64897.7
64139.2
63191.9
62010.7
60542.3
58727.3
56503.5
53815.9
50638.8
52541.8
57510
57463
57386.8
57278
57132.3
56943.8
56704.8
56405.4
56033
55571.9
55002.5
54300.7
53438.2
52382.2
51096.6
49544.1
47689.6
45504.9
42980.5
42589.9
47542.8
47497.1
47422.9
47316.9
47175.1
46992.2
46761.4
46474
46119.2
45683.7
45151.3
44502.7
43715.6
42766.2
41630.4
40285.8
38713.4
36898.7
34835.6
32668.8
37607.7
37564.4
37493.3
37391.1
37254.1
37077.9
36856.2
36581.6
36244.8
35834.5
35337
34735.9
34013
33149.8
32131.1
30947
29590.7
28054.6
26329.3
22775.3
27703.4
27664.4
27597.6
27499.7
27368.3
27199.1
26986.9
26725
26405.8
26019.8
25555.2
24996.7
24326.4
23527.7
22593.9
21529.8
20344
19032.7
17577.1
12900
17829.1
17797.7
17735.2
17641.7
17516.1
17354.1
17150.9
16901.2
16598.8
16236.4
15804.7
15289.3
14665.2
13912
13036.2
12069.7
11042.9
9953.74
8756.14
2998.93
7986.75
7964.91
7906.2
7817.99
7698.79
7543.66
7348.71
7110.79
6824.18
6484.49
6090.83
5638.13
5056.92
4318.07
3474.95
2665.15
1975.85
1400.09
898.172
-429.736
106.659
96.765
66.8866
24.849
-25.061
-81.8743
-143.66
-208.953
-275.81
-341.238
-397.754
-426.391
-426.832
-426.026
-426.111
-425.946
-424.866
-422.799
-422.999
-439.268
-434.003
-434.054
-434.063
-434.06
-434.054
-434.048
-434.048
-434.064
-434.105
-434.198
-434.46
-434.063
-434.38
-434.499
-434.54
-434.467
-434.274
-434.129
-434.018
-448.908
-443.873
-443.899
-443.907
-443.903
-443.899
-443.9
-443.905
-443.915
-443.931
-443.949
-443.95
-443.89
-443.891
-443.925
-443.956
-443.97
-443.975
-443.963
-443.977
-458.678
-453.742
-453.732
-453.73
-453.727
-453.723
-453.72
-453.72
-453.724
-453.73
-453.741
-453.739
-453.714
-453.711
-453.723
-453.744
-453.767
-453.785
-453.793
-453.801
-468.487
-463.563
-463.558
-463.555
-463.552
-463.548
-463.545
-463.543
-463.542
-463.542
-463.542
-463.54
-463.535
-463.538
-463.548
-463.563
-463.58
-463.596
-463.611
-463.629
-478.299
-473.381
-473.38
-473.378
-473.376
-473.372
-473.369
-473.366
-473.364
-473.362
-473.36
-473.357
-473.356
-473.36
-473.368
-473.381
-473.396
-473.411
-473.428
-473.449
-488.111
-483.2
-483.199
-483.199
-483.197
-483.194
-483.191
-483.188
-483.186
-483.184
-483.183
-483.181
-483.181
-483.185
-483.192
-483.203
-483.216
-483.231
-483.247
-483.268
-497.924
-493.016
-493.015
-493.015
-493.014
-493.012
-493.01
-493.009
-493.008
-493.007
-493.006
-493.006
-493.007
-493.011
-493.019
-493.029
-493.041
-493.054
-493.07
-493.09
-507.734
-502.828
-502.828
-502.829
-502.83
-502.829
-502.828
-502.828
-502.828
-502.828
-502.829
-502.83
-502.833
-502.838
-502.846
-502.856
-502.867
-502.88
-502.895
-502.914
-517.534
-512.636
-512.638
-512.641
-512.643
-512.644
-512.645
-512.646
-512.647
-512.649
-512.651
-512.654
-512.659
-512.665
-512.673
-512.683
-512.694
-512.707
-512.722
-512.74
-527.314
-522.439
-522.447
-522.452
-522.455
-522.458
-522.46
-522.463
-522.465
-522.469
-522.473
-522.478
-522.484
-522.491
-522.5
-522.51
-522.522
-522.535
-522.551
-522.568
38279.4
37326.8
36471
37150.3
40964.6
46932.3
53989.4
60909.3
66561.8
70108.8
70973.3
68820.8
63195.8
52815.6
33382.9
46740.6
31086.9
26503.4
26990.5
30333.2
35668.5
42125.6
48543.7
53806.3
57065.8
57775.5
55623
50280.1
41181.8
27827.7
56783.3
37752.6
26862.6
23301.4
24422.4
28412.2
33820.3
39310
43744.2
46350.9
46715.3
44669.5
40156.1
33224.6
24314
59097.4
46840
36711.3
30518.9
28222.2
28871.3
31376.1
34353.2
36763.5
37946.6
37557.8
35474.8
31724.3
26493.9
20246.1
56964.2
48903.2
41513.9
35872.9
32375.4
30812.9
30655.2
31098.4
31434.9
31162.8
29973
27726.7
24434.1
20263.3
15567.6
52694
46900.3
41308.3
36521.4
32854.2
30330.6
28690.7
27549.9
26487.7
25158.3
23326
20874.8
17809.5
14245.9
10396.3
46909.7
42533.7
38140.3
34077.1
30570.6
27689.6
25333.1
23314.4
21400.5
19378.2
17092.1
14456.6
11448.9
8123.01
4656.32
40061
36623.4
33069.8
29598.4
26370.6
23441.2
20791
18337.7
15964.4
13543.6
10939.4
8063.21
4952.25
1923.09
-41.4464
32470
29674.5
26722.3
23736.4
20808.2
17996.6
15315.6
12726.1
10122.5
7392.4
4495.11
1742.97
-100.734
-383.154
-374.561
24356.7
22010.5
19515.4
16937.2
14331.5
11739.9
9116.56
6425.2
3653
1394.31
-284.641
-387.902
-383.937
-387.104
-386.382
15915.4
13939.1
11814.8
9540.37
7177.48
4658.06
2301.03
630.46
-401.922
-389.237
-395.357
-396.848
-395.956
-396.048
-396.153
7321.84
5516
3652.93
1892.97
624.968
-397.364
-409.878
-402.798
-405.801
-405.841
-405.451
-405.602
-405.714
-405.82
-405.912
228.888
-364.893
-425.945
-413.446
-412.045
-413.877
-415.81
-414.867
-415.052
-415.175
-415.279
-415.379
-415.471
-415.561
-415.652
-423.186
-424.629
-425.257
-424.982
-424.412
-424.54
-424.686
-424.776
-424.876
-424.959
-425.043
-425.135
-425.224
-425.31
-425.397
-434.046
-434.249
-434.295
-434.364
-434.401
-434.453
-434.506
-434.569
-434.652
-434.734
-434.816
-434.9
-434.983
-435.064
-435.147
-444.027
-444.086
-444.118
-444.166
-444.211
-444.255
-444.311
-444.373
-444.441
-444.515
-444.592
-444.67
-444.748
-444.824
-444.902
-453.829
-453.88
-453.929
-453.973
-454.019
-454.065
-454.117
-454.173