/*--------------------------------*- C++ -*----------------------------------*\
| =========                 |                                                 |
| \\      /  F ield         | OpenFOAM: The Open Source CFD Toolbox           |
|  \\    /   O peration     | Version:  v1912                                 |
|   \\  /    A nd           | Website:  www.openfoam.com                      |
|    \\/     M anipulation  |                                                 |
\*---------------------------------------------------------------------------*/
FoamFile
{
    version     2.0;
    format      ascii;
    class       volScalarField;
    location    "48";
    object      p_rgh;
}
// * * * * * * * * * * * * * * * * * * * * * * * * * * * * * * * * * * * * * //

dimensions      [1 -1 -2 0 0 0 0];


internalField   nonuniform List<scalar> 
20320
(
434392
434467
434494
434546
434617
434705
434807
434922
435046
435177
435310
435444
435575
435699
435815
435918
436008
436082
436137
436169
434279
434377
434412
434466
434538
434627
434731
434846
434971
435101
435235
435369
435499
435624
435739
435841
435928
435998
436048
436080
434054
434194
434229
434284
434356
434446
434549
434664
434789
434919
435052
435185
435315
435438
435552
435653
435739
435808
435857
435889
433745
433924
433959
434013
434085
434174
434276
434391
434514
434644
434776
434908
435035
435157
435268
435368
435452
435521
435571
435607
433363
433577
433611
433664
433736
433823
433924
434037
434158
434286
434416
434546
434671
434790
434899
434996
435079
435147
435198
435237
432919
433162
433196
433248
433317
433402
433501
433611
433730
433854
433982
434108
434231
434347
434453
434547
434628
434694
434745
434786
432422
432690
432722
432772
432839
432921
433016
433122
433237
433357
433480
433603
433721
433833
433935
434025
434102
434165
434216
434259
431883
432170
432201
432248
432311
432388
432479
432579
432688
432802
432919
433035
433147
433253
433349
433433
433505
433565
433613
433657
431310
431612
431640
431684
431742
431814
431897
431990
432090
432196
432303
432410
432513
432609
432696
432772
432837
432890
432935
432979
430713
431024
431050
431089
431141
431205
431280
431362
431451
431544
431639
431732
431821
431904
431977
432041
432094
432138
432177
432218
430100
430417
430439
430472
430517
430571
430634
430704
430778
430854
430930
431004
431073
431136
431189
431234
431269
431299
431328
431364
429482
429799
429816
429843
429878
429920
429969
430021
430076
430130
430182
430230
430271
430303
430327
430342
430351
430358
430371
430397
428865
429178
429190
429209
429233
429261
429292
429324
429354
429380
429400
429412
429414
429404
429384
429355
429322
429292
429279
429288
428257
428562
428569
428578
428590
428602
428613
428620
428620
428611
428591
428555
428503
428435
428350
428255
428156
428068
428010
427989
427667
427960
427960
427960
427958
427952
427940
427918
427884
427833
427762
427666
427544
427393
427217
427021
426819
426635
426501
426426
427100
427378
427372
427361
427344
427319
427281
427228
427155
427056
426924
426755
426543
426284
425978
425633
425267
424920
424647
424470
426562
426822
426809
426788
426756
426710
426647
426561
426445
426293
426094
425839
425518
425119
424638
424075
423451
422820
422283
421891
426057
426297
426278
426246
426200
426134
426044
425925
425766
425559
425288
424939
424492
423927
423220
422356
421335
420211
419133
418217
425588
425807
425782
425741
425680
425595
425481
425330
425130
424868
424527
424082
423503
422753
421782
420533
418946
416994
414794
412465
425157
425355
425324
425274
425200
425099
424962
424782
424545
424235
423829
423295
422592
421661
420418
418741
416451
413283
408883
402753
156973
157178
156595
155427
154321
152523
150843
149076
147034
144721
142425
140152
138019
137286
139380
140582
142028
134444
108663
107185
105747
104609
104020
98751.8
86362.1
67218.7
51974.7
41014.6
34994.4
32714.1
32375
32389
32411.6
33738.5
39910
43040.3
40374.1
26271.4
18286.1
18333.5
18357.6
18409.3
18424.7
18408.1
18477.2
18485.7
18353.4
21132.9
30932.6
32728.3
33384.4
33540.2
33455.2
33257.9
33023.8
32795.2
32590.7
32413.6
32261.1
32141
156946
156105
156455
156045
154465
152844
151292
149548
147427
145077
142480
139958
138729
138715
136150
132812
128398
122770
107647
107228
105935
104877
105345
98903.2
85973.6
69904.3
56369
46268.8
39841.6
36286
35656.9
36665.1
37247.4
36389.6
39395.6
41780.6
40074.9
31610.4
19671.4
18306.8
18353.8
18404.6
18429
18396.4
18459.5
18542.8
18503.4
21119.8
30947.7
32806.8
33557.4
33724.8
33608.4
33380.9
33129.4
32890.5
32679.3
32498.7
32342.7
32209.3
157420
157669
156701
155832
154849
151947
150392
150406
148140
145509
142720
140003
138310
136256
133498
132305
134470
120939
106788
111273
109264
103350
96060.5
87254.9
77545.8
65608.3
54556.5
46041.7
40745.6
38211.8
37108.5
36537
36233
35916.8
37345.2
39002
38164.4
33393
29929.3
24567.4
18366.3
18400.4
18426.6
18405.8
18447.4
18490.9
18485.6
28490.2
31950.4
33327.2
33901.9
33975.3
33789.2
33513.4
33237.5
32984.5
32763.7
32576.8
32413.1
32259.8
156101
157406
157373
156406
155300
154149
152795
151078
148783
146105
143075
140021
134838
134793
133261
128000
143114
138355
112004
103553
97961.6
92331.6
85813.4
78058.1
69632.8
60333
51592.5
44608
39793.6
37117.2
35924.2
35312.4
34858.2
34544.3
35198.1
36256.8
35926.3
33330.1
31133.5
31072.9
32598.8
26047.9
18422
18426.4
18464.8
18482.4
27972.5
32594.8
33421.2
34135.6
34391.6
34295
33982.2
33629.1
33318.5
33046.6
32814.8
32622.9
32453.5
32285.7
158062
157262
157138
155506
154338
154049
151923
151471
149035
146794
142118
135510
137644
134092
122745
139468
143297
127244
109011
97155.4
89214.6
82385.4
75619.8
68577.8
61431
54211.3
47505.3
42184.2
38194.8
35587.6
34303
33539.1
32759.4
32303
32517.9
33274.7
33733.7
32904
31970.9
32259.5
33920.6
36309.6
35092.8
21981.1
22875.2
37819.6
37073.3
35304.4
35057.7
35156
35030.3
34704.3
34200.1
33735.4
33385
33090.2
32846.1
32652.9
32482.3
32308.8
158113
158165
157750
156564
156293
155551
154387
145051
143518
145956
140863
141685
137298
108965
116815
141206
132499
119343
103153
89847.9
80112.5
72255.6
65298.8
58872.2
52853.5
47366.2
42373.3
38819
35894.2
33359.6
32111.7
31354.6
30058.2
27741.9
24848.2
25036.9
30081.4
32379.7
32584
33230.5
34879.7
37115.4
39467.5
41276.2
41526.5
40514.8
38910.6
37379.7
36699
36333.4
35833.7
35236.7
34450.7
33844.3
33454
33126.6
32861.9
32676
32508.7
32340.8
158369
157821
157830
156009
154580
156266
155549
145357
149054
142420
146712
142446
123268
108151
140419
134154
123548
110506
95266.2
81374.7
70465.8
61852.6
54651.3
48603.1
43148
39581.1
34353.2
29702.4
25258.2
7462.53
146.505
41.6778
38.4065
39.9956
35.291
28.309
16.6894
2019.65
21628.3
34311.9
35578
37685.2
39876.6
41528.2
42024.4
41490.4
40301.8
39088.2
38334.2
37651.5
36358.4
35014.5
17611
11691.5
9892.09
7738.35
7410.6
7158.49
6827.71
6334.33
158566
157909
157895
157661
154494
151697
155617
155602
152171
148699
148092
143581
99486
109602
138631
127069
114927
101195
86030.6
71804.3
60089.6
50564.8
41945
27172.5
1174.93
44.626
60.8789
53.1047
50.7469
50.5174
50.8823
48.3473
44.3211
39.7525
32.6035
22.2951
8.37999
-9.27384
-28.4345
-15.3493
21118.3
38732.6
40144.7
41671.1
42311
42256.1
41480.5
40795.5
36997.4
1748.1
7.15495
7.15829
17.0303
9.71482
7.95076
7.46379
6.99738
6.50348
5.98568
5.47202
159285
158678
158532
158497
158589
158296
157448
156587
148897
143960
150390
126667
100624
139288
132654
120074
106487
91659.7
76015.1
60976
43324.3
4446.53
51.7749
37.2065
42.0407
44.2529
46.5907
47.1367
45.6743
45.2406
46.5275
44.9614
41.2804
36.6413
29.8764
20.2327
7.19661
-9.45922
-29.529
-52.5022
-49.5529
1315.87
12693.1
38432.5
40998.4
42034.1
25806.5
303.391
-0.141153
-0.146428
4.30211
3.90089
10.5489
10.2734
8.9576
8.164
7.4621
6.80446
6.17285
5.59252
159391
159005
158589
151436
159093
159051
148358
157945
144421
146525
152465
98965
97895.5
140791
127185
113278
98267.2
82220.8
65089
20297.9
44.9787
34.2968
32.4291
29.3995
31.9554
35.9374
38.8341
41.4361
41.882
42.0306
42.694
41.6763
38.5931
34.0171
27.3999
18.0929
5.7226
-9.95966
-28.8862
-50.2827
-71.7949
-83.5596
-109.138
-109.128
-108.287
-105.384
-33.9768
-19.5563
-9.95368
-1.56457
2.88655
4.58379
8.22584
8.96248
8.30911
7.63247
7.00406
6.41846
5.87464
5.38604
156921
158738
147946
146451
147793
159584
147846
159105
138560
159571
139796
97933.7
142429
136387
122041
106779
90437.8
72497.7
13037.3
37.5064
30.1069
25.9374
23.6146
22.6834
24.7505
28.8256
32.416
35.8329
37.6195
38.4715
39.0475
38.2656
35.6589
31.3609
25.0118
16.154
4.50209
-10.1473
-27.578
-46.9966
-66.3852
-80.8064
-90.1888
-88.8099
-82.392
-75.7036
-50.8534
-27.9217
-13.8524
-4.82744
0.488558
3.37778
6.26295
7.44088
7.32972
6.88905
6.38927
5.90934
5.47711
5.11092
160113
159356
160254
161066
149723
158992
160888
159376
150462
162842
104305
92188.2
146294
132420
117175
100703
82846.5
25900.9
38.254
31.257
22.9027
18.0706
16.2589
16.5126
18.8096
22.742
26.834
30.6815
33.3014
34.7412
35.4581
34.8474
32.5964
28.6213
22.5743
14.2182
3.33887
-10.1908
-26.1092
-43.5844
-60.872
-74.6315
-84.0674
-84.5451
-80.5271
-72.1665
-52.4071
-32.0859
-17.8206
-8.16494
-2.0644
1.62188
4.38082
5.79843
6.10087
5.93576
5.61199
5.26963
4.97234
4.75365
160654
159901
160403
161384
162458
155167
161085
159117
158444
165512
94893
141733
142960
128784
112669
95104.5
69289.1
48.0216
29.2313
22.1009
15.0765
11.4272
10.3366
11.2478
13.826
17.7294
22.0035
26.0845
29.1176
31.019
31.9002
31.4548
29.482
25.7599
20.065
12.2574
2.17218
-10.2374
-24.6258
-40.2576
-55.6148
-68.2189
-76.7855
-78.8667
-75.3867
-67.0654
-51.6732
-34.6172
-21.0157
-11.2476
-4.69586
-0.462131
2.42112
4.05009
4.68957
4.80242
4.6814
4.50141
4.35695
4.30571
159914
159615
159251
159494
161902
163954
140744
160545
131574
105920
92454.6
154139
140694
125593
108634
89371.7
5529.06
28.2061
20.7351
13.2156
8.47334
6.0151
5.62407
7.00631
9.79743
13.6521
17.9357
22.0208
25.2379
27.4052
28.4119
28.1135
26.3296
22.8465
17.5369
10.2846
0.987814
-10.2989
-23.2289
-37.1298
-50.6374
-61.9126
-69.6852
-72.2893
-69.6502
-62.2454
-49.858
-35.7006
-23.3669
-13.9253
-7.22598
-2.66458
0.393248
2.23354
3.16174
3.53432
3.6245
3.6189
3.63723
3.76116
147437
159449
143640
145127
162061
164666
159745
89529.9
90660.5
120793
126209
151798
138801
122892
104996
60632.5
33.9013
20.4032
12.3053
6.62884
3.28555
1.81974
2.06324
3.7542
6.63038
10.3921
14.5556
18.5044
21.7415
23.9744
25.0504
24.84
23.191
19.9602
15.0361
8.33303
-0.174686
-10.3693
-21.9249
-34.1762
-45.9685
-55.9353
-62.8715
-65.562
-63.6807
-57.4975
-47.4743
-35.7845
-24.9378
-16.1214
-9.51567
-4.82281
-1.62987
0.401361
1.57362
2.17937
2.47383
2.64283
2.82476
3.12177
121551
157759
142738
145677
160945
167644
132290
84333.2
162581
93072.6
162915
152178
137463
120662
101138
3669.24
20.1987
12.902
6.00386
1.83758
-0.497477
-1.20054
-0.491152
1.37618
4.2437
7.85573
11.7707
15.4967
18.5956
20.7645
21.8233
21.6471
20.1259
17.139
12.5956
6.45123
-1.27914
-10.4341
-20.6695
-31.3752
-41.6486
-50.3818
-56.5145
-59.1355
-57.8764
-52.9005
-44.8236
-35.207
-25.8255
-17.7864
-11.4808
-6.83393
-3.57342
-1.39169
-0.0228725
0.785094
1.26586
1.59944
1.93427
2.38932
119544
158674
161077
162814
164529
167424
120562
123126
169616
84681.3
168429
152480
136537
118796
79539.3
21.3377
13.6861
6.5146
1.48137
-1.54599
-3.07114
-3.19402
-2.20025
-0.257087
2.51751
5.88499
9.48247
12.897
15.7507
17.7605
18.7425
18.5799
17.1718
14.4197
10.2605
4.67662
-2.27675
-10.4198
-19.4259
-28.7683
-37.6875
-45.2873
-50.6965
-53.1927
-52.4348
-48.5355
-42.0626
-34.1564
-26.1311
-18.9557
-13.1054
-8.63438
-5.37488
-3.09591
-1.57772
-0.602449
0.0377057
0.515019
0.982469
1.57322
158874
159922
155348
161874
163809
165831
168529
167784
67149.8
154383
166092
152213
135767
116727
10865.2
13.9762
7.7148
1.86182
-1.69696
-3.83464
-4.66595
-4.39045
-3.24126
-1.31511
1.28511
4.35036
7.57525
10.6205
13.1674
14.9621
15.8364
15.6721
14.371
11.8548
8.08267
3.05852
-3.13912
-10.3353
-18.2259
-26.3468
-34.0741
-40.6829
-45.4464
-47.7914
-47.4352
-44.4408
-39.2762
-32.7933
-26.0012
-19.716
-14.3993
-10.1822
-6.98756
-4.66611
-3.04455
-1.94301
-1.17846
-0.585905
-0.0128146
0.686919
155509
159148
127819
160915
162934
164896
166690
167235
67005
165909
165362
151575
135111
114500
47.879
8.67118
2.90127
-1.44198
-3.93852
-5.27087
-5.56037
-5.03763
-3.81944
-1.97053
0.409994
3.1398
5.96519
8.61043
10.8166
12.3731
13.1255
12.9497
11.7549
9.47659
6.08855
1.61101
-3.87327
-10.1958
-17.0799
-24.124
-30.8112
-36.5451
-40.7398
-42.9346
-42.8849
-40.6307
-36.5382
-31.2592
-25.5722
-20.1343
-15.3684
-11.4515
-8.37585
-6.06388
-4.38814
-3.20541
-2.3562
-1.68197
-1.03117
-0.251544
144384
157616
125250
159588
150583
163398
166393
166182
64365.5
173285
163644
150882
134517
37183.4
3.91018
4.66054
-1.05908
-3.92497
-5.49871
-6.13177
-6.04241
-5.35496
-4.1119
-2.36798
-0.222284
2.16291
4.58086
6.81931
8.68056
9.99561
10.6193
10.4308
9.34403
7.30265
4.28959
0.332356
-4.49025
-10.0202
-16.0054
-22.1008
-27.8761
-32.8475
-36.5449
-38.5859
-38.7664
-37.1148
-33.9092
-29.6412
-24.9098
-20.2437
-16.0177
-12.4271
-9.51734
-7.26636
-5.58829
-4.37016
-3.47447
-2.75097
-2.05121
-1.22238
152443
155894
115835
159760
160359
163078
164420
141320
91652
172266
163196
150781
133907
1444.03
5.06154
-0.42115
-4.05443
-5.8306
-6.58107
-6.69155
-6.32088
-5.50289
-4.2572
-2.63401
-0.737074
1.30015
3.3313
5.2011
6.75272
7.84155
8.33848
8.13489
7.15185
5.33946
2.68264
-0.788434
-5.0034
-9.81633
-15.0034
-20.2646
-25.2473
-29.5564
-32.8121
-34.7021
-35.0563
-33.8871
-31.4036
-27.9751
-24.0589
-20.0829
-16.3707
-13.1213
-10.4168
-8.2727
-6.6379
-5.4243
-4.51496
-3.7716
-3.05121
-2.2048
120537
89989.5
133170
158419
159744
162314
164478
52255.3
162291
172394
163547
151410
132814
15.3798
0.379023
-3.84665
-6.35528
-7.23808
-7.37818
-7.11554
-6.51915
-5.59491
-4.38006
-2.92938
-1.29271
0.436251
2.15068
3.72716
5.03166
5.93743
6.33002
6.11303
5.21705
3.60535
1.26936
-1.76085
-5.42376
-9.59064
-14.0687
-18.6029
-22.8978
-26.6299
-29.4949
-31.2381
-31.7163
-30.9288
-29.0274
-26.2911
-23.0665
-19.7007
-16.4718
-13.5705
-11.0992
-9.09503
-7.53579
-6.35683
-5.46026
-4.7233
-4.01001
-3.1767
85348
123186
157272
141518
81335.2
157854
161559
49063
173808
173972
164771
152935
45796.2
-3.97006
-2.42939
-6.58567
-8.03482
-8.25745
-8.00504
-7.47765
-6.69616
-5.71521
-4.5747
-3.28013
-1.85835
-0.375141
1.08291
2.41695
3.51416
4.26972
4.58455
4.36924
3.56091
2.13156
0.0778405
-2.56893
-5.7493
-9.3497
-13.2039
-17.1036
-20.7989
-24.0295
-26.5493
-28.1492
-28.7097
-28.2231
-26.7857
-24.6192
-21.9816
-19.1553
-16.3763
-13.8185
-11.5928
-9.74739
-8.28392
-7.15968
-6.29518
-5.586
-4.90603
-4.11665
114148
155148
116882
50539.2
63813.9
159952
159913
38836.1
182035
175015
166696
154943
7720.41
0.537885
-6.15988
-8.4127
-9.16108
-8.98926
-8.50114
-7.77717
-6.87223
-5.8832
-4.81017
-3.63969
-2.38861
-1.10665
0.140208
1.27185
2.19426
2.82151
3.07081
2.86379
2.1455
0.891316
-0.90372
-3.21018
-5.96732
-9.0767
-12.396
-15.75
-18.9292
-21.7252
-23.9378
-25.3976
-26.0065
-25.7462
-24.6869
-22.9896
-20.8498
-18.5006
-16.1319
-13.9012
-11.9195
-10.241
-8.88502
-7.82727
-7.00624
-6.3391
-5.71509
-5.00497
152952
95640.1
96594.6
86017.3
160448
158532
145809
29080.4
185104
177152
169411
157963
27.4152
-6.29782
-8.20921
-9.71681
-9.89236
-9.50675
-8.8685
-8.00575
-7.05373
-6.07297
-5.05676
-3.98992
-2.88121
-1.7656
-0.693473
0.270093
1.04766
1.56801
1.76279
1.56457
0.927898
-0.168668
-1.72684
-3.72281
-6.10263
-8.78405
-11.6429
-14.5282
-17.2665
-19.6883
-21.6286
-22.9537
-23.5836
-23.4953
-22.7365
-21.4239
-19.7105
-17.773
-15.7735
-13.8475
-12.0996
-10.5878
-9.34368
-8.35678
-7.58297
-6.9627
-6.41028
-5.82157
151224
138927
156297
156699
155949
135165
-5455.12
100403
181215
178966
172619
144515
-13.2472
-7.49498
-9.78909
-10.5524
-10.3562
-9.8465
-9.10593
-8.17143
-7.21303
-6.25725
-5.29876
-4.32287
-3.33414
-2.35703
-1.42937
-0.604986
0.0531036
0.485707
0.636708
0.449419
-0.113604
-1.07225
-2.42425
-4.149
-6.19932
-8.50495
-10.96
-13.4409
-15.806
-17.909
-19.6097
-20.8034
-21.4279
-21.462
-20.9389
-19.9387
-18.5795
-16.9991
-15.3279
-13.6815
-12.1531
-10.8021
-9.66723
-8.74899
-8.01971
-7.44061
-6.9598
-6.5377
-3771.05
72279.8
-12793.9
-10625.6
-10733.6
-11696.3
-10327.4
131878
184180
181139
176406
61910.3
-13.0175
-8.78999
-10.6798
-10.9664
-10.6044
-10.0333
-9.21241
-8.28673
-7.34122
-6.42242
-5.52313
-4.63008
-3.74392
-2.88292
-2.0762
-1.36784
-0.807877
-0.446117
-0.32915
-0.503477
-1.00065
-1.83772
-3.00973
-4.49901
-6.26633
-8.25095
-10.36
-12.4928
-14.5348
-16.3616
-17.8588
-18.9387
-19.5457
-19.6592
-19.3061
-18.5475
-17.4771
-16.1995
-14.8153
-13.4209
-12.0961
-10.8977
-9.86572
-9.01083
-8.31906
-7.76496
-7.3251
-7.0908
-9686.17
-12818.2
-12800
-12784.1
-12599
-12287.8
-11113.4
158409
184171
184112
180880
18755.2
-2.44568
-10.2401
-11.0057
-11.0496
-10.6602
-10.0697
-9.23691
-8.3297
-7.42418
-6.55756
-5.72147
-4.90475
-4.10755
-3.34506
-2.64035
-2.02913
-1.54997
-1.24521
-1.15449
-1.31524
-1.75292
-2.48211
-3.49775
-4.78319
-6.30591
-8.01431
-9.82892
-11.6656
-13.4307
-15.0184
-16.3372
-17.3131
-17.8978
-18.0724
-17.8519
-17.2798
-16.4321
-15.3946
-14.2507
-13.0785
-11.9401
-10.8848
-9.95038
-9.15551
-8.49502
-7.94727
-7.48475
-7.10799
-7529.82
-12796.1
-12816.6
-12794.3
-12697.8
-12545.4
-12822.5
176076
185180
188031
186552
482.935
-11.3372
-11.1314
-11.1075
-10.9498
-10.5704
-9.96228
-9.18223
-8.31602
-7.46339
-6.65729
-5.88727
-5.14184
-4.42305
-3.74575
-3.12804
-2.59787
-2.1856
-1.9266
-1.85571
-2.00308
-2.38728
-3.02085
-3.90033
-5.00988
-6.32112
-7.79125
-9.3553
-10.9393
-12.4659
-13.8472
-15.0098
-15.8903
-16.4463
-16.6619
-16.5439
-16.1242
-15.4607
-14.6184
-13.6671
-12.676
-11.6985
-10.7752
-9.93492
-9.20038
-8.57134
-8.02813
-7.53741
-7.03711
-7254.41
-12878
-12858.6
-12842.3
-12781.4
-12649.5
-12788.4
182630
189761
193345
193488
-0.0912459
-10.8562
-10.4681
-10.7883
-10.6575
-10.3458
-9.76626
-9.03807
-8.23893
-7.45648
-6.71803
-6.01359
-5.33627
-4.68984
-4.08743
-3.5441
-3.08171
-2.72533
-2.50405
-2.44828
-2.58136
-2.91768
-3.46688
-4.22769
-5.1856
-6.31504
-7.58007
-8.92912
-10.2965
-11.6182
-12.8215
-13.8464
-14.6393
-15.1633
-15.4039
-15.3625
-15.0633
-14.5501
-13.8725
-13.0873
-12.2503
-11.4065
-10.5942
-9.83994
-9.16678
-8.57555
-8.05316
-7.58276
-7.14563
-11241.3
-12991.1
-12925.2
-12897.9
-12817.1
-12806
116729
190984
196767
200171
162779
-26.8163
-10.7937
-10.6165
-10.5395
-10.3246
-10.0203
-9.50987
-8.8371
-8.10834
-7.4008
-6.7336
-6.0968
-5.48613
-4.90739
-4.37187
-3.893
-3.48832
-3.17928
-2.98928
-2.94439
-3.06293
-3.35653
-3.83144
-4.48874
-5.31573
-6.28983
-7.37951
-8.54247
-9.7226
-10.8682
-11.9182
-12.8222
-13.5351
-14.0253
-14.2787
-14.2944
-14.0904
-13.6979
-13.1567
-12.5129
-11.8103
-11.0875
-10.3787
-9.70476
-9.08927
-8.54149
-8.05946
-7.6501
-7.3412
-12084.6
-12980.6
-12968.9
-12943.9
-12769
-12748.6
183786
200562
205195
208123
74745.7
-13.1752
-9.94929
-10.0641
-10.0853
-9.93457
-9.62062
-9.16639
-8.56766
-7.92311
-7.29794
-6.70453
-6.13617
-5.591
-5.07577
-4.6006
-4.17896
-3.82441
-3.55562
-3.39234
-3.35509
-3.45844
-3.71437
-4.12571
-4.69265
-5.40523
-6.24596
-7.18631
-8.18796
-9.2061
-10.2003
-11.1174
-11.9149
-12.5556
-13.0114
-13.2693
-13.3266
-13.1974
-12.9025
-12.4735
-11.9479
-11.3612
-10.7465
-10.1338
-9.54166
-8.99282
-8.50007
-8.06818
-7.71106
-7.44859
-12986
-13006.2
-12997.5
-12973.6
-12872.5
-13121.4
205801
210590
214408
217113
19810.5
-4.56257
-9.87544
-9.42005
-9.47026
-9.43133
-9.1823
-8.77956
-8.25554
-7.69309
-7.14992
-6.63202
-6.13329
-5.65292
-5.19732
-4.77702
-4.4061
-4.09564
-3.86227
-3.7213
-3.68932
-3.7783
-4.0008
-4.35798
-4.84612
-5.45859
-6.18368
-6.9958
-7.85912
-8.73836
-9.60245
-10.4036
-11.1069
-11.6819
-12.104
-12.3608
-12.4476
-12.3758
-12.1598
-11.823
-11.3967
-10.9101
-10.3902
-9.86374
-9.34881
-8.86646
-8.43208
-8.05325
-7.7436
-7.52196
-13037
-13034.4
-13020.5
-13003.8
-12937.1
131242
216571
220804
223994
226689
69.0018
-12.0705
-9.33381
-8.86887
-8.88277
-8.86053
-8.69888
-8.35643
-7.90287
-7.42477
-6.96408
-6.52027
-6.09016
-5.67233
-5.27343
-4.90433
-4.57945
-4.30834
-4.10606
-3.98421
-3.95605
-4.03213
-4.22454
-4.53518
-4.95583
-5.48148
-6.1055
-6.806
-7.55105
-8.31221
-9.06369
-9.76367
-10.3837
-10.8991
-11.2877
-11.5386
-11.6459
-11.6182
-11.4651
-11.2042
-10.8622
-10.4615
-10.0244
-9.57511
-9.13025
-8.71044
-8.33181
-8.00232
-7.73544
-7.5479
-13047.2
-13044.3
-13036.9
-12972
-13009.2
222167
227636
231108
233884
236378
-16.5158
-9.36003
-8.25698
-8.25371
-8.31614
-8.29412
-8.18611
-7.90539
-7.52434
-7.12752
-6.74608
-6.37419
-6.00989
-5.6515
-5.30757
-4.9868
-4.70341
-4.46812
-4.29263
-4.18701
-4.16248
-4.22807
-4.39369
-4.66241
-5.02598
-5.47841
-6.01466
-6.6172
-7.26059
-7.92033
-8.57327
-9.1853
-9.73242
-10.194
-10.5498
-10.7906
-10.9117
-10.9179
-10.815
-10.6165
-10.3454
-10.0174
-9.65271
-9.27252
-8.89049
-8.5283
-8.20114
-7.91614
-7.68747
-7.52831
-13053.1
-13051
-13044.7
-13031.3
72917
234914
238544
241558
243919
92465.3
-13.6176
-7.81912
-7.53646
-7.67167
-7.76002
-7.76922
-7.67731
-7.4375
-7.12531
-6.80947
-6.50452
-6.20043
-5.89645
-5.59433
-5.30287
-5.02791
-4.78328
-4.58046
-4.42825
-4.33634
-4.31584
-4.37288
-4.51442
-4.74528
-5.05996
-5.45068
-5.91169
-6.42988
-6.9853
-7.55688
-8.12348
-8.65854
-9.14157
-9.55451
-9.87896
-10.1073
-10.2362
-10.2677
-10.2052
-10.0585
-9.84602
-9.57979
-9.27814
-8.95897
-8.63341
-8.32363
-8.04269
-7.79751
-7.60247
-7.46654
-13054.3
-13053.2
-13050.9
-13030.7
239478
246421
249464
252128
254362
15263.3
-4.73145
-6.71982
-6.55754
-6.93672
-7.12145
-7.19694
-7.13933
-6.95355
-6.71581
-6.47872
-6.24487
-6.00387
-5.7563
-5.50645
-5.26332
-5.03157
-4.82272
-4.64841
-4.51732
-4.43796
-4.42146
-4.47193
-4.59371
-4.79131
-5.06263
-5.39974
-5.79674
-6.24364
-6.72261
-7.21717
-7.70861
-8.17609
-8.60199
-8.97018
-9.26526
-9.48047
-9.61201
-9.66139
-9.63155
-9.52772
-9.36378
-9.15053
-8.90337
-8.63709
-8.36257
-8.09969
-7.85952
-7.65024
-7.48445
-7.36782
-13061.9
-13051.7
-13031.8
161148
254933
257813
260518
262807
265183
-10.0764
-5.91411
-5.33599
-5.6242
-6.18086
-6.46264
-6.6074
-6.59715
-6.46703
-6.30408
-6.14199
-5.97497
-5.79289
-5.59651
-5.39387
-5.19508
-5.00218
-4.82493
-4.67611
-4.56435
-4.49689
-4.48444
-4.52975
-4.63588
-4.80551
-5.03811
-5.32859
-5.67114
-6.05698
-6.47006
-6.89675
-7.32247
-7.73106
-8.10616
-8.43345
-8.70104
-8.90251
-9.03338
-9.09511
-9.09066
-9.02153
-8.89784
-8.73021
-8.52964
-8.30895
-8.08035
-7.85874
-7.65459
-7.47764
-7.33697
-7.23737
-13097.8
-13058.4
46110.1
264245
266781
269406
271754
273560
110273
-12.2217
-5.75034
-4.82586
-5.04986
-5.51596
-5.84105
-6.03173
-6.05777
-5.98776
-5.89918
-5.80807
-5.70248
-5.57325
-5.42303
-5.26223
-5.10193
-4.94296
-4.79492
-4.66885
-4.57461
-4.51957
-4.51063
-4.551
-4.6437
-4.7908
-4.99045
-5.24058
-5.53686
-5.86971
-6.22548
-6.59221
-6.9603
-7.31673
-7.64662
-7.93773
-8.18005
-8.36701
-8.49495
-8.56563
-8.57974
-8.53731
-8.4472
-8.31823
-8.15741
-7.97637
-7.7882
-7.60297
-7.43122
-7.2828
-7.1633
-7.07904
49637.8
60515.3
274799
276872
279171
281380
283197
284820
3548
-6.64508
-5.92018
-4.85433
-4.83421
-5.05347
-5.32374
-5.49615
-5.53782
-5.52777
-5.51271
-5.48638
-5.4335
-5.34863
-5.23826
-5.11349
-4.98567
-4.8568
-4.73507
-4.63021
-4.55293
-4.50926
-4.50333
-4.5397
-4.62045
-4.74825
-4.92094
-5.13733
-5.39366
-5.68001
-5.9855
-6.3007
-6.6189
-6.92863
-7.21778
-7.47651
-7.69561
-7.86821
-7.99148
-8.06819
-8.09556
-8.07405
-8.01166
-7.91364
-7.78665
-7.64062
-7.487
-7.334
-7.19148
-7.06761
-6.96641
-6.8959
424765
424941
424906
424847
424763
424647
424492
424287
424020
423669
423209
422603
421799
420718
419246
417195
414240
409749
402285
388352
424402
424563
424524
424460
424366
424238
424068
423844
423553
423172
422674
422017
421145
419969
418358
416094
412792
407693
399249
384091
424067
424213
424171
424101
424000
423863
423681
423444
423135
422735
422214
421531
420628
419420
417779
415508
412285
407570
400462
389433
423763
423892
423847
423774
423668
423524
423335
423089
422771
422362
421833
421147
420249
419066
417489
415364
412465
408459
402863
395081
423490
423603
423556
423480
423371
423224
423030
422780
422460
422051
421528
420857
419993
418873
417414
415505
412996
409692
405356
399798
423250
423346
423299
423222
423111
422962
422768
422518
422201
421800
421292
420650
419835
418799
417479
415799
413662
410960
407579
403452
423043
423123
423075
422998
422887
422739
422547
422301
421992
421603
421117
420510
419752
418804
417623
416155
414340
412116
409428
406251
422869
422933
422886
422809
422700
422555
422366
422127
421828
421456
420994
420425
419723
418861
417805
416519
414967
413112
410927
408403
422727
422775
422730
422655
422549
422408
422225
421994
421707
421352
420916
420384
419735
418948
417999
416863
415518
413946
412131
410068
422616
422650
422607
422536
422434
422297
422120
421899
421624
421287
420877
420379
419778
419055
418192
417174
415989
414633
413097
411372
422533
422556
422517
422450
422352
422221
422052
421839
421577
421258
420872
420408
419849
419179
418380
417446
416382
415196
413885
412430
422468
422492
422460
422398
422304
422179
422017
421813
421564
421261
420899
420467
419952
419328
418575
417699
416732
415705
414616
413419
422376
422459
422437
422379
422290
422171
422016
421821
421583
421297
420957
420563
420111
419529
417357
407786
387264
355009
308521
229788
-0.548994
92765.3
91058.3
85842.9
78520.2
69851.3
59987.2
49272.3
37952.9
26361.4
15016.2
4236.08
-2.10843
-2.54958
-1.7438
-1.82886
-1.66363
-0.583058
1.48336
1.28377
-0.270848
0.0897546
0.0384165
0.0296901
0.0322894
0.0388467
0.0447632
0.0442047
0.0287836
-0.0125095
-0.105065
-0.3679
0.0291913
-0.287338
-0.406076
-0.447091
-0.374628
-0.181683
-0.0367673
0.0740995
-0.100623
0.0299353
0.00312241
-0.00456319
-0.000839875
0.00364799
0.00297882
-0.00232286
-0.01282
-0.0286986
-0.0467682
-0.0470903
0.0129006
0.0112987
-0.0229346
-0.0539589
-0.0676372
-0.0720432
-0.0608427
-0.0743937
-0.060391
-0.029369
-0.0193685
-0.0178954
-0.0146658
-0.0104706
-0.00789504
-0.00790187
-0.0110197
-0.0179369
-0.0283366
-0.0263596
-0.00175882
0.00196613
-0.0107243
-0.0316586
-0.0540861
-0.0729081
-0.0804935
-0.0885316
-0.0596106
-0.040334
-0.0351989
-0.0324388
-0.0296451
-0.0257928
-0.0223355
-0.0202724
-0.0196666
-0.0197097
-0.019464
-0.0171403
-0.0121201
-0.015085
-0.0255286
-0.0409869
-0.0579726
-0.0737767
-0.0884785
-0.106322
-0.0615038
-0.0487658
-0.0473073
-0.0459799
-0.0435795
-0.0399095
-0.0362256
-0.0333588
-0.0314636
-0.0296852
-0.0272751
-0.0247474
-0.0237723
-0.0273077
-0.0358183
-0.0484548
-0.0630587
-0.0782586
-0.0950304
-0.116197
-0.0637659
-0.0574603
-0.0567794
-0.0561504
-0.0543106
-0.0512183
-0.0481354
-0.0455883
-0.0435968
-0.0418618
-0.0400907
-0.0386052
-0.0387527
-0.0423339
-0.0499616
-0.0609425
-0.0738295
-0.0881232
-0.104798
-0.125678
-0.0668158
-0.0633772
-0.0627891
-0.0627455
-0.0618063
-0.0598216
-0.0578704
-0.0563116
-0.0550788
-0.0541246
-0.0533118
-0.053072
-0.0545516
-0.0589948
-0.0665831
-0.0766149
-0.0884053
-0.101865
-0.11777
-0.137453
-0.066863
-0.0655875
-0.0656776
-0.0665987
-0.0670045
-0.0664993
-0.06578
-0.0653938
-0.0652928
-0.0655865
-0.0662228
-0.0674199
-0.0703
-0.0757781
-0.0837159
-0.0934993
-0.104793
-0.11768
-0.132829
-0.151544
-0.0562644
-0.0632697
-0.0659495
-0.0684853
-0.0703722
-0.0715294
-0.072287
-0.0731978
-0.0744534
-0.0762476
-0.0785722
-0.0815771
-0.0860211
-0.0924086
-0.100671
-0.110587
-0.121916
-0.134734
-0.149743
-0.167844
-0.0267097
-0.0565446
-0.0646728
-0.0694046
-0.0727308
-0.0754005
-0.0776883
-0.0801236
-0.0829758
-0.0863224
-0.0902664
-0.0950633
-0.101072
-0.108468
-0.117331
-0.127724
-0.13955
-0.152949
-0.168352
-0.18591
335032
334079
333223
333903
337717
343685
350742
357662
363314
366861
367726
365573
359948
349568
330135
353303
337649
333066
333553
336896
342231
348688
355106
360369
363628
364338
362186
356843
347744
334390
373156
354125
343235
339674
340795
344785
350193
355682
360117
362723
363088
361042
356529
349597
340687
385280
373023
362894
356701
354405
355054
357559
360536
362946
364129
363740
361657
357907
352676
346429
392957
384896
377506
371865
368368
366805
366648
367091
367427
367155
365966
363719
360426
356256
351560
398497
392703
387111
382324
378657
376133
374493
373352
372290
370961
369128
366677
363612
360048
356199
402522
398146
393753
389690
386183
383302
380946
378927
377013
374991
372705
370069
367061
363736
360269
405483
402046
398492
395021
391793
388864
386214
383760
381387
378966
376362
373486
370375
338415
72939.9
407703
404907
401955
398969
396041
393229
390548
387959
385355
382625
379728
336514
62084.6
-7.92197
0.671273
409399
407053
404558
401980
399374
396782
394159
391468
388696
310611
22569.9
-2.85978
1.10591
-2.06114
-1.33915
410768
408792
406667
404393
402030
399511
374286
198823
-7.06907
5.61573
-0.504117
-1.99506
-1.10347
-1.19572
-1.30074
411984
410178
405584
352119
194078
7.29823
-5.21552
1.86492
-1.13875
-1.17841
-0.788299
-0.939566
-1.05111
-1.15732
-1.24966
120060
8741.77
-11.4724
1.0268
2.4276
0.595723
-1.33779
-0.394801
-0.57915
-0.702501
-0.806953
-0.906742
-0.998249
-1.08884
-1.17962
1.09626
-0.346211
-0.974736
-0.699452
-0.129699
-0.257521
-0.40388
-0.493715
-0.593852
-0.676788
-0.760121
-0.852834
-0.941839
-1.02777
-1.11467
0.0460942
-0.156744
-0.20252
-0.271101
-0.308053
-0.360334
-0.413975
-0.476915
-0.559679
-0.641408
-0.723029
-0.807028
-0.890373
-0.971774
-1.0541
-0.124251
-0.183245
-0.215138
-0.263976
-0.308061
-0.352629
-0.40873
-0.470177
-0.53883
-0.612544
-0.689272
-0.767433
-0.845138
-0.921732
-0.999295
-0.116652
-0.167178
-0.216236
-0.260671
-0.30608
-0.352895
-0.404244
-0.46054
-0.521663
-0.588675
-0.660193
-0.733473
-0.806179
-0.87798
-0.950713
-0.133912
-0.174874
-0.218752
-0.26178
-0.306088
-0.35233
-0.400669
-0.451706
-0.506894
-0.568201
-0.634651
-0.703544
-0.771931
-0.839531
-0.907951
-0.144494
-0.181995
-0.223058
-0.265069
-0.307952
-0.352237
-0.397577
-0.444139
-0.494311
-0.550457
-0.612145
-0.676648
-0.741069
-0.805219
-0.870086
-0.153043
-0.188521
-0.22756
-0.267938
-0.309276
-0.35158
-0.394362
-0.437679
-0.483777
-0.535395
-0.592639
-0.652711