/*--------------------------------*- C++ -*----------------------------------*\
| =========                 |                                                 |
| \\      /  F ield         | OpenFOAM: The Open Source CFD Toolbox           |
|  \\    /   O peration     | Version:  v1912                                 |
|   \\  /    A nd           | Website:  www.openfoam.com                      |
|    \\/     M anipulation  |                                                 |
\*---------------------------------------------------------------------------*/
FoamFile
{
    version     2.0;
    format      ascii;
    class       surfaceScalarField;
    location    "48";
    object      phi;
}
// * * * * * * * * * * * * * * * * * * * * * * * * * * * * * * * * * * * * * //

dimensions      [0 3 -1 0 0 0 0];
oriented        oriented;


internalField   nonuniform List<scalar> 
40282
(
0.00281583
0.00270727
1.92039
-1.92714
1.92157
0.00557454
-1.91255
1.90037
0.0121831
-1.88521
1.86708
0.0181252
-1.84608
1.8222
0.0238779
-1.79556
1.76615
0.0294081
-1.73409
1.69942
0.0346784
-1.66223
1.62254
0.0396819
-1.58048
1.53602
0.044462
-1.48928
1.44027
0.049003
-1.38915
1.33592
0.0532228
-1.28073
1.22359
0.057135
-1.16462
1.10381
0.0608069
-1.04131
0.977181
0.0641302
-0.911469
0.844276
0.0671931
-0.77561
0.705563
0.0700471
-0.633824
0.560623
0.0732005
-0.485242
0.408091
0.0771506
-0.327491
0.244792
0.0826994
-0.15592
0.0665811
0.0893385
-0.00419509
0.00559715
1.85551
-1.85119
1.84424
-0.0140962
0.0210516
-1.83455
1.82212
-0.0256304
0.0380659
-1.80691
1.78894
-0.036943
0.0549102
-1.76824
1.74484
-0.0480015
0.0713991
-1.71879
1.69011
-0.0587873
0.0874631
-1.65886
1.62509
-0.0692483
0.103019
-1.58885
1.55019
-0.0793305
0.117988
-1.50916
1.46581
-0.0889626
0.132309
-1.4202
1.37238
-0.0981096
0.145925
-1.32242
1.27037
-0.106748
0.1588
-1.21628
1.16021
-0.114821
0.170893
-1.10221
1.04235
-0.122282
0.182139
-0.980686
0.917293
-0.129066
0.19246
-0.85225
0.785642
-0.13516
0.201768
-0.717565
0.648135
-0.140535
0.209965
-0.577504
0.505849
-0.145402
0.217057
-0.433447
0.360582
-0.150479
0.223345
-0.287584
0.214902
-0.15715
0.229832
-0.142677
0.0775835
-0.171247
0.236341
-0.00703142
0.00835583
1.78906
-1.78484
1.77805
-0.0282114
0.0349998
-1.76861
1.75652
-0.0507303
0.0628208
-1.74179
1.72443
-0.0729739
0.0903325
-1.70446
1.68191
-0.0948036
0.117356
-1.6568
1.62917
-0.116107
0.143736
-1.59906
1.56649
-0.136761
0.16933
-1.5315
1.49416
-0.156636
0.193984
-1.4545
1.41259
-0.175646
0.21755
-1.36851
1.3223
-0.193718
0.239923
-1.27405
1.22381
-0.210788
0.261021
-1.17167
1.1177
-0.226829
0.2808
-1.06197
1.00453
-0.241814
0.299255
-0.945436
0.884745
-0.255665
0.316355
-0.822503
0.758757
-0.268223
0.33197
-0.693561
0.626974
-0.279223
0.34581
-0.559068
0.489933
-0.288329
0.357464
-0.419708
0.348603
-0.295483
0.366588
-0.276923
0.205159
-0.301541
0.373305
-0.133859
0.0648298
-0.308712
0.377741
-0.00964568
0.0109242
1.72498
-1.72111
1.71468
-0.0417357
0.0481607
-1.7057
1.69416
-0.0748687
0.0864041
-1.68009
1.6635
-0.107629
0.12422
-1.6444
1.62283
-0.13984
0.161417
-1.59879
1.57231
-0.171315
0.197791
-1.54343
1.51216
-0.20187
0.233133
-1.47856
1.44265
-0.231323
0.267231
-1.40448
1.3641
-0.259497
0.299879
-1.32156
1.27691
-0.286232
0.330876
-1.23023
1.1816
-0.311401
0.360039
-1.13108
1.07877
-0.334921
0.387231
-1.02476
0.969142
-0.356776
0.412392
-0.912012
0.853453
-0.376981
0.43554
-0.793539
0.73233
-0.395478
0.456687
-0.669876
0.606215
-0.412002
0.475662
-0.541385
0.475417
-0.425953
0.491921
-0.408351
0.340256
-0.43649
0.504585
-0.271276
0.201727
-0.443363
0.512913
-0.132038
0.063613
-0.447643
0.516068
-0.0121453
0.0133523
1.6632
-1.65955
1.65345
-0.0545388
0.0606314
-1.64493
1.63399
-0.0978559
0.108795
-1.62064
1.60489
-0.140699
0.15645
-1.58675
1.56624
-0.18286
0.203372
-1.54337
1.51817
-0.22412
0.249325
-1.49065
1.46084
-0.264244
0.294054
-1.42877
1.39446
-0.302994
0.337295
-1.35797
1.31932
-0.340136
0.378787
-1.27856
1.23573
-0.375433
0.41826
-1.19089
1.1441
-0.408652
0.455441
-1.09543
1.04495
-0.439598
0.49008
-0.992741
0.938902
-0.468146
0.521985
-0.883533
0.82674
-0.494273
0.551066
-0.768628
0.709296
-0.518022
0.577354
-0.648828
0.587291
-0.539322
0.600859
-0.524729
0.461173
-0.55768
0.621236
-0.396638
0.331135
-0.571991
0.637494
-0.264693
0.197431
-0.580963
0.648225
-0.129454
0.0623782
-0.584291
0.651367
-0.0144995
0.0156272
1.60375
-1.60015
1.59442
-0.0666534
0.0723768
-1.58642
1.57613
-0.119611
0.129895
-1.56358
1.54875
-0.172033
0.186861
-1.53166
1.51231
-0.223682
0.243027
-1.49072
1.4669
-0.274307
0.298131
-1.44086
1.41261
-0.323633
0.351879
-1.38218
1.3496
-0.371371
0.403958
-1.31487
1.27805
-0.417232
0.454056
-1.23916
1.19823
-0.460917
0.501841
-1.15532
1.11047
-0.502112
0.546962
-1.06374
1.01518
-0.540517
0.589071
-0.964879
0.912901
-0.575873
0.627852
-0.859341
0.804299
-0.608014
0.663055
-0.747887
0.690217
-0.636918
0.694588
-0.631401
0.571538
-0.662632
0.722495
-0.510708
0.448965
-0.684907
0.746649
-0.386337
0.322824
-0.702702
0.766215
-0.258397
0.193042
-0.714137
0.779493
-0.126591
0.0611917
-0.717931
0.78333
-0.0166922
0.0177311
1.54611
-1.54308
1.53777
-0.0780029
0.083316
-1.53033
1.52078
-0.140009
0.149566
-1.50909
1.49529
-0.201456
0.215263
-1.47936
1.4613
-0.262092
0.280152
-1.44111
1.4188
-0.321644
0.343954
-1.39437
1.36782
-0.3798
0.406346
-1.33917
1.30842
-0.43623
0.466976
-1.2756
1.24071
-0.490592
0.52548
-1.20378
1.16484
-0.542524
0.581463
-1.12393
1.08106
-0.591637
0.634499
-1.0363
0.989696
-0.637536
0.684145
-0.941297
0.891174
-0.679845
0.729968
-0.839403
0.786073
-0.718237
0.771568
-0.731285
0.675155
-0.752531
0.808661
-0.617803
0.55935
-0.782731
0.841184
-0.499909
0.439573
-0.808769
0.869106
-0.378407
0.316444
-0.829826
0.891789
-0.253666
0.190002
-0.843804
0.907467
-0.124922
0.0616305
-0.848734
0.912026
-0.0187038
0.0196432
1.4909
-1.48813
1.48328
-0.0884994
0.0933539
-1.47648
1.46774
-0.158897
0.167643
-1.45703
1.44437
-0.228758
0.241427
-1.42972
1.41309
-0.297835
0.314467
-1.39446
1.37382
-0.365843
0.386481
-1.35117
1.32649
-0.432451
0.45713
-1.29978
1.27103
-0.497287
0.52603
-1.24026
1.20745
-0.559967
0.592772
-1.17263
1.13579
-0.620062
0.656899
-1.09696
1.05616
-0.677105
0.717902
-1.01343
0.968794
-0.730606
0.775241
-0.922304
0.874013
-0.780074
0.828365
-0.823984
0.772294
-0.825029
0.876719
-0.719033
0.664307
-0.865092
0.919818
-0.608239
0.55096
-0.900113
0.957392
-0.492604
0.433298
-0.930065
0.98937
-0.37315
0.312237
-0.954358
1.01527
-0.250577
0.188132
-0.970907
1.03335
-0.123786
0.0625387
-0.977477
1.03872
-0.0205123
0.02134
1.43755
-1.4349
1.43056
-0.0980428
0.102382
-1.42448
1.41665
-0.1761
0.183936
-1.40704
1.39565
-0.253698
0.265093
-1.38244
1.36741
-0.330614
0.34565
-1.35052
1.33174
-0.406574
0.425345
-1.31107
1.28846
-0.481235
0.50384
-1.26391
1.23738
-0.554202
0.58073
-1.20886
1.17834
-0.625047
0.655571
-1.1458
1.11123
-0.693281
0.727844
-1.07465
1.03605
-0.758351
0.796954
-0.995439
0.95285
-0.819667
0.862256
-0.908308
0.861853
-0.876611
0.923066
-0.813535
0.763417
-0.92855
0.978668
-0.711578
0.658113
-0.974892
1.02836
-0.60314
0.546795
-1.01525
1.0716
-0.489225
0.430583
-1.04949
1.10813
-0.371011
0.310628
-1.07715
1.13754
-0.249488
0.187613
-1.09625
1.15813
-0.123102
0.0633505
-1.10458
1.16434
-0.0220934
0.022797
1.38626
-1.38395
1.38018
-0.106518
0.110284
-1.3749
1.36807
-0.191415
0.198238
-1.35969
1.34971
-0.275994
0.285968
-1.33812
1.32486
-0.36008
0.373335
-1.30991
1.29322
-0.443432
0.460122
-1.27475
1.25446
-0.525717
0.54601
-1.2323
1.20823
-0.606528
0.630594
-1.18222
1.15422
-0.685408
0.713407
-1.1242
1.09213
-0.761809
0.793878
-1.05799
1.02176
-0.83509
0.871322
-0.983428
0.942998
-0.904551
0.944981
-0.900477
0.855887
-0.969437
1.01403
-0.809261
0.760644
-1.02894
1.07756
-0.710102
0.657719
-1.08224
1.13463
-0.603607
0.547902
-1.12867
1.18438
-0.490769
0.432394
-1.16787
1.22624
-0.372972
0.312697
-1.19938
1.25966
-0.251711
0.190229
-1.22143
1.28291
-0.125101
0.0667917
-1.23153
1.28984
-0.0234223
0.0239895
1.33665
-1.33471
1.33158
-0.113805
0.116938
-1.32718
1.32147
-0.20463
0.210332
-1.31444
1.30605
-0.295344
0.303742
-1.29624
1.28496
-0.385851
0.397123
-1.27218
1.25781
-0.475967
0.49033
-1.24181
1.22412
-0.565394
0.583093
-1.20465
1.18336
-0.653736
0.675031
-1.16017
1.13501
-0.740521
0.765675
-1.10783
1.07857
-0.825156
0.854418
-1.04717
1.01359
-0.906917
0.940498
-0.977789
0.939736
-0.984984
1.02304
-0.899412
0.856813
-1.05845
1.10105
-0.811944
0.764832
-1.12631
1.17343
-0.715518
0.664071
-1.1875
1.23894
-0.610588
0.555204
-1.24097
1.29636
-0.498091
0.439465
-1.28605
1.34467
-0.379575
0.318701
-1.32216
1.38303
-0.257087
0.195284
-1.34769
1.40949
-0.12826
0.0708995
-1.35976
1.41712
-0.0244753
0.0248955
1.2889
-1.28719
1.28475
-0.119784
0.122227
-1.28131
1.27683
-0.215528
0.220005
-1.27128
1.26461
-0.311434
0.318103
-1.25676
1.24768
-0.407515
0.4166
-1.23729
1.22551
-0.503675
0.515453
-1.21227
1.19747
-0.59968
0.614474
-1.18104
1.16287
-0.695175
0.713341
-1.14288
1.12096
-0.789701
0.811617
-1.09703
1.07098
-0.882644
0.908691
-1.04273
1.0122
-0.97321
1.00374
-0.9793
0.943969
-1.06047
1.0958
-0.906146
0.865788
-1.14334
1.1837
-0.822863
0.777363
-1.22062
1.26612
-0.729297
0.678706
-1.29091
1.3415
-0.625664
0.570294
-1.35279
1.40816
-0.512772
0.45334
-1.40507
1.4645
-0.392303
0.330041
-1.44686
1.50913
-0.266911
0.203977
-1.47667
1.5396
-0.133441
0.0767899
-1.49124
1.54789
-0.0252328
0.0254983
1.24302
-1.24175
1.24004
-0.124345
0.126052
-1.23762
1.23446
-0.223907
0.227074
-1.2305
1.22569
-0.323964
0.328773
-1.21997
1.21326
-0.424666
0.431375
-1.20548
1.19654
-0.526035
0.534976
-1.18634
1.17477
-0.627941
0.639508
-1.16172
1.14708
-0.730104
0.744749
-1.13071
1.11249
-0.832122
0.850341
-1.09229
1.06997
-0.933397
0.955719
-1.04539
1.01844
-1.0331
1.06006
-0.988971
0.956873
-1.13022
1.16232
-0.922031
0.884345
-1.22352
1.26121
-0.843728
0.800115
-1.31155
1.35517
-0.753465
0.703767
-1.39261
1.44231
-0.651056
0.595422
-1.46474
1.52038
-0.537031
0.476144
-1.52611
1.587
-0.413124
0.348475
-1.57528
1.63993
-0.282691
0.217558
-1.6107
1.67583
-0.141537
0.0850189
-1.62857
1.68509
-0.0256812
0.025788
1.19845
-1.19782
1.19687
-0.127404
0.128345
-1.19553
1.19373
-0.229607
0.231402
-1.19144
1.18859
-0.332681
0.335526
-1.18512
1.18095
-0.436937
0.441113
-1.17597
1.1701
-0.542548
0.548423
-1.16321
1.15519
-0.649525
0.657548
-1.1459
1.13519
-0.757714
0.768418
-1.12292
1.10893
-0.866819
0.880814
-1.09304
1.07507
-0.976324
0.994287
-1.05486
1.0322
-1.08543
1.10809
-1.00691
0.978801
-1.19309
1.2212
-0.947694
0.913407
-1.29798
1.33227
-0.875774
0.834644
-1.39843
1.43956
-0.789889
0.741415
-1.49238
1.54085
-0.689176
0.633194
-1.5773
1.63329
-0.57359
0.510621
-1.65048
1.71345
-0.444709
0.376518
-1.70959
1.77778
-0.306759
0.238174
-1.75277
1.82135
-0.154796
0.0982622
-1.77545
1.83198
-0.0258152
0.0257648
1.15573
-1.15556
1.15539
-0.128909
0.129075
-1.15513
1.15473
-0.232521
0.232922
-1.15414
1.15331
-0.337401
0.33823
-1.15217
1.15062
-0.444034
0.445576
-1.14859
1.14595
-0.552774
0.555409
-1.1426
1.13839
-0.663808
0.668015
-1.13318
1.12682
-0.777158
0.783523
-1.11912
1.1099
-0.892706
0.901925
-1.09896
1.08607
-1.01009
1.02298
-1.07101
1.05354
-1.12866
1.14613
-1.03339
1.0103
-1.24742
1.27051
-0.984007
0.954221
-1.36507
1.39485
-0.920666
0.883067
-1.47983
1.51743
-0.84116
0.794711
-1.58935
1.6358
-0.743523
0.687478
-1.69048
1.74652
-0.626571
0.560978
-1.77939
1.84498
-0.49111
0.417768
-1.8523
1.92564
-0.341952
0.267376
-1.90644
1.98101
-0.173558
0.11505
-1.9361
1.99461
-0.0256401
0.0254389
1.11448
-1.11459
1.11518
-0.128855
0.128263
-1.11598
1.11695
-0.232625
0.231652
-1.11805
1.11923
-0.338049
0.336873
-1.12041
1.12153
-0.445792
0.444678
-1.12248
1.12317
-0.556404
0.555712
-1.12348
1.12328
-0.670278
0.67048
-1.12242
1.12073
-0.787661
0.789352
-1.11802
1.1141
-0.908678
0.912597
-1.10874
1.10169
-1.03323
1.04028
-1.09268
1.08142
-1.16091
1.17217
-1.06758
1.05083
-1.29098
1.30773
-1.0308
1.00709
-1.42233
1.44604
-0.979281
0.946932
-1.55333
1.58568
-0.909588
0.86679
-1.68153
1.72433
-0.818099
0.763127
-1.80334
1.85831
-0.7016
0.633453
-1.91367
1.98182
-0.558946
0.478925
-2.00667
2.08669
-0.394797
0.311145
-2.07748
2.16113
-0.204203
0.141741
-2.11854
2.181
-0.0251714
0.0248313
1.07471
-1.07543
1.07674
-0.127289
0.125981
-1.07855
1.08083
-0.229985
0.227707
-1.08354
1.08664
-0.33468
0.331579
-1.09008
1.09378
-0.44221
0.438507
-1.09767
1.10167
-0.553315
0.549321
-1.10566
1.10952
-0.668613
0.664748
-1.11312
1.11631
-0.788607
0.785423
-1.1189
1.12069
-0.913724
0.911935
-1.12145
1.12093
-1.04422
1.04474
-1.11884
1.11485
-1.18007
1.18406
-1.10861
1.09971
-1.32099
1.32989
-1.0877
1.07209
-1.46636
1.48197
-1.0523
1.02772
-1.61505
1.63963
-0.997658
0.96135
-1.76509
1.80139
-0.91799
0.866743
-1.91293
1.96418
-0.80682
0.737601
-2.05259
2.12181
-0.658819
0.571015
-2.17558
2.26339
-0.475846
0.378491
-2.273
2.37035
-0.254525
0.183922
-2.33342
2.40402
-0.024435
0.0239724
1.03623
-1.03734
1.0393
-0.124309
0.122352
-1.04202
1.04549
-0.224763
0.221294
-1.04968
1.05455
-0.327493
0.322617
-1.06008
1.0662
-0.433475
0.427351
-1.07286
1.08
-0.543623
0.536484
-1.08754
1.09536
-0.658769
0.65094
-1.10338
1.11145
-0.779678
0.771608
-1.11942
1.12712
-0.907111
0.899411
-1.13435
1.14085
-1.04174
1.03523
-1.14638
1.1506
-1.18404
1.17982
-1.15316
1.15364
-1.33436
1.33388
-1.15157
1.14638
-1.49287
1.49807
-1.13742
1.12392
-1.65949
1.67298
-1.105
1.07959
-1.83349
1.8589
-1.04646
1.00419
-2.01271
2.05498
-0.95117
0.885752
-2.19172
2.25714
-0.806453
0.71261
-2.36028
2.45412
-0.605068
0.489374
-2.50371
2.6194
-0.342273
0.264626
-2.60547
2.68312
-0.0234649
0.0228994
0.999207
-1.00085
1.00337
-0.120062
0.117544
-1.00688
1.01139
-0.217213
0.212706
-1.01687
1.02331
-0.316826
0.310387
-1.03068
1.03897
-0.419977
0.411692
-1.04813
1.05813
-0.527713
0.517715
-1.06892
1.08043
-0.641044
0.629532
-1.09259
1.10532
-0.760973
0.748243
-1.11851
1.13203
-0.888574
0.875056
-1.14572
1.15941
-1.02494
1.01125
-1.17287
1.18586
-1.1711
1.15811
-1.19806
1.20912
-1.32811
1.31705
-1.21862
1.22603
-1.49718
1.48977
-1.23074
1.23198
-1.67968
1.67844
-1.2288
1.22003
-1.8771
1.88587
-1.20416
1.17931
-2.09046
2.11531
-1.14308
1.09251
-2.31836
2.36892
-1.02409
0.934267
-2.55347
2.6433
-0.820526
0.685082
-2.77852
2.91396
-0.504303
0.412485
-2.97491
3.06673
-0.0223012
0.0216538
0.963649
-0.965388
0.968368
-0.114732
0.111752
-0.97254
0.977903
-0.207657
0.202294
-0.984456
0.992197
-0.303133
0.295393
-1.00112
1.01123
-0.40228
0.392171
-1.02252
1.03497
-0.506227
0.493774
-1.04858
1.06331
-0.616101
0.601364
-1.07915
1.09606
-0.733077
0.716166
-1.11399
1.13288
-0.858478
0.83959
-1.15265
1.17319
-0.993747
0.973205
-1.19438
1.21608
-1.1404
1.11871
-1.23808
1.26017
-1.30017
1.27808
-1.28207
1.30344
-1.4752
1.45383
-1.32385
1.34277
-1.66845
1.64953
-1.3595
1.37312
-1.88404
1.87042
-1.38241
1.38565
-2.12769
2.12445
-1.38047
1.36352
-2.40614
2.42309
-1.33017
1.27406
-2.72511
2.78121
-1.18749
1.06018
-3.08544
3.21276
-0.87303
0.775722
-3.48865
3.58596
-0.00290753
-0.0764528
0.0793603
-0.108462
0.220398
-0.111936
-0.315455
0.394681
-0.0792258
-0.466385
0.515082
-0.0486975
-0.573289
0.628717
-0.0554279
-0.658056
0.654368
0.00368773
-0.630726
0.601303
0.029423
-0.576374
0.562514
0.0138607
-0.561853
0.569176
-0.00732379
-0.580418
0.595089
-0.0146715
-0.613909
0.635922
-0.0220124
-0.663516
0.698336
-0.0348201
-0.71901
0.693629
0.0253816
-0.668565
0.702073
-0.0335078
-0.815027
1.02458
-0.209549
-1.27457
1.50765
-0.233082
-1.72757
2.04056
-0.312992
-2.45809
3.00412
-0.546025
-3.56971
3.76262
-0.192913
-3.17707
3.29901
-0.121945
-3.75751
4.81887
-1.06136
-6.96936
9.0077
-2.03835
-9.70509
9.99658
-0.291487
-10.0617
9.89759
0.164145
-9.59268
9.27725
0.315429
-9.03451
8.87041
0.164102
-8.77512
8.7307
0.0444142
-8.71479
8.69988
0.0149085
-8.65569
8.56804
0.0876522
-8.43693
8.26074
0.176185
-8.00938
7.64843
0.36095
-7.26132
6.96718
0.294135
-6.79263
6.71093
0.0816915
-6.83058
7.05423
-0.223643
-7.27364
7.48178
-0.208143
-7.70771
8.00506
-0.297343
-8.44572
9.07523
-0.629511
-9.93089
11.0559
-1.12505
-12.4244
13.6953
-1.27081
-14.2326
13.5896
0.643
-13.0618
12.634
0.427808
-11.9497
11.6036
0.346095
-11.5196
10.9232
0.596437
-10.7276
11.6089
-0.881233
-11.0607
8.63991
2.42081
-8.47882
11.3479
-2.86907
-10.6341
6.02575
4.60833
-5.85773
5.97711
-0.11937
-6.12215
6.23126
-0.109105
-6.30487
6.3514
-0.0465367
-6.3797
6.39627
-0.0165725
-6.40506
6.40879
-0.00373501
-6.40886
6.40646
0.00239699
-6.40235
6.39702
0.00532806
-6.39096
6.38446
0.00649868
-6.37764
6.37086
0.00678325
-6.36393
6.35722
0.00670605
-6.35043
6.34389
0.00654736
-6.33734
6.33107
0.00627366
-6.32488
6.31902
0.00586004
0.17878
-0.321622
0.142842
-0.186033
0.261096
0.194043
-0.269106
-0.326804
0.383139
0.145453
-0.201787
-0.429472
0.472822
0.103837
-0.147186
-0.505981
0.533207
0.0901006
-0.117326
-0.557558
0.57014
0.00233557
-0.0149177
-0.569597
0.561065
-0.046249
0.0547812
-0.550408
0.541362
-0.0246801
0.033726
-0.539604
0.547418
0.0154183
-0.0232321
-0.562184
0.580637
0.0322578
-0.0507108
-0.600476
0.620636
0.042007
-0.0621664
-0.639
0.654261
0.0525996
-0.0678607
-0.672823
0.710152
-0.0103751
-0.0269537
-0.75556
0.817389
0.106096
-0.167925
-0.908933
1.03532
0.354549
-0.480939
-1.20901
1.43133
0.451573
-0.673894
-1.67753
2.00942
0.609412
-0.941301
-2.38206
2.72694
0.995678
-1.34056
-3.19959
4.03623
0.892026
-1.72867
-5.38603
5.67778
1.71094
-2.00269
-5.80228
5.898
1.36436
-1.46009
-5.99869
6.08863
0.894529
-0.984475
-6.20274
6.31269
0.49716
-0.607112
-6.45237
6.62229
0.0930016
-0.262927
-6.7995
6.95703
-0.125559
-0.0319684
-7.07698
7.16292
-0.0826986
-0.00324373
-7.22115
7.25855
-0.0153961
-0.0220097
-7.28148
7.29376
-0.0259647
0.013684
-7.3
7.30118
-0.148023
0.146846
-7.29827
7.29799
-0.299924
0.300198
-7.31346
7.35169
-0.386981
0.348756
-7.3986
7.43781
-0.266783
0.227567
-7.47244
7.50786
-0.00684904
-0.0285763
-7.52142
7.53819
0.290201
-0.306974
-7.57745
7.63274
0.325683
-0.380973
-7.69548
7.75209
0.442898
-0.499505
-7.77949
7.76117
0.800084
-0.781759
-7.69714
7.59467
1.07523
-0.972761
-7.45448
7.27848
0.91923
-0.743232
-7.0568
7.22168
0.140885
-0.305761
-7.42327
7.61613
-0.270036
0.0771833
-7.8553
7.94171
-0.358634
0.272215
-7.96119
8.25638
-0.424835
0.129646
-8.59949
8.60314
0.867991
-0.871641
-8.42729
7.97988
-2.83348
3.2809
-6.90594
5.59577
0.14152
1.16865
-5.23766
6.6006
-3.03094
1.668
-6.75382
6.81201
0.344219
-0.40241
-6.83421
6.83884
0.159564
-0.164186
-6.83535
6.82792
0.054055
-0.0466317
-6.81922
6.81056
0.0139184
-0.00526026
-6.80229
6.79422
-0.0013488
0.00941091
-6.78624
6.77818
-0.00882685
0.0168895
-6.77003
6.76188
-0.0125575
0.020707
-6.75377
6.74579
-0.013978
0.0219646
-6.73801
6.73045
-0.0141103
0.0216774
-6.72322
6.71627
-0.0136569
0.0206112
-6.70967
6.70333
-0.0130849
0.019434
-6.69731
6.69149
-0.0124009
0.018219
-6.68607
6.68079
-0.0115039
0.0167775
0.455218
-0.566357
0.111139
-0.209893
0.26581
0.327116
-0.383033
-0.313948
0.354844
0.247002
-0.287898
-0.387487
0.415071
0.181061
-0.208645
-0.436361
0.453695
0.139417
-0.156751
-0.470827
0.489813
0.0311548
-0.050141
-0.503832
0.509837
-0.0565751
0.0505697
-0.510195
0.509618
-0.0380412
0.0386183
-0.510345
0.517033
0.0303927
-0.0370803
-0.531145
0.549743
0.0691638
-0.0877617
-0.570496
0.591645
0.0825974
-0.103746
-0.610974
0.62836
0.0840658
-0.101452
-0.649459
0.679326
0.0620446
-0.0919109
-0.712839
0.751015
0.218413
-0.256588
-0.805558
0.891365
0.586471
-0.672277
-1.02093
1.24327
0.897431
-1.11977
-1.60985
2.28153
1.36757
-2.03925
-3.30952
4.3085
1.85246
-2.85145
-4.77908
5.01484
2.65976
-2.89552
-5.22789
5.41198
2.19176
-2.37585
-5.57675
5.73482
1.60633
-1.76439
-5.88194
6.01246
1.1019
-1.23242
-6.13685
6.24569
0.712815
-0.821654
-6.34976
6.45884
0.389363
-0.49844
-6.5693
6.67068
0.154264
-0.255641
-6.75407
6.81698
0.077456
-0.140369
-6.86064
6.88886
0.0565378
-0.0847609
-6.90738
6.92298
0.00384104
-0.0194365
-6.94236
6.96943
-0.123544
0.0964719
-7.00556
7.04973
-0.261917
0.217747
-7.09917
7.14875
-0.296692
0.247115
-7.1931
7.22869
-0.186143
0.150552
-7.25218
7.25891
0.0465104
-0.0532326
-7.24686
7.22993
0.299815
-0.282887
-7.22318
7.23063
0.402743
-0.410191
-7.24763
7.26338
0.521289
-0.537038
-7.26468
7.24221
0.742444
-0.719974
-7.19367
7.13011
0.873129
-0.809572
-7.07461
7.03675
0.6645
-0.626637
-7.01174
6.99918
0.252907
-0.240349
-7.00498
7.00138
-0.126737
0.130334
-6.93023
6.76651
-0.239358
0.403082
-6.58473
6.46055
0.0513074
0.0728702
-6.19588
5.85616
0.717596
-0.377874
-5.85657
6.24611
-3.21933
2.82979
-6.52023
6.63879
-2.03055
1.91198
-7.11417
7.57198
-0.622087
0.164279
-7.33512
7.20373
0.304211
-0.172817
-7.11976
7.0658
0.130489
-0.076531
-7.03167
7.00978
0.0291516
-0.00726551
-6.99472
6.98316
-0.0056404
0.017207
-6.97327
6.9639
-0.0183117
0.0276838
-6.95449
6.94494
-0.0256797
0.0352238
-6.9354
6.92605
-0.029369
0.038719
-6.917
6.90831
-0.0302202
0.0389186
-6.9
6.89214
-0.0293051
0.0371642
-6.88478
6.87792
-0.0274416
0.0343037
-6.87157
6.86569
-0.0254863
0.0313732
-6.86021
6.8551
-0.0236231
0.0287272
-6.8504
6.84604
-0.021544
0.0259032
0.665905
-0.751767
0.0858618
-0.172428
0.228518
0.440298
-0.496389
-0.273224
0.309659
0.326391
-0.362827
-0.33633
0.354835
0.230796
-0.249301
-0.367023
0.376815
0.169966
-0.179758
-0.389616
0.409837
0.0705092
-0.0907308
-0.431756
0.44962
-0.0383612
0.0204975
-0.459478
0.464324
-0.0368842
0.0320387
-0.467929
0.475395
0.0439902
-0.0514562
-0.490141
0.509013
0.106289
-0.12516
-0.530117
0.552114
0.125175
-0.147172
-0.572792
0.590139
0.119182
-0.136529
-0.60624
0.620626
0.113747
-0.128133
-0.631321
0.638614
0.280096
-0.28739
-0.656025
0.716742
0.741612
-0.802329
-0.819446
2.56857
1.24971
-2.99883
-4.25094
4.44578
3.67414
-3.86898
-4.69134
4.91675
3.09534
-3.32074
-5.05044
5.14588
2.99325
-3.08869
-5.25625
5.3893
2.52702
-2.66008
-5.5352
5.68679
1.91958
-2.07117
-5.83562
5.97591
1.36878
-1.50907
-6.10573
6.22153
0.9344
-1.0502
-6.32412
6.41854
0.597674
-0.692093
-6.50462
6.57988
0.341062
-0.416323
-6.64131
6.6872
0.193129
-0.239016
-6.7174
6.73475
0.106612
-0.123954
-6.74405
6.75073
0.03008
-0.0367619
-6.75967
6.77394
-0.0756697
0.0613987
-6.79421
6.81932
-0.182209
0.157102
-6.84741
6.87564
-0.20809
0.179859
-6.90094
6.92036
-0.123824
0.104404
-6.93075
6.92973
0.053969
-0.0529429
-6.91855
6.90477
0.265552
-0.251765
-6.89693
6.90007
0.414035
-0.417174
-6.91408
6.93452
0.555608
-0.576045
-6.9547
6.96894
0.719231
-0.733471
-6.97338
6.97088
0.781231
-0.778738
-6.96924
6.97596
0.615647
-0.622372
-6.99459
7.02482
0.255378
-0.285612
-7.05903
7.07999
-0.131083
0.110129
-7.08163
7.07234
-0.431351
0.440648
-7.08114
6.82141
-0.50972
0.769445
-6.15765
5.40413
-0.250481
1.004
-5.35391
6.25226
-2.08231
1.18396
-7.20465
7.67399
-1.30156
0.832221
-7.69977
7.5951
-0.215204
0.319878
-7.4709
7.35642
0.0452675
0.069215
-7.27289
7.21858
0.0184725
0.0358361
-7.18433
7.1623
-0.0153301
0.0373617
-7.14696
7.1349
-0.0288645
0.0409289
-7.12419
7.1136
-0.0374438
0.0480329
-7.10249
7.09089
-0.0455373
0.0571325
-7.07936
7.06829
-0.0487227
0.0597896
-7.05787
7.0481
-0.0480036
0.0577718
-7.039
7.03057
-0.0451908
0.0536287
-7.02285
7.01586
-0.0411239
0.0481122
-7.0096
7.00401
-0.0370426
0.042639
-6.99896
6.9944
-0.0334839
0.0380402
-6.99029
6.98667
-0.0298199
0.033436
0.826902
-0.893927
0.0670257
-0.135816
0.184092
0.548517
-0.596793
-0.222844
0.253041
0.396139
-0.426336
-0.275234
0.289139
0.265171
-0.279077
-0.296313
0.299737
0.18589
-0.189313
-0.305654
0.319543
0.108312
-0.122201
-0.343513
0.370557
0.0019367
-0.0289801
-0.392524
0.408533
-0.0224049
0.00639538
-0.420365
0.430994
0.0599567
-0.0705853
-0.446872
0.465756
0.143878
-0.162761
-0.486512
0.508303
0.169374
-0.191165
-0.528343
0.545932
0.153332
-0.170921
-0.558352
0.564141
0.137488
-0.143278
-0.555626
0.541835
0.276608
-0.262817
-0.178549
2.14621
0.686575
-2.65423
-4.13191
4.13116
4.78408
-4.78333
-4.28235
4.47013
4.0714
-4.25918
-4.6695
4.87228
3.5243
-3.72708
-5.04944
5.19099
3.20616
-3.3477
-5.31865
5.4471
2.78526
-2.91371
-5.58183
5.72042
2.21456
-2.35315
-5.85928
5.99211
1.64579
-1.77862
-6.1159
6.22613
1.16338
-1.27362
-6.32268
6.40682
0.78032
-0.864461
-6.47847
6.5379
0.482365
-0.541792
-6.58597
6.62201
0.278889
-0.314927
-6.64481
6.65667
0.137811
-0.149666
-6.66257
6.66715
0.0413472
-0.0459316
-6.67403
6.68478
-0.0508405
0.0400908
-6.69832
6.71321
-0.139596
0.124705
-6.72976
6.74816
-0.159177
0.140778
-6.76724
6.78472
-0.0884237
0.0709455
-6.79709
6.80154
0.0534075
-0.0578584
-6.79961
6.79509
0.242672
-0.238151
-6.7913
6.79061
0.418876
-0.418183
-6.79461
6.80342
0.592685
-0.601497
-6.81764
6.8358
0.753254
-0.771407
-6.85588
6.87713
0.792239
-0.813491
-6.90133
6.92975
0.642419
-0.670848
-6.96465
7.00786
0.325807
-0.369017
-7.05846
7.11152
-0.0657213
0.0126681
-7.16378
7.21186
-0.433501
0.385416
-7.2528
7.29232
-0.738573
0.699055
-7.34069
7.3983
-0.972746
0.915133
-7.47822
7.58001
-1.05834
0.956556
-7.65461
7.67682
-0.774881
0.752667
-7.65267
7.59526
-0.397829
0.455239
-7.52326
7.45538
-0.159809
0.227692
-7.40229
7.3645
-0.081734
0.119526
-7.33818
7.31907
-0.0577949
0.0769071
-7.30371
7.29007
-0.0534669
0.067099
-7.27729
7.26433
-0.0595777
0.0725405
-7.25026
7.2353
-0.0701366
0.0850998
-7.2206
7.207
-0.0719226
0.0855178
-7.19463
7.18337
-0.068148
0.0794032
-7.17309
7.16376
-0.0623984
0.0717278
-7.15536
7.14795
-0.0552091
0.0626192
-7.14149
7.13591
-0.0481284
0.0537047
-7.13106
7.12681
-0.0423682
0.0466173
-7.12303
7.11988
-0.0367541
0.0399101
0.947697
-0.987265
0.0395678
-0.0970274
0.134482
0.638634
-0.676089
-0.166197
0.19219
0.453597
-0.479591
-0.211524
0.223273
0.291583
-0.303332
-0.228031
0.228155
0.190987
-0.191111
-0.227027
0.231666
0.131999
-0.136637
-0.248223
0.277014
0.0583929
-0.0871834
-0.307668
0.334494
0.014398
-0.0412237
-0.360417
0.384014
0.0862318
-0.109829
-0.404914
0.426345
0.18159
-0.203022
-0.451413
0.474877
0.212711
-0.236175
-0.494365
0.509066
0.187205
-0.201906
-0.518544
0.519618
0.147506
-0.148579
-0.533099
0.673505
0.151106
-0.291512
-3.24884
3.82932
4.8254
-5.40588
-3.97132
4.10729
4.92626
-5.06222
-4.26551
4.4535
4.44602
-4.63401
-4.65631
4.86355
3.93144
-4.13868
-5.05782
5.2291
3.50613
-3.67741
-5.38064
5.51967
3.04711
-3.18614
-5.65309
5.78225
2.48659
-2.61575
-5.90792
6.02714
1.90407
-2.02329
-6.13781
6.23633
1.37761
-1.47613
-6.32195
6.39607
0.942725
-1.01684
-6.45644
6.50419
0.594307
-0.642064
-6.54411
6.5766
0.347878
-0.380363
-6.59831
6.60999
0.160524
-0.172202
-6.61828
6.62766
0.0521374
-0.0615087
-6.64133
6.66114
-0.0260398
0.00623661
-6.68305
6.70424
-0.108384
0.0871869
-6.72617
6.7511
-0.120764
0.0958366
-6.77853
6.8075
-0.0486186
0.0196436
-6.83447
6.85351
0.0683157
-0.0873572
-6.86349
6.86785
0.238346
-0.242705
-6.86819
6.8651
0.415827
-0.412733
-6.85824
6.84772
0.60007
-0.589556
-6.83809
6.83528
0.781317
-0.778508
-6.84124
6.85709
0.835255
-0.851104
-6.88268
6.91651
0.703591
-0.737415
-6.95683
7.0032
0.413623
-0.459988
-7.05519
7.11131
0.0420007
-0.0981218
-7.17038
7.23127
-0.328478
0.267585
-7.29358
7.35749
-0.641024
0.577114
-7.42296
7.48837
-0.849574
0.784157
-7.55062
7.60451
-0.890818
0.836925
-7.64138
7.6575
-0.738961
0.72284
-7.65319
7.63239
-0.492757
0.513557
-7.60217
7.57019
-0.275165
0.307145
-7.54193
7.51887
-0.149166
0.172224
-7.49994
7.48343
-0.0944439
0.110951
-7.46699
7.44993
-0.0820109
0.0990796
-7.43355
7.41769
-0.0868301
0.10269
-7.40043
7.38119
-0.101995
0.121234
-7.36259
7.34616
-0.100436
0.116868
-7.33178
7.31894
-0.0913782
0.104218
-7.3074
7.29704
-0.0814978
0.0918551
-7.28781
7.27976
-0.0702793
0.0783366
-7.27287
7.26704
-0.0593224
0.0651462
-7.26212
7.2579
-0.0508009
0.0550129
-7.25424
7.25122
-0.0429346
0.0459497
1.01559
-1.03298
0.017391
-0.0573499
0.0853724
0.708494
-0.736517
-0.110269
0.131418
0.503241
-0.524389
-0.148827
0.160364
0.31523
-0.326768
-0.166343
0.166222
0.190014
-0.189893
-0.161963
0.157801
0.136203
-0.132041
-0.16078
0.176658
0.109865
-0.125743
-0.209048
0.248903
0.0759089
-0.115764
-0.291478
0.329731
0.140305
-0.178558
-0.359738
0.396592
0.231015
-0.267868
-0.429366
0.455765
0.260362
-0.286762
-0.475935
0.487705
0.214763
-0.226533
-0.490673
0.536689
0.15215
-0.198166
-1.03687
3.68108
1.91772
-4.56193
-3.71658
3.85671
5.50586
-5.64598
-3.9962
4.14993
5.20466
-5.35839
-4.31747
4.50378
4.8196
-5.0059
-4.70274
4.90507
4.34188
-4.54421
-5.0998
5.27801
3.85315
-4.03135
-5.43703
5.57907
3.32804
-3.47009
-5.70853
5.82679
2.73949
-2.85774
-5.93798
6.04134
2.13375
-2.23711
-6.13776
6.22381
1.56702
-1.65307
-6.29818
6.36662
1.08664
-1.15508
-6.42341
6.46547
0.685475
-0.727536
-6.50404
6.54303
0.414321
-0.453312
-6.57728
6.59807
0.186788
-0.207582
-6.61668
6.63577
0.0752084
-0.0942988
-6.65858
6.68784
0.0184989
-0.0477675
-6.72328
6.76157
-0.0588736
0.0205772
-6.80165
6.84229
-0.0641761
0.0235398
-6.87926
6.91497
0.0135496
-0.0492679
-6.95013
6.98247
0.115771
-0.14811
-7.00709
7.01875
0.251093
-0.26276
-7.02267
7.02299
0.410627
-0.410947
-7.01889
7.00625
0.573301
-0.560664
-6.98204
6.95044
0.760268
-0.728663
-6.91947
6.90638
0.856543
-0.843455
-6.91646
6.94399
0.768143
-0.795676
-6.98262
7.02937
0.506268
-0.553025
-7.08206
7.13905
0.154419
-0.211404
-7.2001
7.26265
-0.206115
0.143567
-7.32746
7.39331
-0.512365
0.446514
-7.45903
7.52237
-0.720848
0.657504
-7.58048
7.63037
-0.787132
0.737238
-7.67023
7.69839
-0.701215
0.673052
-7.71413
7.71833
-0.52043
0.516234
-7.71424
7.70511
-0.326344
0.335475
-7.6937
7.6814
-0.189289
0.20159
-7.66706
7.65194
-0.126361
0.141487
-7.63384
7.60958
-0.118873
0.143138
-7.58585
7.56671
-0.119776
0.138908
-7.54893
7.52561
-0.142631
0.165949
-7.50285
7.48458
-0.134218
0.152494
-7.46934
7.45556
-0.117553
0.131328
-7.44274
7.43148
-0.102582
0.113836
-7.42181
7.41336
-0.0865793
0.0950262
-7.40604
7.39978
-0.0711409
0.0774019
-7.39456
7.39022
-0.0592637
0.0635994
-7.38679
7.38374
-0.0489626
0.0520157
1.0403
-1.03811
-0.00218413
-0.0227081
0.0420172
0.759711
-0.77902
-0.0604623
0.0761778
0.542616
-0.558332
-0.0890122
0.0999938
0.338103
-0.349085
-0.1078
0.111849
0.192169
-0.196217
-0.111059
0.106395
0.126736
-0.122071
-0.102326
0.108645
0.136079
-0.142398
-0.13154
0.17042
0.157381
-0.196262
-0.21658
0.268381
0.223887
-0.275689
-0.324514
0.374306
0.31097
-0.360762