/*--------------------------------*- C++ -*----------------------------------*\
| =========                 |                                                 |
| \\      /  F ield         | OpenFOAM: The Open Source CFD Toolbox           |
|  \\    /   O peration     | Version:  v1912                                 |
|   \\  /    A nd           | Website:  www.openfoam.com                      |
|    \\/     M anipulation  |                                                 |
\*---------------------------------------------------------------------------*/
FoamFile
{
    version     2.0;
    format      ascii;
    class       volVectorField;
    location    "48";
    object      U;
}
// * * * * * * * * * * * * * * * * * * * * * * * * * * * * * * * * * * * * * //

dimensions      [0 1 -1 0 0 0 0];


internalField   nonuniform List<vector> 
20320
(
(1.85602 0.00631722 0)
(1.85501 -0.00461956 0)
(1.83924 0.00508352 0)
(1.80981 0.0127392 0)
(1.76897 0.019928 0)
(1.71759 0.0267413 0)
(1.65587 0.0330424 0)
(1.58419 0.0388194 0)
(1.50306 0.0444095 0)
(1.41292 0.0499174 0)
(1.31432 0.0548898 0)
(1.20787 0.0594537 0)
(1.09412 0.0639672 0)
(0.973555 0.0680759 0)
(0.846792 0.0720507 0)
(0.714338 0.0758567 0)
(0.576158 0.0803333 0)
(0.430975 0.0870507 0)
(0.276102 0.0962562 0)
(0.105396 0.0955116 0)
(1.85618 0.0112417 0)
(1.84774 0.0356737 0)
(1.82838 0.0666772 0)
(1.79812 0.0978378 0)
(1.75684 0.12843 0)
(1.70476 0.158305 0)
(1.6423 0.187352 0)
(1.56987 0.215411 0)
(1.48786 0.242264 0)
(1.39667 0.267791 0)
(1.29678 0.291983 0)
(1.18863 0.314712 0)
(1.07267 0.33578 0)
(0.949372 0.355039 0)
(0.819307 0.372366 0)
(0.683159 0.387597 0)
(0.541881 0.400914 0)
(0.397038 0.413432 0)
(0.251195 0.428162 0)
(0.107132 0.460248 0)
(1.85618 0.0171116 0)
(1.84766 0.0694572 0)
(1.82819 0.1251 0)
(1.79769 0.180287 0)
(1.75632 0.234561 0)
(1.7043 0.287575 0)
(1.64188 0.339049 0)
(1.56935 0.388644 0)
(1.48712 0.436063 0)
(1.39569 0.481122 0)
(1.29561 0.523667 0)
(1.18748 0.56362 0)
(1.07189 0.600951 0)
(0.949355 0.635525 0)
(0.820279 0.666991 0)
(0.68507 0.694703 0)
(0.544226 0.717744 0)
(0.398552 0.735498 0)
(0.249471 0.749569 0)
(0.100624 0.784559 0)
(1.85617 0.0228451 0)
(1.84791 0.0998601 0)
(1.82873 0.179206 0)
(1.79854 0.257664 0)
(1.7575 0.334811 0)
(1.70583 0.41022 0)
(1.64373 0.483454 0)
(1.57147 0.554076 0)
(1.48939 0.621653 0)
(1.39788 0.685779 0)
(1.29748 0.74611 0)
(1.1888 0.802402 0)
(1.07262 0.854589 0)
(0.949726 0.902737 0)
(0.820857 0.946811 0)
(0.686534 0.986315 0)
(0.547085 1.01994 0)
(0.402769 1.04572 0)
(0.253996 1.06306 0)
(0.103208 1.09775 0)
(1.85617 0.0283171 0)
(1.84805 0.127931 0)
(1.82918 0.229593 0)
(1.79947 0.330167 0)
(1.75903 0.42917 0)
(1.70805 0.526094 0)
(1.64669 0.620395 0)
(1.57517 0.711512 0)
(1.49377 0.798893 0)
(1.40284 0.881974 0)
(1.30281 0.96019 0)
(1.19422 1.03304 0)
(1.07773 1.10017 0)
(0.954192 1.16147 0)
(0.824545 1.21704 0)
(0.689657 1.26684 0)
(0.550103 1.30992 0)
(0.406082 1.34392 0)
(0.257447 1.36662 0)
(0.104697 1.40284 0)
(1.85617 0.0334567 0)
(1.84826 0.154433 0)
(1.82986 0.277208 0)
(1.80087 0.398781 0)
(1.76136 0.518612 0)
(1.71143 0.636121 0)
(1.6512 0.750677 0)
(1.58082 0.861609 0)
(1.5005 0.968245 0)
(1.41052 1.06988 0)
(1.31123 1.16578 0)
(1.20309 1.25521 0)
(1.08667 1.33755 0)
(0.962717 1.41232 0)
(0.832169 1.47942 0)
(0.696075 1.53896 0)
(0.555334 1.59054 0)
(0.41037 1.63204 0)
(0.260899 1.66033 0)
(0.105445 1.6996 0)
(1.85617 0.0382265 0)
(1.84855 0.179192 0)
(1.83083 0.321732 0)
(1.80286 0.463044 0)
(1.76465 0.602563 0)
(1.71624 0.739664 0)
(1.65765 0.873644 0)
(1.58891 1.00374 0)
(1.51016 1.12916 0)
(1.42156 1.24907 0)
(1.32337 1.36256 0)
(1.21596 1.46869 0)
(1.0998 1.56657 0)
(0.975548 1.65539 0)
(0.844053 1.73464 0)
(0.706414 1.80427 0)
(0.563779 1.86417 0)
(0.416946 1.91273 0)
(0.265838 1.94644 0)
(0.107319 1.98873 0)
(1.85618 0.0425821 0)
(1.84896 0.202003 0)
(1.83215 0.362809 0)
(1.80557 0.522469 0)
(1.76914 0.680433 0)
(1.72281 0.836067 0)
(1.66646 0.988619 0)
(1.60001 1.13725 0)
(1.52344 1.28107 0)
(1.43678 1.4191 0)
(1.34015 1.55025 0)
(1.2338 1.67337 0)
(1.1181 1.78731 0)
(0.993576 1.89091 0)
(0.861001 1.98323 0)
(0.721448 2.0638 0)
(0.576217 2.13254 0)
(0.426468 2.18825 0)
(0.272443 2.22744 0)
(0.109101 2.27132 0)
(1.85618 0.0464727 0)
(1.84949 0.222635 0)
(1.83388 0.400035 0)
(1.80913 0.576498 0)
(1.77507 0.751537 0)
(1.73149 0.924553 0)
(1.67814 1.09478 0)
(1.61477 1.26133 0)
(1.54117 1.42323 0)
(1.45718 1.57935 0)
(1.36274 1.72843 0)
(1.25793 1.86907 0)
(1.14294 1.99984 0)
(1.01819 2.11924 0)
(0.884344 2.22584 0)
(0.742408 2.31861 0)
(0.593784 2.39713 0)
(0.439934 2.46037 0)
(0.281303 2.50479 0)
(0.110242 2.54949 0)
(1.85618 0.0498445 0)
(1.85017 0.240831 0)
(1.8361 0.432955 0)
(1.81369 0.624491 0)
(1.78267 0.81508 0)
(1.74266 1.0042 0)
(1.69324 1.19112 0)
(1.63393 1.37495 0)
(1.56431 1.55464 0)
(1.48395 1.72895 0)
(1.39255 1.8964 0)
(1.28994 2.05538 0)
(1.17611 2.20411 0)
(1.05127 2.34071 0)
(0.915931 2.46322 0)
(0.771034 2.56994 0)
(0.618065 2.65985 0)
(0.458906 2.73179 0)
(0.294469 2.78207 0)
(0.114012 2.82602 0)
(1.85618 0.0526425 0)
(1.851 0.256321 0)
(1.83885 0.461089 0)
(1.81937 0.66577 0)
(1.79214 0.87019 0)
(1.75665 1.07397 0)
(1.71225 1.27649 0)
(1.65822 1.47686 0)
(1.59383 1.67404 0)
(1.51837 1.86669 0)
(1.43119 2.05317 0)
(1.33178 2.23157 0)
(1.21981 2.39979 0)
(1.09521 2.55548 0)
(0.958248 2.6961 0)
(0.809709 2.81913 0)
(0.651103 2.9227 0)
(0.484717 3.00516 0)
(0.311934 3.06246 0)
(0.117514 3.10379 0)
(1.85618 0.0548164 0)
(1.85201 0.268842 0)
(1.84216 0.48396 0)
(1.82621 0.699635 0)
(1.80363 0.915948 0)
(1.77371 1.13274 0)
(1.73558 1.34953 0)
(1.68826 1.56556 0)
(1.63068 1.77983 0)
(1.56175 1.99098 0)
(1.48038 2.19721 0)
(1.38562 2.39639 0)
(1.27667 2.58605 0)
(1.15302 2.76334 0)
(1.01454 2.92502 0)
(0.861734 3.06761 0)
(0.696032 3.18803 0)
(0.520132 3.28365 0)
(0.335807 3.34955 0)
(0.121273 3.38696 0)
(1.85619 0.0563257 0)
(1.85319 0.278164 0)
(1.84603 0.50114 0)
(1.83423 0.725441 0)
(1.81715 0.951467 0)
(1.79393 1.17934 0)
(1.76348 1.40883 0)
(1.72452 1.63937 0)
(1.67563 1.87011 0)
(1.61528 2.09976 0)
(1.54187 2.32647 0)
(1.45384 2.54795 0)
(1.34975 2.7614 0)
(1.2284 2.96345 0)
(1.08902 3.1501 0)
(0.931528 3.31671 0)
(0.757088 3.45859 0)
(0.568751 3.5715 0)
(0.368672 3.64902 0)
(0.126232 3.68206 0)
(1.85619 0.0571446 0)
(1.85451 0.284113 0)
(1.8504 0.512295 0)
(1.84333 0.742655 0)
(1.8326 0.97596 0)
(1.81721 1.21268 0)
(1.79588 1.45293 0)
(1.7671 1.69645 0)
(1.72909 1.94265 0)
(1.67985 2.19046 0)
(1.6172 2.43816 0)
(1.53882 2.68342 0)
(1.44241 2.92327 0)
(1.32577 3.15393 0)
(1.18706 3.37061 0)
(1.02516 3.56732 0)
(0.840459 3.73727 0)
(0.636166 3.87374 0)
(0.415096 3.96779 0)
(0.13619 3.99725 0)
(1.8562 0.0572676 0)
(1.85596 0.286599 0)
(1.85517 0.51723 0)
(1.85333 0.750921 0)
(1.84967 0.988835 0)
(1.84315 1.23186 0)
(1.83239 1.4805 0)
(1.81567 1.73494 0)
(1.79094 1.995 0)
(1.75576 2.26003 0)
(1.70735 2.52865 0)
(1.64257 2.7988 0)
(1.55802 3.0676 0)
(1.45012 3.33115 0)
(1.31537 3.58407 0)
(1.15079 3.81904 0)
(0.955003 4.02666 0)
(0.730431 4.19642 0)
(0.480429 4.31502 0)
(0.151819 4.34374 0)
(1.8562 0.0567117 0)
(1.85748 0.285639 0)
(1.86021 0.515939 0)
(1.86392 0.75014 0)
(1.8679 0.989807 0)
(1.8711 1.23626 0)
(1.87216 1.49048 0)
(1.8693 1.75317 0)
(1.8603 2.02474 0)
(1.84242 2.30514 0)
(1.81237 2.59366 0)
(1.76621 2.88884 0)
(1.69936 3.18844 0)
(1.60655 3.489 0)
(1.48191 3.78523 0)
(1.31942 4.06896 0)
(1.11413 4.32808 0)
(0.865661 4.54681 0)
(0.57762 4.70439 0)
(0.185248 4.7386 0)
(1.8562 0.0555178 0)
(1.85902 0.281364 0)
(1.86534 0.508619 0)
(1.87476 0.740512 0)
(1.88667 0.97897 0)
(1.90016 1.22574 0)
(1.91398 1.4823 0)
(1.92646 1.74992 0)
(1.93542 2.02972 0)
(1.93807 2.32248 0)
(1.93083 2.62841 0)
(1.90923 2.94717 0)
(1.86766 3.27774 0)
(1.79915 3.61807 0)
(1.69499 3.96428 0)
(1.54477 4.30892 0)
(1.3372 4.63837 0)
(1.06447 4.93083 0)
(0.726996 5.15295 0)
(0.249488 5.20449 0)
(1.8562 0.0537481 0)
(1.86053 0.274022 0)
(1.87037 0.495686 0)
(1.88544 0.722556 0)
(1.90528 0.956853 0)
(1.92922 1.20069 0)
(1.95627 1.45602 0)
(1.98504 1.72467 0)
(2.01366 2.00853 0)
(2.03959 2.30929 0)
(2.05941 2.62835 0)
(2.0686 2.96682 0)
(2.06115 3.32561 0)
(2.02895 3.70524 0)
(1.9609 4.10513 0)
(1.84166 4.52174 0)
(1.65077 4.94426 0)
(1.36519 5.34847 0)
(0.969543 5.68559 0)
(0.367052 5.79768 0)
(1.85621 0.0514817 0)
(1.86194 0.263962 0)
(1.87511 0.477744 0)
(1.89555 0.697093 0)
(1.92302 0.924425 0)
(1.95713 1.16212 0)
(1.99728 1.4125 0)
(2.04257 1.67791 0)
(2.09165 1.96089 0)
(2.14262 2.26406 0)
(2.19275 2.59003 0)
(2.23819 2.94151 0)
(2.27357 3.32173 0)
(2.29113 3.73461 0)
(2.27933 4.18486 0)
(2.22014 4.67704 0)
(2.08462 5.21149 0)
(1.82799 5.77528 0)
(1.39158 6.31989 0)
(0.595843 6.63657 0)
(1.85621 0.0488089 0)
(1.86322 0.251604 0)
(1.8794 0.455546 0)
(1.90474 0.665191 0)
(1.93922 0.883029 0)
(1.9828 1.11159 0)
(2.03533 1.35342 0)
(2.09648 1.61121 0)
(2.1657 1.88798 0)
(2.24201 2.18712 0)
(2.32384 2.5122 0)
(2.40884 2.86734 0)
(2.49347 3.25779 0)
(2.57244 3.6908 0)
(2.63731 4.17685 0)
(2.67354 4.73113 0)
(2.65402 5.37365 0)
(2.52548 6.12602 0)
(2.18055 7.00016 0)
(1.30903 7.82674 0)
(0.20934 -0.0508376 0)
(0.718049 -0.162412 0)
(1.42426 -0.100485 0)
(1.92317 -0.04627 5.08105e-21)
(2.35338 -0.0798813 0)
(2.55334 0.0111507 0)
(2.3548 0.0471726 0)
(2.17126 0.022089 0)
(2.16982 -0.00493859 0)
(2.26495 -0.0129575 3.80346e-21)
(2.42297 -0.0264596 0)
(2.65126 -0.0611028 0)
(2.67127 0.0529902 -3.27946e-21)
(2.55547 0.0645699 2.55736e-21)
(3.67509 -0.362359 0)
(5.45845 -0.360337 1.24147e-20)
(7.42887 -0.404772 -6.48548e-21)
(10.4536 -0.869304 8.63008e-20)
(13.6872 -2.19843 0)
(11.9437 0.0297016 5.95211e-20)
(15.9615 -2.49029 -8.83262e-20)
(33.124 -5.82865 -2.36988e-18)
(39.9771 -0.274342 2.34997e-18)
(38.2496 0.326009 -5.86517e-18)
(35.6213 0.463584 0)
(34.3313 0.231524 -3.90923e-18)
(33.7114 0.0731835 0)
(33.3649 0.0118547 1.24294e-18)
(33.0895 0.213069 4.04267e-18)
(32.1693 0.37552 0)
(30.5758 0.835423 5.90915e-20)
(27.0548 0.777659 2.67523e-20)
(24.7778 0.366812 -1.0308e-19)
(27.2657 -0.391641 1.08746e-19)
(28.3137 -0.250991 0)
(29.7698 -0.305377 0)
(32.4537 -0.975786 -4.70984e-21)
(35.8548 -3.42189 0)
(62.9035 -6.92298 9.4838e-19)
(52.9618 0.843872 0)
(49.9595 0.776729 0)
(44.0559 0.73134 -2.06926e-20)
(43.7875 1.61096 0)
(42.8868 -2.8972 0)
(37.666 6.46307 1.03303e-19)
(38.1636 -16.1996 -6.44195e-20)
(26.2262 24.792 0)
(22.728 0.416903 -3.32989e-21)
(23.8275 -0.157281 1.46233e-21)
(24.3996 -0.106021 -4.26993e-22)
(24.6136 -0.0422526 0)
(24.6795 -0.0123552 4.35671e-24)
(24.68 -0.000366212 0)
(24.6489 0.00407197 4.11509e-23)
(24.6031 0.00532437 0)
(24.5516 0.00558637 0)
(24.4995 0.00570349 5.40137e-26)
(24.4485 0.00590741 -2.58876e-26)
(24.4 0.00598595 0)
(24.3552 0.00580739 0)
(0.650584 -0.484109 0)
(1.08053 -0.465947 0)
(1.51999 -0.351937 -3.37264e-21)
(1.83328 -0.256257 0)
(2.06558 -0.208484 0)
(2.15425 -0.0151946 4.33767e-21)
(2.09804 0.103082 -4.51891e-21)
(2.0345 0.0599115 0)
(2.06448 -0.038933 4.40652e-24)
(2.19442 -0.0827814 3.70217e-21)
(2.35442 -0.103545 6.38109e-25)
(2.49072 -0.117909 5.73348e-21)
(2.61778 -0.024173 -2.11013e-21)
(3.0688 -0.296605 0)
(3.95917 -0.837682 0)
(5.37794 -1.12834 -1.43516e-20)
(7.52236 -1.60326 0)
(10.5846 -2.3673 0)
(11.3143 -1.88236 9.77299e-22)
(22.3817 -4.10405 0)
(23.1148 -2.99279 0)
(23.5074 -2.00308 0)
(24.014 -1.25324 2.7179e-20)
(24.8458 -0.467822 -2.56228e-20)
(26.0241 0.0769743 3.09304e-20)
(26.9454 0.0718677 2.54914e-20)
(27.4137 -0.0183616 0)
(27.5713 0.034232 0)
(27.5489 0.30495 6.29985e-21)
(27.4496 0.612842 1.59423e-24)
(27.5427 0.717722 0)
(27.9601 0.47539 8.47898e-24)
(28.3572 -0.0616392 -1.72451e-21)
(28.6197 -0.606843 0)
(28.9117 -0.701661 0)
(29.422 -0.925821 -8.22904e-22)
(29.7266 -1.53606 0)
(29.2513 -1.97186 0)
(28.1424 -1.35047 0)
(26.6433 -0.848672 7.4319e-20)
(28.4944 0.181529 3.69684e-20)
(29.8455 0.625188 -4.15001e-20)
(30.3324 0.561372 1.45418e-20)
(32.9207 -1.98602 0)
(31.1426 6.31426 -1.06444e-19)
(22.953 -1.65801 0)
(22.2212 7.05856 2.61849e-20)
(25.8616 -0.722713 -3.47086e-21)
(25.8985 -0.32981 -1.29976e-21)
(25.8564 -0.110061 4.94284e-22)
(25.7835 -0.0225093 -1.66441e-22)
(25.7186 0.00956709 -1.38373e-23)
(25.6574 0.0253183 -1.21359e-22)
(25.5957 0.0330225 0)
(25.5347 0.0358057 0)
(25.4763 0.0357387 0)
(25.422 0.034301 0)
(25.3727 0.0326222 1.48451e-23)
(25.3284 0.0307738 -1.98168e-23)
(25.2895 0.0284558 0)
(0.757409 -1.01683 0)
(1.23321 -0.702337 -1.61611e-21)
(1.50508 -0.530267 0)
(1.68043 -0.388368 -3.12809e-21)
(1.79112 -0.295009 -3.25115e-21)
(1.82508 -0.0799294 -2.68342e-21)
(1.84241 0.108663 0)
(1.85982 0.077033 -5.93986e-21)
(1.93125 -0.0665777 0)
(2.0715 -0.155377 0)
(2.23657 -0.184267 0)
(2.37692 -0.183863 0)
(2.52604 -0.155758 0)
(2.89752 -0.472384 0)
(3.59724 -1.26951 0)
(4.82304 -1.97277 0)
(8.30509 -2.73013 0)
(16.1226 -4.55874 -2.04638e-19)
(20.27 -5.64718 0)
(21.3563 -4.65418 0)
(22.1527 -3.40485 0)
(22.8603 -2.31111 0)
(23.4921 -1.50251 0)
(24.0663 -0.877086 0)
(24.7384 -0.414586 0)
(25.3009 -0.221738 0)
(25.6033 -0.143168 0)
(25.7085 -0.0251763 0)
(25.7891 0.215781 5.97303e-21)
(25.9923 0.474687 0)
(26.3467 0.53861 -1.88169e-21)
(26.7308 0.330847 0)
(27.0076 -0.101801 0)
(27.0311 -0.578126 0)
(27.0235 -0.808238 0)
(27.1894 -1.05032 0)
(27.2639 -1.44278 -2.54765e-21)
(26.9394 -1.65431 0)
(26.4634 -1.25138 0)
(26.1897 -0.480373 0)
(26.0223 0.255251 -3.5311e-20)
(25.2375 0.729597 2.91355e-20)
(24.3147 -0.283016 -8.37624e-21)
(22.3292 -1.10511 0)
(21.6902 6.4562 -7.06163e-20)
(23.4878 4.33061 0)
(28.0528 0.43023 0)
(27.0384 -0.463796 0)
(26.3549 -0.206402 0)
(26.088 -0.0365475 3.78307e-22)
(25.971 0.0225066 0)
(25.8961 0.0453471 -2.73634e-23)
(25.8257 0.0599557 0)
(25.755 0.0671163 0)
(25.6883 0.0682675 -4.41691e-23)
(25.6273 0.0657264 3.97532e-23)
(25.5733 0.0611503 -6.83972e-23)
(25.5269 0.0563931 1.48105e-23)
(25.4873 0.0519847 0)
(25.4543 0.0471742 3.67932e-24)
(0.882798 -1.40005 0)
(1.19365 -0.924912 0)
(1.3995 -0.681327 0)
(1.49292 -0.474832 0)
(1.51841 -0.346347 2.56935e-21)
(1.52731 -0.159821 0)
(1.588 0.0608325 0)
(1.65817 0.0705327 7.61681e-24)
(1.75723 -0.0940618 0)
(1.91784 -0.228311 -1.17638e-23)
(2.08718 -0.269214 -7.87737e-21)
(2.22729 -0.252114 0)
(2.34303 -0.239761 0)
(2.52803 -0.577784 -1.25525e-23)
(3.0532 -1.47987 -7.23106e-23)
(3.95086 -2.44423 6.49673e-22)
(18.413 -7.65721 2.77038e-21)
(19.8637 -6.44052 0)
(20.7173 -5.97776 2.41973e-20)
(21.1508 -5.10659 0)
(21.7865 -3.93035 -8.10562e-23)
(22.4863 -2.83512 8.99586e-23)
(23.1314 -1.95734 -9.2165e-23)
(23.6591 -1.27501 1.75427e-20)
(24.1204 -0.751642 -1.77982e-20)
(24.4698 -0.429712 0)
(24.632 -0.229738 0)
(24.6541 -0.0676964 -1.91297e-23)
(24.6664 0.132445 1.25335e-23)
(24.765 0.329582 0)
(24.9607 0.376912 2.03508e-21)
(25.1853 0.221436 0)
(25.3381 -0.105994 0)
(25.3475 -0.508104 0)
(25.3539 -0.819709 4.22887e-22)
(25.5085 -1.11595 0)
(25.7053 -1.42658 0)
(25.7471 -1.52789 -2.14603e-21)
(25.6728 -1.21319 1.16528e-21)
(25.7007 -0.530097 9.91614e-22)
(25.8627 0.269404 3.11587e-21)
(25.898 0.835009 0)
(25.6908 1.42347 9.67439e-20)
(20.5377 1.81609 0)
(20.3118 3.00467 4.45181e-20)
(27.4961 1.59249 6.33345e-21)
(27.8743 0.538309 0)
(27.0471 0.0360102 -6.20806e-23)
(26.43 0.0214592 0)
(26.1775 0.052842 2.26096e-22)
(26.0646 0.0687039 4.97301e-23)
(25.9859 0.0838582 5.65221e-23)
(25.9043 0.100619 -1.11007e-22)
(25.8207 0.106502 -1.05759e-22)
(25.7456 0.103993 0)
(25.6803 0.0972637 4.09446e-23)
(25.625 0.0879249 3.42992e-23)
(25.5804 0.0785996 -1.46245e-23)
(25.5446 0.0706241 0)
(25.5163 0.0625094 0)
(0.990843 -1.69174 2.54168e-22)
(1.13139 -1.12764 1.01932e-21)
(1.24893 -0.808594 0)
(1.27235 -0.535084 -2.07532e-21)
(1.24164 -0.369851 1.9964e-21)
(1.21731 -0.228144 0)
(1.29496 -0.0297599 0)
(1.42675 0.0294118 9.24e-24)
(1.58188 -0.124262 -1.20868e-23)
(1.76042 -0.301303 7.09745e-21)
(1.9299 -0.352208 7.11365e-21)
(2.06034 -0.319433 -1.27377e-24)
(2.13018 -0.278984 -5.89224e-21)
(2.14545 -0.497395 0)
(0.165419 -0.156995 2.17389e-21)
(17.9955 -9.33199 -2.15743e-20)
(18.6404 -8.17928 0)
(19.6522 -7.10505 -2.96738e-20)
(20.624 -6.42368 -2.40678e-20)
(21.2021 -5.59172 0)
(21.7532 -4.48652 1.58415e-20)
(22.3474 -3.36464 -7.89995e-23)
(22.8999 -2.3947 0)
(23.3346 -1.61737 0)
(23.6537 -1.00874 1.5221e-20)
(23.867 -0.584748 5.86007e-23)
(23.9425 -0.283057 0)
(23.9283 -0.0852969 0)
(23.9306 0.0900237 1.83827e-23)
(23.9852 0.259735 0)
(24.0976 0.294784 -4.75783e-21)
(24.2692 0.158146 -1.96893e-23)
(24.4193 -0.106741 2.35938e-21)
(24.4865 -0.469454 -3.18729e-21)
(24.5313 -0.821521 1.56941e-21)
(24.6246 -1.17452 1.047e-21)
(24.7791 -1.49899 0)
(24.9243 -1.57501 -2.42489e-24)
(25.0329 -1.28563 0)
(25.1687 -0.680441 -9.65811e-22)
(25.399 0.0806592 -1.72097e-21)
(25.6631 0.811613 -2.02375e-21)
(25.8795 1.4141 -1.90446e-21)
(26.1695 1.80764 2.47716e-21)
(26.7457 1.93968 1.63412e-21)
(27.3535 1.50794 1.37145e-21)
(27.27 0.846187 -2.30231e-21)
(26.8122 0.391059 -1.27432e-23)
(26.4512 0.201963 -1.26974e-22)
(26.2698 0.133033 6.57316e-23)
(26.1617 0.117705 4.51462e-23)
(26.0701 0.128942 0)
(25.9689 0.151356 1.60325e-22)
(25.8647 0.153769 -1.2212e-22)
(25.7777 0.144381 0)
(25.7057 0.131377 4.23703e-23)
(25.6471 0.115501 3.42173e-23)
(25.6022 0.099918 -2.01635e-26)
(25.5686 0.0873756 0)
(25.5433 0.0753086 -8.36265e-24)
(1.01582 -1.89128 2.37457e-22)
(1.04003 -1.28701 0)
(1.07558 -0.912947 2.06061e-24)
(1.04783 -0.581265 0)
(0.979903 -0.37341 0)
(0.921308 -0.26488 -1.42516e-21)
(0.980053 -0.143495 0)
(1.1595 -0.0500407 3.46336e-21)
(1.39722 -0.189019 -7.55468e-21)
(1.62236 -0.372395 1.32299e-20)
(1.81704 -0.439467 -8.76613e-21)
(1.92745 -0.380789 -1.00601e-20)
(1.94254 -0.288971 1.87873e-20)
(1.767 -0.447398 -1.00535e-19)
(17.1971 -10.1569 0)
(17.8479 -9.74697 3.42583e-20)
(18.5708 -8.86897 0)
(19.5829 -7.88604 0)
(20.5832 -7.0155 5.05683e-20)
(21.2801 -6.08884 0)
(21.8031 -4.98703 0)
(22.2753 -3.8412 -1.67443e-20)
(22.6911 -2.79147 -3.19557e-20)
(23.0039 -1.91603 0)
(23.2046 -1.20849 -1.33369e-20)
(23.3291 -0.710266 0)
(23.3687 -0.321687 9.29422e-21)
(23.365 -0.10923 0)
(23.4236 0.0344256 1.05185e-20)
(23.539 0.187636 0)
(23.6929 0.204785 -2.13093e-21)
(23.9218 0.061375 2.18597e-21)
(24.1612 -0.160593 0)
(24.3057 -0.486275 -1.64607e-21)
(24.3776 -0.832789 1.46981e-21)
(24.3962 -1.19205 -6.32566e-22)
(24.3884 -1.53704 -2.50098e-23)
(24.4375 -1.64939 -9.98522e-23)
(24.5617 -1.41175 3.2417e-22)
(24.7383 -0.853904 -4.16858e-24)
(24.9792 -0.136614 0)
(25.2815 0.583254 1.77878e-21)
(25.6361 1.19381 1.62532e-21)
(26.0485 1.60044 0)
(26.4905 1.68747 2.07732e-24)
(26.7975 1.42855 -7.41909e-22)
(26.829 0.990506 9.45943e-22)
(26.6696 0.575731 5.13946e-22)
(26.5001 0.317084 -9.23833e-23)
(26.3799 0.201417 -5.56643e-23)
(26.2672 0.177101 1.49715e-22)
(26.1528 0.185834 1.8174e-22)
(26.0294 0.220459 -2.47997e-22)
(25.9008 0.214623 0)
(25.8022 0.193052 1.16016e-22)
(25.7232 0.17097 0)
(25.6605 0.146373 3.60984e-23)
(25.6138 0.12248 0)
(25.5805 0.104014 0)
(25.5565 0.0873454 0)
(1.01174 -1.99121 -2.47071e-23)
(0.936373 -1.40758 0)
(0.903206 -1.00085 0)
(0.835327 -0.624943 9.65127e-22)
(0.751904 -0.369419 0)
(0.669872 -0.261822 0)
(0.676325 -0.231943 0)
(0.871983 -0.184331 0)
(1.20901 -0.309207 0)
(1.51334 -0.482816 0)
(1.75668 -0.530577 0)
(1.85108 -0.42918 -1.06376e-20)
(1.82793 -0.298331 0)
(12.0033 -7.58075 0)
(17.2341 -10.878 1.46929e-20)
(17.9196 -10.2705 0)
(18.7357 -9.55524 6.54345e-23)
(19.7077 -8.64559 0)
(20.644 -7.66885 -6.63656e-23)
(21.3246 -6.61266 0)
(21.7756 -5.44697 0)
(22.1132 -4.25314 -1.74915e-20)
(22.3898 -3.1328 -1.6256e-20)
(22.5936 -2.18533 1.45819e-20)
(22.7324 -1.38807 -1.21541e-20)
(22.8287 -0.862895 0)
(22.9334 -0.42343 3.63599e-23)
(22.9856 -0.186879 2.48757e-23)
(23.109 -0.063122 0)
(23.3017 0.107096 1.72098e-22)
(23.5788 0.163245 0)
(23.8748 0.0100301 3.8935e-20)
(24.1626 -0.177918 -1.81984e-22)
(24.3842 -0.460891 2.61808e-20)
(24.4787 -0.779837 0)
(24.5115 -1.10664 -1.06935e-20)
(24.409 -1.48518 1.29443e-20)
(24.2286 -1.67379 8.15984e-21)
(24.2506 -1.51205 7.07446e-22)
(24.4235 -1.03191 6.69056e-22)
(24.6701 -0.363006 0)
(24.9767 0.339204 -1.56084e-21)
(25.34 0.932528 -1.391e-21)
(25.7454 1.33987 9.36823e-25)
(26.1392 1.48265 0)
(26.4454 1.33926 4.65832e-22)
(26.6025 1.01256 -6.85401e-22)
(26.6216 0.647419 4.54932e-22)
(26.575 0.382872 0)
(26.4914 0.26439 2.04264e-22)
(26.3649 0.250368 0)
(26.2043 0.243932 0)
(26.076 0.280314 0)
(25.9218 0.262961 0)
(25.8194 0.229088 0)
(25.7347 0.199184 0)
(25.6699 0.168187 0)
(25.6214 0.138204 -4.8188e-24)
(25.5867 0.115085 -5.81293e-24)
(25.5648 0.0949848 6.6604e-24)
(0.977299 -2.00874 0)
(0.838617 -1.4915 -2.98499e-24)
(0.747618 -1.06658 -3.3681e-23)
(0.638232 -0.665 -2.99404e-22)
(0.551361 -0.374458 0)
(0.481167 -0.240377 0)
(0.468479 -0.272243 0)
(0.653692 -0.344859 2.92286e-21)
(1.02464 -0.478244 0)
(1.46767 -0.64769 0)
(1.74888 -0.642811 0)
(1.83606 -0.477488 -1.36861e-20)
(1.498 -0.223296 0)
(16.7392 -11.5765 0)
(17.3353 -11.3021 -3.36025e-20)
(18.1061 -10.8348 0)
(18.9889 -10.228 0)
(19.9048 -9.36777 0)
(20.7096 -8.30829 -2.64792e-20)
(21.2533 -7.11275 -2.40416e-20)
(21.5551 -5.84926 0)
(21.7351 -4.61313 -1.8356e-20)
(21.8898 -3.48096 -1.42662e-20)
(22.0348 -2.46918 -6.48803e-21)
(22.231 -1.53744 -7.43471e-21)
(22.3937 -0.962968 0)
(22.5359 -0.454261 0)
(21.9677 -0.243162 0)
(21.9597 -0.231732 0)
(22.1134 -0.0313373 0)
(22.1877 0.0857534 0)
(22.4206 -0.147607 7.69617e-21)
(22.6982 -0.391854 0)
(23.0066 -0.608388 0)
(23.3119 -0.869752 -1.23174e-20)
(23.5834 -1.13548 -1.55923e-20)
(23.8071 -1.40261 -5.4119e-24)
(23.9272 -1.54565 0)
(23.9541 -1.58947 0)
(24.1063 -1.15477 0)
(24.4303 -0.541248 0)
(24.7537 0.0947692 0)
(25.1175 0.661006 0)
(25.5181 1.08184 0)
(25.9142 1.27259 0)
(26.2562 1.1969 0)
(26.504 0.952652 0)
(26.6372 0.647912 0)
(26.6647 0.418328 0)
(26.5818 0.295998 4.62198e-21)
(26.398 0.301138 0)
(26.1119 0.322856 0)
(25.359 0.497371 0)
(24.8429 0.426488 0)
(24.6562 0.348708 3.10443e-22)
(24.5618 0.294857 0)
(24.4996 0.23955 0)
(24.4535 0.191691 0)
(24.4196 0.152047 0)
(24.3984 0.122333 1.1963e-23)
(0.921832 -1.95968 -6.22105e-22)
(0.741453 -1.54108 0)
(0.613102 -1.11547 -4.94235e-22)
(0.482548 -0.699461 0)
(0.392722 -0.396456 0)
(0.35144 -0.230786 0)
(0.351639 -0.277487 -6.25338e-22)
(0.512449 -0.470826 0)
(0.883907 -0.699169 4.03112e-21)
(1.44376 -0.870627 0)
(1.7966 -0.777787 -8.63772e-21)
(1.87607 -0.574159 2.88734e-20)
(11.1747 -7.90314 0)
(16.8189 -12.0551 0)
(17.4555 -11.7735 7.86572e-20)
(18.306 -11.4323 -4.36929e-20)
(19.2166 -10.8912 9.71356e-20)
(20.0462 -10.0351 -5.33024e-20)
(20.6586 -8.87737 -2.73704e-20)
(20.966 -7.54284 0)
(21.0443 -6.22094 1.90422e-20)
(21.0542 -4.89557 -1.92059e-20)
(21.1666 -3.6793 0)
(20.4581 -2.72932 1.11193e-21)
(20.2295 -1.59684 0)
(20.0648 -1.01971 -8.37714e-21)
(19.8844 -0.446542 -5.98213e-22)
(19.9513 -0.166908 0)
(20.0081 -0.189793 0)
(20.1064 -0.107382 0)
(20.3875 -0.0828848 1.82608e-21)
(20.7014 -0.293392 5.13066e-21)
(20.9908 -0.530336 -1.25657e-20)
(21.3016 -0.762959 0)
(21.6296 -1.02156 1.12909e-20)
(21.9497 -1.2865 -2.95908e-20)
(22.2545 -1.53862 -1.90381e-20)
(22.5317 -1.70822 4.58566e-20)
(22.8476 -1.72473 -2.6674e-20)
(23.319 -1.4957 -2.64018e-20)
(24.0078 -0.940986 -1.05675e-21)
(24.4879 -0.135023 1.02837e-22)
(24.9435 0.451696 8.44535e-22)
(25.3692 0.852012 3.95735e-22)
(25.7875 1.0667 5.17193e-22)
(26.1727 1.0468 -6.18305e-22)
(26.4724 0.881181 0)
(26.6967 0.634207 -5.92658e-21)
(26.155 0.486695 2.52233e-24)
(24.6053 0.876265 0)
(23.7152 0.767498 0)
(23.1247 0.673387 0)
(22.7514 0.755528 0)
(22.5806 0.519089 -1.04389e-21)
(22.4295 0.371804 0)
(22.3436 0.293788 0)
(22.2902 0.235886 -1.96498e-22)
(22.2524 0.188871 -9.44642e-23)
(22.2244 0.15056 -4.52814e-23)
(22.2046 0.119473 -2.21955e-23)
(0.835975 -1.84919 0)
(0.627425 -1.5553 0)
(0.472279 -1.15836 0)
(0.350749 -0.736521 0)
(0.282766 -0.430426 0)
(0.27456 -0.252663 0)
(0.299941 -0.267131 0)
(0.449391 -0.549806 0)
(0.789981 -0.892835 0)
(1.44522 -1.20789 0)
(1.82837 -0.951568 0)
(1.95591 -0.814776 0)
(16.4786 -12.5744 0)
(16.8192 -12.3899 0)
(17.5666 -12.2857 0)
(18.4753 -12.0461 0)
(19.3619 -11.5306 0)
(20.0491 -10.6213 0)
(20.3824 -9.34333 0)
(20.3791 -7.91552 0)
(20.227 -6.39267 0)
(19.4724 -4.83701 0)
(18.8539 -3.54155 0)
(18.4026 -2.55358 0)
(17.9942 -1.61641 0)
(17.865 -0.989459 0)
(17.7487 -0.523022 -1.04299e-21)
(17.8543 -0.250625 0)
(17.9758 -0.24426 0)
(18.0976 -0.234167 0)
(18.3614 -0.254611 0)
(18.6673 -0.435231 0)
(18.9478 -0.667165 0)
(19.2281 -0.909423 0)
(19.5152 -1.16764 0)
(19.7985 -1.42996 0)
(20.0713 -1.67731 0)
(20.3358 -1.86407 0)
(20.628 -1.94703 0)
(20.9956 -1.84027 0)
(21.5458 -1.49711 0)
(22.422 -0.891181 0)
(24.1047 -0.0820559 0)
(25.1042 0.649707 0)
(25.648 0.909942 0)
(26.113 0.917593 0)
(25.4042 0.734881 0)
(23.3723 1.28484 0)
(22.1558 1.40988 4.62631e-21)
(21.391 1.2945 3.30797e-21)
(20.9445 1.0772 0)
(20.589 0.90446 0)
(20.4363 0.822535 0)
(20.3796 0.600858 0)
(20.2993 0.432591 -2.22763e-22)
(20.2419 0.331045 9.95372e-23)
(20.2052 0.260662 -9.05282e-23)
(20.1799 0.206799 0)
(20.161 0.163757 -3.799e-23)
(20.1468 0.128841 0)
(0.711069 -1.67425 1.26228e-21)
(0.496142 -1.52255 0)
(0.293463 -1.18563 6.183e-21)
(0.209774 -0.807129 -2.00146e-21)
(0.210051 -0.481781 0)
(0.234231 -0.301914 0)
(0.302907 -0.275769 0)
(0.451684 -0.58394 2.09867e-22)
(0.800683 -1.0892 -3.23174e-21)
(1.39153 -1.52362 0)
(1.7573 -1.16351 -1.76188e-20)
(4.61364 -3.73586 0)
(16.1616 -12.7785 0)
(16.7857 -12.7835 4.1713e-20)
(17.6522 -12.8269 4.47591e-20)
(18.5879 -12.6566 -4.96594e-20)
(19.39 -12.1185 -1.09175e-22)
(19.8451 -11.1028 0)
(19.8501 -9.75524 -9.29232e-20)
(19.4839 -7.50651 1.20951e-19)
(18.412 -6.20866 8.44551e-23)
(17.5153 -4.74866 -1.96132e-20)
(16.7738 -3.45877 6.31142e-21)
(16.2564 -2.43347 3.75634e-21)
(15.8517 -1.60476 0)
(15.6792 -0.999424 4.69268e-23)
(15.5983 -0.587271 -1.3868e-21)
(15.6745 -0.345942 0)
(15.8013 -0.312166 9.81493e-22)
(15.9353 -0.336753 9.9243e-22)
(16.1522 -0.401415 -1.70669e-21)
(16.4119 -0.567349 3.70902e-21)
(16.6608 -0.787705 0)
(16.9012 -1.02981 0)
(17.1365 -1.28618 0)
(17.3607 -1.54476 0)
(17.5665 -1.7878 1.63661e-20)
(17.7519 -1.98241 -1.93871e-20)
(17.9282 -2.09138 -1.21779e-23)
(18.1108 -2.04733 -2.24002e-20)
(18.3354 -1.77405 -1.88846e-20)
(18.7259 -1.29957 0)
(19.2735 -0.757771 1.61901e-21)
(19.8376 0.10432 0)
(20.2544 0.538647 0)
(20.1819 0.897649 0)
(19.6488 1.70174 0)
(19.1808 1.88296 0)
(18.8026 1.76175 0)
(18.5639 1.52293 -3.79262e-21)
(18.4208 1.2403 0)
(18.3 1.01343 -7.59407e-22)
(18.278 0.84059 -5.78871e-22)
(18.2859 0.631245 5.95785e-23)
(18.2647 0.464017 -1.20913e-22)
(18.2423 0.352093 0)
(18.2277 0.274194 -7.49706e-23)
(18.2186 0.21624 -6.7755e-23)
(18.2119 0.170886 0)
(18.2059 0.134643 -6.17086e-24)
(0.590559 -1.46105 -1.83028e-21)
(0.374601 -1.43405 0)
(0.139347 -1.18867 0)
(0.0340357 -0.890556 2.86238e-21)
(0.0884704 -0.594121 0)
(0.218049 -0.377776 -4.76657e-22)
(0.330731 -0.308205 3.96347e-22)
(0.492795 -0.602157 0)
(0.862444 -1.23739 4.37601e-22)
(1.42035 -1.80866 4.99185e-21)
(1.74076 -1.6528 1.066e-19)
(15.5175 -13.102 0)
(15.8979 -13.0238 0)
(16.7187 -13.2534 0)
(17.6999 -13.3951 -4.72185e-20)
(18.6219 -13.2427 -7.97437e-23)
(19.262 -12.6207 0)
(19.4099 -11.5376 0)
(19.6603 -9.17586 2.65487e-19)
(17.8166 -7.61159 0)
(16.6076 -5.88656 -2.84283e-20)
(15.5304 -4.46569 0)
(14.6858 -3.2692 4.70015e-21)
(14.094 -2.30394 2.06589e-21)
(13.6848 -1.55347 -1.16331e-21)
(13.4718 -1.00138 -1.95195e-21)
(13.3859 -0.63361 0)
(13.4271 -0.426279 0)
(13.535 -0.383906 1.57127e-22)
(13.6677 -0.424626 0)
(13.8516 -0.517353 1.62935e-21)
(14.0691 -0.679952 3.3919e-21)
(14.2852 -0.890397 0)
(14.4906 -1.12591 7.46099e-21)
(14.6817 -1.37493 9.85224e-21)
(14.8511 -1.62367 -1.47977e-23)
(14.9898 -1.85469 1.52203e-20)
(15.0903 -2.04092 1.7721e-20)
(15.1524 -2.14835 0)
(15.1802 -2.12151 1.99e-20)
(15.2004 -1.89551 -1.70591e-20)
(15.293 -1.51502 1.1987e-20)
(15.3947 -0.991368 -2.02401e-21)
(15.5906 -0.211298 -2.08799e-21)
(15.7867 0.429306 4.08682e-21)
(15.7203 1.04768 8.37664e-21)
(15.6801 1.73504 0)
(15.8204 1.93883 9.48991e-21)
(15.9495 1.81275 -6.41987e-21)
(16.0537 1.55542 -4.16424e-21)
(16.1303 1.27042 0)
(16.1792 1.02616 0)
(16.2451 0.822935 0)
(16.3019 0.62764 0)
(16.3282 0.469681 0)
(16.3414 0.356498 -4.64125e-23)
(16.3521 0.275935 -5.52036e-23)
(16.3619 0.216709 0)
(16.3695 0.171383 2.92241e-25)
(16.3735 0.136118 -3.09471e-24)
(0.418502 -1.2044 0)
(0.260163 -1.31494 0)
(-0.0070659 -1.13396 -2.12453e-21)
(-0.17114 -0.93663 0)
(-0.127704 -0.746358 0)
(0.103023 -0.545595 -5.08167e-22)
(0.319939 -0.373121 2.79634e-21)
(0.513687 -0.636925 0)
(0.937661 -1.35613 0)
(1.65527 -2.0832 -4.90792e-23)
(2.65013 -2.12164 0)
(14.9051 -12.9702 0)
(15.6772 -13.4194 -3.74379e-20)
(16.6719 -13.7935 -4.34222e-20)
(17.7129 -13.9796 -4.92768e-20)
(18.5554 -13.7752 -5.64962e-20)
(18.9125 -13.0505 -5.4324e-20)
(19.003 -11.985 -6.00982e-22)
(17.4643 -9.2638 -1.77299e-20)
(15.8933 -7.13173 0)
(14.5335 -5.44887 0)
(13.4055 -4.11324 -1.33887e-20)
(12.535 -3.02307 -6.3845e-21)
(11.9147 -2.14793 1.11674e-21)
(11.4983 -1.47365 -1.67311e-21)
(11.2613 -0.982483 0)
(11.1606 -0.660262 2.84471e-21)
(11.1764 -0.486974 -2.20143e-21)
(11.2666 -0.451264 1.0147e-21)
(11.3962 -0.503678 0)
(11.5644 -0.613516 1.36011e-21)
(11.7581 -0.776672 -3.02112e-21)
(11.9528 -0.979132 0)
(12.1352 -1.20463 7.0241e-21)
(12.2958 -1.44062 -9.32524e-21)
(12.4247 -1.67279 -1.17238e-20)
(12.5117 -1.88375 2.83209e-20)
(12.5481 -2.04967 0)
(12.5306 -2.13967 1.76755e-20)
(12.4614 -2.1079 0)
(12.3677 -1.90506 -1.5214e-20)
(12.299 -1.55759 4.81488e-23)
(12.2279 -1.05775 -2.23449e-21)
(12.2498 -0.360005 -1.41264e-21)
(12.3591 0.326852 0)
(12.4636 0.984919 -7.41695e-21)
(12.7276 1.55027 -1.0173e-20)
(13.1386 1.75532 -6.67086e-24)
(13.5206 1.67357 6.42143e-21)
(13.8209 1.45723 0)
(14.0404 1.20565 0)
(14.199 0.974603 0)
(14.3282 0.774512 5.86374e-22)
(14.4271 0.59637 -2.61631e-22)
(14.4939 0.451294 6.26564e-23)
(14.5412 0.342826 1.37344e-23)
(14.5784 0.264074 -2.96768e-23)
(14.6086 0.206744 0)
(14.6317 0.164195 -8.27265e-24)
(14.6464 0.132671 0)
(0.178781 -0.870141 0)
(0.145899 -1.1858 0)