/*--------------------------------*- C++ -*----------------------------------*\
| =========                 |                                                 |
| \\      /  F ield         | OpenFOAM: The Open Source CFD Toolbox           |
|  \\    /   O peration     | Version:  v1912                                 |
|   \\  /    A nd           | Website:  www.openfoam.com                      |
|    \\/     M anipulation  |                                                 |
\*---------------------------------------------------------------------------*/
FoamFile
{
    version     2.0;
    format      ascii;
    class       volScalarField;
    location    "50";
    object      alpha.water;
}
// * * * * * * * * * * * * * * * * * * * * * * * * * * * * * * * * * * * * * //

dimensions      [0 0 0 0 0 0 0];


internalField   nonuniform List<scalar> 
20320
(
1
1
1
1
1
1
1
1
1
1
1
1
1
1
1
1
1
1
1
1
1
1
1
1
1
1
1
1
1
1
1
1
1
1
1
1
1
1
1
1
1
1
1
1
1
1
1
1
1
1
1
1
1
1
1
1
1
1
1
1
1
1
1
1
1
1
1
1
1
1
1
1
1
1
1
1
1
1
1
1
1
1
1
1
1
1
1
1
1
1
1
1
1
1
1
1
1
1
1
1
1
1
1
1
1
1
1
1
1
1
1
1
1
1
1
1
1
1
1
1
1
1
1
1
1
1
1
1
1
1
1
1
1
1
1
1
1
1
1
1
1
1
1
1
1
1
1
1
1
1
1
1
1
1
1
1
1
1
1
1
1
1
1
1
1
1
1
1
1
1
1
1
1
1
1
1
1
1
1
1
1
1
1
1
1
1
1
1
1
1
1
1
1
1
1
1
1
1
1
1
1
1
1
1
1
1
1
1
1
1
1
1
1
1
1
1
1
1
1
1
1
1
1
1
1
1
1
1
1
1
1
1
1
1
1
1
1
1
1
1
1
1
1
1
1
1
1
1
1
1
1
1
1
1
1
1
1
1
1
1
1
1
1
1
1
1
1
1
1
1
1
1
1
1
1
1
1
1
1
1
1
1
1
1
1
1
1
1
1
1
1
1
1
1
1
1
1
1
1
1
1
1
1
1
1
1
1
1
1
1
1
1
1
1
1
1
1
1
1
1
1
1
1
1
1
1
1
1
1
1
1
1
1
1
1
1
1
1
1
1
1
1
1
1
1
1
1
1
1
1
1
1
1
1
1
1
1
1
1
1
1
1
1
1
1
1
1
1
1
1
1
1
1
1
1
1
1
1
1
1
1
1
1
1
1
1
1
1
1
1
1
1
1
1
1
1
1
1
1
1
0.972177
0.971606
0.942886
0.942749
0.819569
0.819569
0.938827
1
1
1
1
1
0.999885
0.999894
0.997051
0.990261
0.988066
0.938161
1
0.99847
0.958959
0.958965
0.958965
0.959134
1
1
1
1
0.999977
0.999992
0.999972
0.999971
0.999999
1
0.289359
0.388504
1
1
0.268852
2.92763e-07
4.85204e-06
3.53312e-10
1.04851e-26
0.84129
1
1
1
0.973697
0.248464
0.247511
0.19228
0.0659235
0.0637339
0.202272
0.769608
0.344223
0.344223
0.99382
1
0.731441
0.981905
0.949164
0.953712
0.983839
0.997082
0.999994
0.999986
0.9999
0.99695
0.988246
0.990792
0.860506
0.866804
0.86744
0.959376
1
1
1
1
1
1
1
0.975178
0.871554
1
1
0.999613
0.999255
0.999989
1
1
0.988031
0.99288
0.775132
0.604331
0.998648
1
1
0.00107891
3.05079e-10
1.36662e-05
7.08167e-06
-1.82068e-20
0.778661
1
1
1
1
1
1
1
1
1
1
1
1
1
1
0.826713
0.858617
0.976171
0.960219
0.925504
0.934976
0.999866
0.990194
0.972044
0.997679
0.981913
0.990752
1
0.996058
0.971075
0.965911
0.962524
0.932649
0.888082
0.868655
0.874516
0.868989
0.749835
0.178324
0.946015
1
1
1
1
1
1
0.780744
0.770214
0.817658
1
1
1
1
1
1
5.47145e-19
5.4874e-06
3.70723e-06
1.86916e-07
0.414234
1
1
1
1
1
1
1
1
1
1
1
1
1
0.999844
0.999762
0.999996
1
1
0.987933
0.999786
1
0.949329
0.948313
1
0.995956
0.981269
0.872842
0.291315
0.181702
0.187064
0.219413
0.238152
0.254181
0.261528
0.244407
0.223627
0.221809
0.245053
0.185169
0.676725
0.304643
0.303964
0.289556
0.489617
0.614692
0.418902
0.50355
0.828037
0.987133
0.956604
0.894083
0.795812
0.762161
0.947555
0.421164
2.16192e-20
5.40927e-21
0.0191505
0.864852
1
1
1
1
1
1
1
1
1
1
1
1
1
1
1
1
0.999973
0.999967
0.995577
0.992169
0.999733
0.955168
0.973128
1
0.945496
0.993976
0.908227
0.0920198
0.761109
1
1
1
1
1
1
1
1
1
1
1
1
1
1
0.994559
0.953856
0.964447
0.803093
0.454881
0.95613
0.346115
0.0910918
0.146319
0.216612
0.276213
0.247968
0.296467
0.908895
1
1
1
1
1
1
1
1
1
1
1
1
1
1
1
1
1
1
1
1
1
0.999416
0.985641
0.993984
0.998869
0.923852
0.874667
0.996991
0.994227
-5.79687e-21
0.860856
1
1
1
1
1
1
1
1
1
1
1
1
1
1
1
1
1
1
1
1
1
1
1
1
1
1
1
1
1
1
1
1
1
1
0.993116
0.856842
0.738972
0.784793
0.922471
0.998042
1
1
1
1
1
1
1
1
1
1
0.968857
1
0.999325
0.886178
0.90251
0.971727
0.956524
0.474491
-1.24207e-19
1
1
1
1
1
1
1
1
1
1
1
1
1
1
1
1
1
1
1
1
1
1
1
1
1
1
1
1
1
1
1
1
1
0.931602
0.092452
2.72932e-37
-4.1218e-20
7.05663e-36
-3.47618e-23
0.000419156
0.0104727
0.106625
0.832343
0.916904
0.946298
0.994038
1
1
1
1
1
0.941478
1
0.999019
1
1
0.907261
0.98645
0.109888
1.57206e-18
1
1
1
1
1
1
1
1
1
1
1
1
1
1
1
1
1
1
1
1
1
1
1
1
1
1
1
1
1
1
0.993963
0.802868
0.000609911
-2.46442e-20
-1.62093e-20
-1.78571e-20
-1.95782e-20
1.53731e-15
1.28317e-11
1.26321e-31
-1.20485e-20
-9.35181e-21
-6.33008e-22
0.000607987
0.00824444
0.0352931
0.103427
0.145827
0.154763
0.157468
0.110641
0.941478
1
0.973916
1
0.997547
0.875888
0.968228
-9.28619e-22
0.329048
1
1
1
1
1
1
1
1
1
1
1
1
1
1
1
1
1
1
1
1
1
1
1
1
1
1
1
0.998109
0.895949
0.275068
-3.43887e-22
-1.27772e-20
-1.15179e-20
-1.2078e-20
-1.2998e-20
-1.32868e-20
-1.33452e-20
-1.34172e-20
-1.35339e-20
-1.37015e-20
-1.39925e-20
-1.43957e-20
-1.47686e-20
-1.50557e-20
-1.5294e-20
-1.52506e-20
-1.47403e-20
-1.35443e-20
-1.05125e-20
-1.72998e-21
6.81483e-19
0.991922
0.845576
0.745293
0.757706
0.991432
1
0.630212
-7.59888e-21
0.637809
1
1
1
1
1
1
1
1
0.968448
0.889513
0.820192
0.78936
0.795951
0.823839
0.864508
0.898758
0.922477
0.940365
0.946806
0.944968
0.938111
0.92249
0.875425
0.761852
0.577239
0.260996
1.35699e-20
-2.66382e-20
-1.49783e-20
-1.54907e-20
-1.25757e-20
-1.09082e-20
-9.97819e-21
-9.21705e-21
-8.43332e-21
-7.65483e-21
-6.98833e-21
-6.49186e-21
-6.15814e-21
-5.97056e-21
-5.93009e-21
-6.01848e-21
-6.19181e-21
-6.42981e-21
-6.70553e-21
-6.92189e-21
-7.0145e-21
-6.94214e-21
-6.47164e-21
-4.83206e-21
-1.30356e-21
1
1
0.996763
0.745293
0.833209
1
0.253531
-8.94472e-20
0.872305
1
1
1
1
1
1
0.42955
-5.40095e-20
-3.63737e-20
-2.22548e-20
-1.91447e-20
-2.3394e-20
-2.38975e-20
-2.09736e-20
-1.97444e-20
-1.96042e-20
-1.9097e-20
-1.87493e-20
-1.9195e-20
-2.03881e-20
-2.25893e-20
-2.66599e-20
-3.07559e-20
-3.03428e-20
-2.93429e-20
-2.72134e-20
-2.43399e-20
-2.05688e-20
-1.68901e-20
-1.32399e-20
-1.00074e-20
-7.42739e-21
-5.56512e-21
-4.31773e-21
-3.51573e-21
-3.01117e-21
-2.71104e-21
-2.55574e-21
-2.50396e-21
-2.53091e-21
-2.62247e-21
-2.76391e-21
-2.93792e-21
-3.1316e-21
-3.33015e-21
-3.51119e-21
-3.66001e-21
-3.76832e-21
-3.82e-21
-3.78191e-21
-3.60358e-21
0.999985
0.999916
0.99992
0.999602
0.997713
1
0.264934
-7.50771e-22
0.982198
1
1
1
1
0.970824
-1.0773e-18
-1.38418e-20
-1.47229e-20
-1.58216e-20
-1.25322e-20
-1.04952e-20
-9.62359e-21
-9.5146e-21
-1.02067e-20
-1.15735e-20
-1.33662e-20
-1.54503e-20
-1.76136e-20
-1.93574e-20
-2.01496e-20
-1.98046e-20
-1.8666e-20
-1.74944e-20
-1.57167e-20
-1.33481e-20
-1.11893e-20
-9.28031e-21
-7.33592e-21
-5.62016e-21
-4.15121e-21
-3.008e-21
-2.20991e-21
-1.70903e-21
-1.4229e-21
-1.27259e-21
-1.20283e-21
-1.18318e-21
-1.1987e-21
-1.24249e-21
-1.31202e-21
-1.40549e-21
-1.51707e-21
-1.63574e-21
-1.74783e-21
-1.83618e-21
-1.88176e-21
-1.87394e-21
-1.81222e-21
-1.69988e-21
-1.54045e-21
-1.33598e-21
0.99898
0.999939
1
0.999572
1
0.501249
0.402333
5.85698e-21
1
1
1
1
1
0.0167623
-5.0943e-21
-9.66144e-21
-9.25777e-21
-6.94548e-21
-6.20319e-21
-6.1051e-21
-6.06362e-21
-6.13577e-21
-6.4522e-21
-6.97503e-21
-7.57894e-21
-8.17788e-21
-8.68506e-21
-8.93779e-21
-8.77777e-21
-8.19731e-21
-7.38408e-21
-6.5657e-21
-5.60685e-21
-4.49755e-21
-3.47819e-21
-2.63177e-21
-1.93165e-21
-1.40403e-21
-1.03041e-21
-7.86278e-22
-6.40433e-22
-5.59544e-22
-5.15385e-22
-4.8875e-22
-4.69571e-22
-4.54732e-22
-4.4452e-22
-4.39953e-22
-4.41462e-22
-4.48014e-22
-4.56419e-22
-4.61857e-22
-4.59336e-22
-4.44651e-22
-4.15878e-22
-3.74988e-22
-3.2675e-22
-2.76172e-22
-2.27611e-22
-1.83962e-22
0.998431
0.99364
0.83588
1
0.935522
0.223708
0.0117488
0.0211422
1
1
1
1
0.433728
-7.4319e-21
-5.96725e-21
-5.11395e-21
-4.4515e-21
-3.73919e-21
-3.309e-21
-3.15352e-21
-3.16163e-21
-3.27437e-21
-3.46526e-21
-3.69477e-21
-3.90893e-21
-4.05183e-21
-4.07639e-21
-3.95033e-21
-3.66164e-21
-3.23494e-21
-2.74501e-21
-2.26158e-21
-1.76637e-21
-1.28765e-21
-9.03036e-22
-6.28708e-22
-4.42642e-22
-3.24873e-22
-2.52817e-22
-2.07934e-22
-1.77205e-22
-1.52895e-22
-1.31381e-22
-1.11633e-22
-9.3897e-23
-7.87401e-23
-6.6444e-23
-5.68396e-23
-4.94515e-23
-4.36614e-23
-3.88525e-23
-3.45421e-23
-3.04638e-23
-2.6557e-23
-2.29221e-23
-1.97591e-23
-1.7257e-23
-1.55117e-23
-1.45004e-23
-1.41905e-23
0.999154
0.861848
0.882163
0.947679
0.224993
0.727831
0.0491884
0.364676
1
1
1
1
0.00641433
-7.27614e-21
-4.73414e-21
-2.69419e-21
-2.17819e-21
-1.76592e-21
-1.52009e-21
-1.4314e-21
-1.43687e-21
-1.4967e-21
-1.58565e-21
-1.67648e-21
-1.73633e-21
-1.73511e-21
-1.65583e-21
-1.49669e-21
-1.27145e-21
-1.01277e-21
-7.63921e-22
-5.52067e-22
-3.7892e-22
-2.47612e-22
-1.60377e-22
-1.07413e-22
-7.5718e-23
-5.59354e-23
-4.22062e-23
-3.16433e-23
-2.3169e-23
-1.64631e-23
-1.13652e-23
-7.66517e-24
-5.09653e-24
-3.38009e-24
-2.26616e-24
-1.55758e-24
-1.11413e-24
-8.43593e-25
-6.87754e-25
-6.10225e-25
-5.87129e-25
-6.01401e-25
-6.40515e-25
-6.96281e-25
-7.6516e-25
-8.48421e-25
-9.52631e-25
-1.09113e-24
0.999154
0.77968
1
0.86929
0.909763
1
0.0115792
0.642391
1
1
1
0.933804
-8.02417e-20
-5.28681e-21
-1.8619e-21
-1.05079e-21
-8.04858e-22
-6.43631e-22
-5.60419e-22
-5.32081e-22
-5.36983e-22
-5.61799e-22
-5.92985e-22
-6.14319e-22
-6.10532e-22
-5.72852e-22
-5.01593e-22
-4.0546e-22
-2.99956e-22
-2.03281e-22
-1.28193e-22
-7.68427e-23
-4.44065e-23
-2.53246e-23
-1.4794e-23
-8.98619e-24
-5.56422e-24
-3.40818e-24
-2.01646e-24
-1.13945e-24
-6.14561e-25
-3.18207e-25
-1.59704e-25
-7.87106e-26
-3.88653e-26
-1.99463e-26
-1.14242e-26
-8.08662e-27
-7.44077e-27
-8.28994e-27
-1.00107e-26
-1.22216e-26
-1.46611e-26
-1.71724e-26
-1.97281e-26
-2.2458e-26
-2.56703e-26
-2.98772e-26
-3.58691e-26
-4.48775e-26
0.992217
0.77968
0.999936
1
1
0.930674
-7.51022e-38
0.839738
1
1
1
0.32155
8.5311e-37
-3.2489e-21
-9.14223e-22
-4.00454e-22
-2.60801e-22
-1.95616e-22
-1.65327e-22
-1.55158e-22
-1.56611e-22
-1.62908e-22
-1.67376e-22
-1.6392e-22
-1.48817e-22
-1.22587e-22
-9.01625e-23
-5.85781e-23
-3.35586e-23
-1.71738e-23
-8.08731e-24
-3.63459e-24
-1.60275e-24
-7.05112e-25
-3.10968e-25
-1.35805e-25
-5.74804e-26
-2.31934e-26
-8.85863e-27
-3.20565e-27
-1.10715e-27
-3.70249e-28
-1.2442e-28
-4.80255e-29
-2.95828e-29
-3.24799e-29
-4.50793e-29
-6.3423e-29
-8.55383e-29
-1.09767e-28
-1.34557e-28
-1.58814e-28
-1.82453e-28
-2.06825e-28
-2.35056e-28
-2.7241e-28
-3.27042e-28
-4.11804e-28
-5.48213e-28
-7.7362e-28
0.924903
0.960055
0.999981
0.999993
0.999999
0.704579
-2.28359e-23
0.955246
1
1
1
0.0630092
-3.74584e-21
-1.14701e-21
-4.17004e-22
-1.46388e-22
-7.36304e-23
-4.71784e-23
-3.6795e-23
-3.33855e-23
-3.25894e-23
-3.17581e-23
-2.91268e-23
-2.40211e-23
-1.71974e-23
-1.04326e-23
-5.29738e-24
-2.25146e-24
-8.11557e-25
-2.54777e-25
-7.22595e-26
-1.91773e-26
-4.86056e-27
-1.18275e-27
-2.76061e-28
-6.16305e-29
-1.31188e-29
-2.65987e-30
-5.1598e-31
-9.85791e-32
-2.47663e-32
-2.18023e-32
-4.14297e-32
-7.75566e-32
-1.29533e-31
-1.94842e-31
-2.68328e-31
-3.43372e-31
-4.1381e-31
-4.75693e-31
-5.28707e-31
-5.7698e-31
-6.29325e-31
-6.99626e-31
-8.08167e-31
-9.8545e-31
-1.28159e-30
-1.78669e-30
-2.6736e-30
-4.27835e-30
0.996016
0.999993
0.999953
0.999751
0.991216
0.466655
-3.19859e-22
0.994619
1
1
1
0.000644878
-1.44512e-21
-7.52203e-22
-1.89279e-22
-4.37368e-23
-1.51547e-23
-7.79345e-24
-5.45785e-24
-4.42659e-24
-3.61586e-24
-2.7009e-24
-1.71719e-24
-8.78524e-25
-3.47871e-25
-1.04898e-25
-2.42046e-26
-4.35517e-27
-6.27484e-28
-7.45844e-29
-7.55486e-30
-6.73338e-31
-5.425e-32
-4.03158e-33
-2.81366e-34
-1.88739e-35
-1.29716e-36
-1.96432e-37
-8.01259e-37
-4.49303e-36
-1.67228e-35
-4.4923e-35
-9.40146e-35
-1.6201e-34
-2.39479e-34
-3.13281e-34
-3.71637e-34
-4.07685e-34
-4.20419e-34
-4.13741e-34
-3.94691e-34
-3.72012e-34
-3.5526e-34
-3.54994e-34
-3.84731e-34
-4.65914e-34
-6.39706e-34
-9.94317e-34
-1.73048e-33
-3.30695e-33
0.999805
0.999366
0.999997
0.955082
0.998313
0.507704
-4.32695e-21
1
1
1
1
2.07469e-20
-1.66176e-21
-3.87481e-22
-6.40567e-23
-8.433e-24
-1.8112e-24
-7.3583e-25
-3.97554e-25
-2.08438e-25
-8.85212e-26
-2.55057e-26
-4.0013e-27
-2.97335e-28
-1.33766e-29
-4.30181e-31
-1.05594e-32
-2.10561e-34
-3.55216e-36
-5.23508e-38
-6.94773e-40
-8.55204e-42
-1.01909e-43
-2.25114e-45
-7.33184e-46
-4.87852e-46
-3.42539e-46
-1.26217e-42
-1.10257e-40
-1.28358e-39
-6.19711e-39
-1.76633e-38
-3.52048e-38
-5.41166e-38
-6.82689e-38
-7.36521e-38
-6.99042e-38
-5.94872e-38
-4.5991e-38
-3.25919e-38
-2.1312e-38
-1.29306e-38
-7.32091e-39
-3.89096e-39
-1.95515e-39
-9.45446e-40
-5.58759e-40
-1.28913e-39
-7.53907e-39
-4.41489e-38
0.598049
0.999933
0.734025
1
1
0.566769
-1.42769e-21
1
1
1
0.731785
4.58403e-22
-8.45525e-22
-2.16364e-22
-1.60889e-23
-7.67552e-25
-1.11358e-25
-3.20571e-26
-7.41619e-27
-9.26845e-28
-2.16816e-29
-3.95948e-34
-5.70565e-42
-5.12531e-44
-4.14845e-47
-5.97798e-49
-1.06689e-51
-1.31737e-53
-8.14864e-54
-5.81394e-54
-4.65526e-54
-4.12809e-54
-3.92902e-54
-3.95088e-54
-4.14441e-54
-4.41515e-54
-4.94886e-54
-2.65344e-52
-3.82654e-49
-3.10627e-45
-7.29291e-44
-3.35597e-43
-7.3495e-43
-1.0216e-42
-1.03438e-42
-8.24667e-43
-5.43454e-43
-3.05869e-43
-1.50523e-43
-6.59393e-44
-2.60892e-44
-9.44113e-45
-3.16119e-45
-9.8999e-46
-2.92941e-46
-8.26697e-47
-2.243e-47
-8.16289e-48
-1.73487e-45
-1.74441e-43
0.582824
0.981667
0.847582
1
1
0.200206
0.0553689
1
1
1
0.485312
-4.3611e-22
-9.09695e-22
-1.0825e-22
-2.31052e-24
-3.30165e-26
-4.74456e-27
-4.79522e-28
-1.61753e-29
-8.52101e-33
-6.10622e-37
-1.22218e-44
-2.92332e-47
-2.74353e-50
-8.36555e-53
-7.73114e-59
-4.31176e-60
-4.05142e-61
-2.48152e-61
-2.65429e-61
-2.97984e-61
-3.37818e-61
-3.86525e-61
-4.49166e-61
-5.32527e-61
-6.50832e-61
-8.24933e-61
-1.1021e-60
-1.4751e-60
-1.961e-60
-2.62481e-60
-3.54658e-60
-4.85139e-60
-6.74657e-60
-9.51399e-60
-1.35906e-59
-1.96832e-59
-2.88633e-59
-4.27739e-59
-6.39473e-59
-9.63921e-59
-1.46887e-58
-2.2794e-58
-3.64775e-58
-6.13446e-58
-1.11197e-57
-2.24322e-57
-5.2233e-57
-1.44887e-56
-2.22486e-48
0.791277
0.988859
0.998998
0.999977
1
0.0167618
0.316046
1
1
1
0.283882
-2.09669e-22
-6.77436e-22
-3.97828e-23
-7.72833e-26
-1.97765e-27
-1.22567e-28
-2.32648e-30
-1.80363e-33
-4.73e-37
-3.81901e-46
-7.77695e-49
-3.50615e-52
-2.39934e-55
-6.92518e-62
-1.22257e-63
-2.70544e-65
-1.43805e-65
-1.53938e-65
-1.69352e-65
-1.89887e-65
-2.16138e-65
-2.50059e-65
-2.9231e-65
-3.419e-65
-4.01402e-65
-4.78399e-65
-5.8146e-65
-7.22585e-65
-9.23375e-65
-1.22448e-64
-1.68905e-64
-2.33551e-64
-3.25146e-64
-4.58891e-64
-6.56892e-64
-9.52957e-64
-1.3941e-63
-2.0478e-63
-3.018e-63
-4.473e-63
-6.72036e-63
-1.03862e-62
-1.68765e-62
-2.96118e-62
-5.77395e-62
-1.29034e-61
-3.44463e-61
-1.1631e-60
-2.08536e-54
1
1
0.571991
0.999859
0.99626
0.00518384
0.494947
1
1
1
0.131786
-3.60413e-21
-4.7391e-22
-8.49084e-24
-6.52875e-27
-1.24439e-28
-2.0922e-30
-4.10868e-33
-2.52289e-36
-9.55617e-44
-2.09108e-47
-1.0691e-51
-5.43911e-56
-2.16406e-61
-1.36218e-65
-4.39419e-67
-2.59934e-68
-3.13888e-69
-2.43133e-69
-3.13103e-69
-4.11165e-69
-5.35318e-69
-6.91949e-69
-8.88557e-69
-1.132e-68
-1.44176e-68
-1.84972e-68
-2.36895e-68
-3.01236e-68
-3.83084e-68
-4.91502e-68
-6.41923e-68
-8.60566e-68
-1.20207e-67
-1.81309e-67
-3.08491e-67
-6.26336e-67
-1.55823e-66
-4.53145e-66
-1.4016e-65
-4.37209e-65
-1.3277e-64
-3.90509e-64
-1.11922e-63
-3.13512e-63
-8.58827e-63
-2.30151e-62
-5.95087e-62
-1.45685e-61
-3.87754e-61
0.862443
0.904198
0.503382
0.999872
0.490762
0.0102253
0.633823
1
1
1
0.0505202
-6.50087e-22
-2.74414e-22
-5.88603e-25
-1.81681e-27
-9.63009e-30
-3.22858e-32
-3.41518e-35
-6.85408e-39
-1.36792e-43
-2.82792e-47
-1.21883e-51
-2.23971e-56
-1.64047e-61
-3.69753e-66
-2.41773e-67
-1.44517e-68
-7.76165e-70
-3.87409e-71
-3.80782e-72
-3.02516e-72
-3.89194e-72
-5.03597e-72
-6.45006e-72
-8.17869e-72
-1.03222e-71
-1.29852e-71
-1.621e-71
-2.02324e-71
-2.61312e-71
-3.84132e-71
-8.06916e-71
-2.78812e-70
-1.27319e-69
-6.12939e-69
-2.8541e-68
-1.2553e-67
-5.18609e-67
-2.0154e-66
-7.42956e-66
-2.62114e-65
-8.71307e-65
-2.7891e-64
-8.65757e-64
-2.62415e-63
-7.8085e-63
-2.29012e-62
-6.53102e-62
-1.78158e-61
-5.19232e-61
0.503408
0.647353
0.857684
0.999928
0.582908
0.0500805
0.758509
1
1
1
0.0143114
-1.24288e-21
-1.55782e-22
-1.23785e-25
-6.17599e-28
-1.1296e-30
-1.26412e-33
-7.95435e-37
-3.33544e-40
-2.04326e-43
-4.01597e-47
-1.61971e-51
-2.02084e-56
-1.18355e-61
-2.35136e-66
-1.4728e-67
-8.51584e-69
-4.44894e-70
-2.08757e-71
-8.78792e-73
-3.38225e-74
-2.01515e-75
-1.15932e-75
-1.39923e-75
-1.7407e-75
-2.27541e-75
-3.63681e-75
-9.36748e-75
-3.95833e-74
-2.0933e-73
-1.18254e-72
-6.77284e-72
-3.84873e-71
-2.1565e-70
-1.1941e-69
-6.46606e-69
-3.34482e-68
-1.62358e-67
-7.32556e-67
-3.06464e-66
-1.1918e-65
-4.33903e-65
-1.49662e-64
-4.97139e-64
-1.61922e-63
-5.20344e-63
-1.63854e-62
-5.02728e-62
-1.47865e-61
-4.55157e-61
0.927761
1
1
0.370818
1
0.0267551
0.885385
1
1
1
0.00139658
-1.54461e-21
-1.11457e-22
-7.02542e-26
-2.3089e-28
-2.04428e-31
-2.38923e-34
-4.57956e-37
-6.01764e-40
-3.49271e-43
-6.73778e-47
-2.91624e-51
-2.81702e-56
-8.85156e-62
-1.49427e-66
-8.96904e-68
-5.01771e-69
-2.55086e-70
-1.17108e-71
-4.84461e-73
-1.8043e-74
-6.04014e-76
-1.83404e-77
-1.26279e-78
-3.9962e-78
-2.18922e-77
-1.23459e-76
-7.05164e-76
-4.06514e-75
-2.36683e-74
-1.38564e-73
-8.10203e-73
-4.72469e-72
-2.75103e-71
-1.59241e-70
-9.05246e-70
-5.0368e-69
-2.75356e-68
-1.45657e-67
-7.23978e-67
-3.32077e-66
-1.40295e-65
-5.51184e-65
-2.04732e-64
-7.29771e-64
-2.50848e-63
-8.26184e-63
-2.56937e-62
-7.44139e-62
-2.08714e-61
0.999949
0.941826
0.277792
0.277792
0.968548
-8.5031e-32
0.971122
1
1
1
1.30179e-20
-1.75557e-21
-7.7773e-23
-4.23188e-26
-9.64909e-29
-9.925e-32
-3.43975e-34
-9.11846e-37
-1.21075e-39
-6.96265e-43
-1.40186e-46
-7.17213e-51
-7.13481e-56
-1.00285e-61
-9.45201e-67
-5.43182e-68
-2.93904e-69
-1.45252e-70
-6.51587e-72
-2.64687e-73
-9.71541e-75
-3.21593e-76
-9.60631e-78
-3.14239e-79
-3.20002e-79
-1.78701e-78
-1.0316e-77
-6.00697e-77
-3.52614e-76
-2.08804e-75
-1.24083e-74
-7.37155e-74
-4.37826e-73
-2.59539e-72
-1.52766e-71
-8.90593e-71
-5.14959e-70
-2.94081e-69
-1.64468e-68
-9.04675e-68
-4.83583e-67
-2.42138e-66
-1.1123e-65
-4.70216e-65
-1.85054e-64
-6.81783e-64
-2.32777e-63
-7.18181e-63
-1.91562e-62
-4.03838e-62
0.960064
0.999949
0.999942
0.991543
0.918999
-9.77497e-34
0.999003
1
1
1
-4.70519e-20
-1.64482e-21
-3.18987e-23
-2.62246e-26
-5.16825e-29
-1.40037e-31
-6.51818e-34
-1.80115e-36
-2.48563e-39
-1.48714e-42
-3.24225e-46
-1.93882e-50
-2.18846e-55
-2.33789e-61
-5.97664e-67
-3.25775e-68
-1.70442e-69
-8.18051e-71
-3.58145e-72
-1.42618e-73
-5.15204e-75
-1.68426e-76
-4.98008e-78
-1.36514e-79
-2.23448e-80
-1.11118e-79
-6.5175e-79
-3.85435e-78
-2.29501e-77
-1.37417e-76
-8.24408e-76
-4.94194e-75
-2.95721e-74
-1.76436e-73
-1.04548e-72
-6.14746e-72
-3.58338e-71
-2.06398e-70
-1.17512e-69
-6.61219e-69
-3.65615e-68
-1.98926e-67
-1.04151e-66
-5.01029e-66
-2.16491e-65
-8.37428e-65
-2.86663e-64
-8.40875e-64
-1.9843e-63
-3.40632e-63
1.12739e-19
0.059921
0.304987
0.399735
4.53615e-13
-6.48463e-32
1
1
1
0.909111
-1.09561e-20
-1.62889e-21
-5.52005e-24
-1.72355e-26
-4.24827e-29
-2.35012e-31
-1.18016e-33
-3.36977e-36
-4.83896e-39
-3.05946e-42
-7.26921e-46
-4.90709e-50
-6.23602e-55
-7.07946e-61
-3.97601e-67
-1.92575e-68
-9.74874e-70
-4.54542e-71
-1.94e-72
-7.5623e-74
-2.68473e-75
-8.65307e-77
-2.53089e-78
-6.7285e-80
-2.47741e-81
-5.12874e-81
-3.02858e-80
-1.81107e-79
-1.08691e-78
-6.54139e-78
-3.93498e-77
-2.36347e-76
-1.41304e-75
-8.38972e-75
-4.93675e-74
-2.87677e-73
-1.65449e-72
-9.37616e-72
-5.24225e-71
-2.87485e-70
-1.54669e-69
-8.15669e-69
-4.18002e-68
-2.06225e-67
-9.39452e-67
-3.73688e-66
-1.26265e-65
-3.52188e-65
-7.68961e-65
-1.20951e-64
0.00127802
1.23922e-16
1.56743e-11
1.59191e-10
2.8309e-11
0.0448708
1
1
1
0.685756
1.878e-21
-1.5878e-21
-4.51208e-24
-1.2882e-26
-4.96243e-29
-3.68473e-31
-1.94854e-33
-5.76238e-36
-8.57154e-39
-5.69753e-42
-1.46358e-45
-1.09021e-49
-1.53998e-54
-2.00508e-60
-3.51484e-67
-1.11495e-68
-5.47269e-70
-2.4809e-71
-1.03259e-72
-3.93811e-74
-1.37235e-75
-4.35436e-77
-1.25716e-78
-3.30288e-80
-8.16107e-82
-1.84217e-82
-1.00162e-81
-6.01551e-81
-3.61754e-80
-2.17449e-79
-1.30462e-78
-7.78591e-78
-4.60768e-77
-2.6976e-76
-1.55971e-75
-8.8712e-75
-4.94721e-74
-2.70228e-73
-1.44354e-72
-7.50425e-72
-3.78556e-71
-1.83887e-70
-8.53238e-70
-3.73873e-69
-1.51304e-68
-5.53117e-68
-1.73767e-67
-4.44425e-67
-8.8809e-67
-1.34709e-66
0.00352524
3.92947e-25
4.92117e-07
2.29594e-08
4.02626e-11
0.499152
1
1
1
0.463916
-3.77556e-22
-1.51987e-21
-4.39436e-24
-1.12719e-26
-6.4685e-29
-5.25082e-31
-2.86059e-33
-8.72829e-36
-1.34163e-38
-9.31309e-42
-2.56163e-45
-2.07594e-49
-3.23647e-54
-4.9323e-60
-5.67093e-67
-6.27755e-69
-2.99169e-70
-1.32049e-71
-5.36338e-73
-2.0021e-74
-6.84726e-76
-2.13733e-77
-6.08694e-79
-1.5815e-80
-3.74806e-82
-1.1855e-83
-2.29495e-83
-1.36705e-82
-8.17492e-82
-4.8748e-81
-2.89262e-80
-1.7006e-79
-9.88233e-79
-5.66e-78
-3.18507e-77
-1.75171e-76
-9.40009e-76
-4.90341e-75
-2.48046e-74
-1.21435e-73
-5.7333e-73
-2.59336e-72
-1.11613e-71
-4.50022e-71
-1.67172e-70
-5.57345e-70
-1.61182e-69
-3.91058e-69
-7.63528e-69
-1.14376e-68
0.000188406
4.04595e-07
1.8575e-07
1.27138e-05
-7.26883e-27
0.845107
1
1
1
0.250947
-4.90068e-21
-1.37839e-21
-4.4257e-24
-1.10921e-26
-8.00637e-29
-6.69398e-31
-3.69035e-33
-1.14721e-35
-1.8108e-38
-1.30412e-41
-3.81405e-45
-3.33559e-49
-5.7272e-54
-1.03681e-59
-1.31579e-66
-3.42164e-69
-1.58406e-70
-6.81221e-72
-2.70251e-73
-9.87521e-75
-3.31466e-76
-1.01773e-77
-2.85717e-79
-7.33867e-81
-1.71996e-82
-3.73393e-84
-4.1803e-85
-2.05916e-84
-1.21565e-83
-7.13632e-83
-4.15383e-82
-2.38754e-81
-1.35107e-80
-7.50927e-80
-4.08334e-79
-2.16442e-78
-1.11414e-77
-5.55761e-77
-2.67909e-76
-1.2463e-75
-5.577e-75
-2.39199e-74
-9.74799e-74
-3.71768e-73
-1.30228e-72
-4.0724e-72
-1.10397e-71
-2.51245e-71
-4.62782e-71
-6.64132e-71
1.80035e-09
1.49482e-07
0.000169376
0.000363502
-8.85246e-24
0.999454
1
1
1
0.0797025
-2.09321e-21
-1.09032e-21
-4.49111e-24
-1.19248e-26
-8.74268e-29
-7.38732e-31
-4.11047e-33
-1.28996e-35
-2.07261e-38
-1.53499e-41
-4.74221e-45
-4.45308e-49
-8.447e-54
-1.84746e-59
-3.04161e-66
-1.79938e-69
-8.10098e-71
-3.39637e-72
-1.31644e-73
-4.71017e-75
-1.55121e-76
-4.68162e-78
-1.29508e-79
-3.28507e-81
-7.62057e-83
-1.61608e-84
-3.47337e-86
-2.06531e-86
-1.16426e-85
-6.67558e-85
-3.78308e-84
-2.11102e-83
-1.15575e-82
-6.19317e-82
-3.23695e-81
-1.64534e-80
-8.10742e-80
-3.86753e-79
-1.78188e-78
-7.9091e-78
-3.37546e-77
-1.37704e-76
-5.31941e-76
-1.91631e-75
-6.30986e-75
-1.85238e-74
-4.72323e-74
-1.01481e-73
-1.77857e-73
-2.4652e-73
1.65223e-09
3.76498e-11
0.000572823
4.35072e-05
0.124045
1
1
1
1
0.00704728
-3.1538e-21
-8.39718e-22
-4.6375e-24
-1.43257e-26
-8.35502e-29
-6.87361e-31
-3.85486e-33
-1.21628e-35
-1.97521e-38
-1.49226e-41
-4.83967e-45
-4.86849e-49
-1.02845e-53
-2.76976e-59
-6.16473e-66
-9.08543e-70
-3.98283e-71
-1.63002e-72
-6.17703e-74
-2.16463e-75
-6.99397e-77
-2.0753e-78
-5.65439e-80
-1.41555e-81
-3.24777e-83
-6.82221e-85
-1.31411e-86
-3.56253e-88
-7.15674e-88
-3.96754e-87
-2.17917e-86
-1.1742e-85
-6.19291e-85
-3.18841e-84
-1.5982e-83
-7.78083e-83
-3.6657e-82
-1.67044e-81
-7.34517e-81
-3.10827e-80
-1.26247e-79
-4.88999e-79
-1.78797e-78
-6.08029e-78
-1.886e-77
-5.22499e-77
-1.26059e-76
-2.57546e-76
-4.32889e-76
-5.82741e-76
3.76498e-11
3.76498e-11
6.18021e-05
-7.90987e-20
0.853239
1
1
1
1
-8.05096e-20
-3.49014e-21
-6.16198e-22
-4.80493e-24
-1.94764e-26
-7.36286e-29
-5.31317e-31
-2.9768e-33
-9.38924e-36
-1.53481e-38
-1.17631e-41
-3.98967e-45
-4.30724e-49
-1.02645e-53
-3.47055e-59
-1.0586e-65
-4.38546e-70
-1.8728e-71
-7.4882e-73
-2.77616e-74
-9.53193e-76
-3.02247e-77
-8.81888e-79
-2.36719e-80
-5.84601e-82
-1.3257e-83
-2.75777e-85
-5.25977e-87
-9.21432e-89
-4.25819e-90
-1.51578e-89
-8.03427e-89
-4.17849e-88
-2.12449e-87
-1.05215e-86
-5.0706e-86
-2.36897e-85
-1.07175e-84
-4.68228e-84
-1.97244e-83
-7.98078e-83
-3.09404e-82
-1.14055e-81
-3.96123e-81
-1.27609e-80
-3.7529e-80
-9.86736e-80
-2.26906e-79
-4.4427e-79
-7.21157e-79
-9.47863e-79
0.00180369
0.000501622
1.5575e-08
-1.03314e-18
1
1
1
1
0.707929
2.49208e-21
-3.80786e-21
-3.43036e-22
-4.90387e-24
-2.80654e-26
-6.82865e-29
-3.33874e-31
-1.84803e-33
-5.80261e-36
-9.53355e-39
-7.39627e-42
-2.61748e-45
-3.05292e-49
-8.35155e-54
-3.60738e-59
-1.51699e-65
-2.02249e-70
-8.41014e-72
-3.28692e-73
-1.19282e-74
-4.01363e-76
-1.24876e-77
-3.58138e-79
-9.46462e-81
-2.30471e-82
-5.16199e-84
-1.06244e-85
-2.00797e-87
-3.47167e-89
-5.54178e-91
-4.72087e-92
-2.00511e-91
-1.00183e-90
-4.90063e-90
-2.34022e-89
-1.08745e-88
-4.90495e-88
-2.14172e-87
-9.03756e-87
-3.6719e-86
-1.43144e-85
-5.32758e-85
-1.87948e-84
-6.22733e-84
-1.9118e-83
-5.35508e-83
-1.34485e-82
-2.96538e-82
-5.60382e-82
-8.85301e-82
-1.14279e-81
0.00158839
6.36807e-05
2.64984e-20
0.873238
1
1
1
1
0.255654
-1.63308e-21
-3.65618e-21
-2.07626e-22
-4.89393e-24
-3.72631e-26
-7.56145e-29
-1.69349e-31
-8.97893e-34
-2.8017e-36
-4.64281e-39
-3.66076e-42
-1.35202e-45
-1.72106e-49
-5.50766e-54
-3.07228e-59
-1.78648e-65
-8.889e-71
-3.59541e-72
-1.37472e-73
-4.88653e-75
-1.6116e-76
-4.92084e-78
-1.38731e-79
-3.6075e-81
-8.6556e-83
-1.91303e-84
-3.89207e-86
-7.28139e-88
-1.24769e-89
-1.94937e-91
-2.85865e-93
-4.58729e-94
-1.99241e-93
-9.24791e-93
-4.21853e-92
-1.8829e-91
-8.18347e-91
-3.45277e-90
-1.40819e-89
-5.52817e-89
-2.07889e-88
-7.44211e-88
-2.51677e-87
-7.96698e-87
-2.33325e-86
-6.24004e-86
-1.49932e-85
-3.17883e-85
-5.82045e-85
-8.97891e-85
-1.1418e-84
1.25873e-05
1.38515e-05
0.422765
1
1
0.999999
1
1
0.00836903
-3.99462e-21
-2.88483e-21
-1.64146e-22
-4.69472e-24
-4.24256e-26
-9.1839e-29
-7.40466e-32
-3.43324e-34
-1.05929e-36
-1.77304e-39
-1.43304e-42
-5.51853e-46
-7.74719e-50
-2.93359e-54
-2.11396e-59
-1.70131e-65
-3.69976e-71
-1.44822e-72
-5.42594e-74
-1.89136e-75
-6.12008e-77
-1.83476e-78
-5.08783e-80
-1.30265e-81
-3.0806e-83
-6.71958e-85
-1.35013e-86
-2.49742e-88
-4.23653e-90
-6.5617e-92
-9.24988e-94
-1.28183e-95
-4.49981e-96
-1.91679e-95
-8.32765e-95
-3.56199e-94
-1.49051e-93
-6.07702e-93
-2.39869e-92
-9.11744e-92
-3.31761e-91
-1.1468e-90
-3.74025e-90
-1.13984e-89
-3.21076e-89
-8.26263e-89
-1.91612e-88
-3.93969e-88
-7.03508e-88
-1.06718e-87
-1.34395e-87
0.259686
0.35851
1
1
1
0.999999
1
0.938134
5.10314e-20
-6.23302e-21
-2.28682e-21
-1.63772e-22
-4.44871e-24
-4.35445e-26
-1.09611e-28
-3.40844e-32
-1.0787e-34
-3.26535e-37
-5.51231e-40
-4.60515e-43
-1.83781e-46
-2.85134e-50
-1.27206e-54
-1.17014e-59
-1.29894e-65
-1.46177e-71
-5.44709e-73
-2.00291e-74
-6.85563e-76
-2.17822e-77
-6.41589e-79
-1.74924e-80
-4.4098e-82
-1.02736e-83
-2.21076e-85
-4.387e-87
-8.01896e-89
-1.34569e-90
-2.06412e-92
-2.88383e-94
-3.65907e-96
-4.8336e-98
-2.74656e-98
-1.14332e-97
-4.76279e-97
-1.94696e-96
-7.76686e-96
-3.00754e-95
-1.12193e-94
-4.01277e-94
-1.36371e-93
-4.37168e-93
-1.31028e-92
-3.63297e-92
-9.21141e-92
-2.10622e-91
-4.28351e-91
-7.58847e-91
-1.14642e-90
-1.43979e-90
1
1
1
1
1
1
1
1
1
1
1
1
1
1
1
1
1
1
1
1
1
1
1
1
1
1
1
1
1
1
1
1
1
1
1
1
1
1
1
1
1
1
1
1
1
1
1
1
1
1
1
1
1
1
1
1
1
1
1
1
1
1
1
1
1
1
1
1
1
1
1
1
1
1
1
1
1
1
1
1
1
1
1
1
1
1
1
1
1
1
1
1
1
1
1
1
1
1
1
1
1
1
1
1
1
1
1
1
1
1
1
1
1
1
1
1
1
1
1
1
1
1
1
1
1
1
1
1
1
1
1
1
1
1
1
1
1
1
1
1
1
1
1
1
1
1
1
1
1
1
1
1
1
1
1
1
1
1
1
1
1
1
1
1
1
1
1
1
1
1
1
1
1
1
1
1
1
1
1
1
1
1
1
1
1
1
1
1
1
1
1
1
1
1
1
1
1
1
1
1
1
1
1
1
1
1
1
1
1
1
1
1
1
1
1
1
1
1
1
1
1
1
1
1
1
1
1
1
1
1
1
1
1
1
1
1
1
1
1
1
1
1
1
1
1
1
1
1
1
1
1
1
1
0.999949
0.992958
0.966432
0.914432
0.83251
0.715707
0.516438
-3.80507e-34
0.189595
0.18452
0.171805
0.155828
0.136846
0.11586
0.0930972
0.0689492
0.0444422
0.0210325
1.33595e-20
-1.53189e-21
-7.63049e-22
-5.42863e-22
-6.76771e-22
-7.34924e-22
-7.43743e-22
-7.04935e-22
-5.52992e-22
-4.21982e-34
-2.42805e-35
-1.26661e-35
-1.87805e-35
-2.59383e-35
-3.23512e-35
-3.63938e-35
-3.67105e-35
-3.30447e-35
-2.60736e-35
-1.83923e-35
-4.98875e-24
-2.35097e-23
-2.0872e-23
-1.4534e-23
-6.8086e-24
-2.12498e-24
-4.03673e-25
-4.79289e-26
-1.71002e-26
-3.03845e-34
-3.57422e-35
-1.55417e-37
-1.35511e-37
-3.16507e-37
-5.63385e-37
-7.88618e-37
-9.31418e-37
-9.54338e-37
-8.70978e-37
-7.60631e-37
-7.97124e-37
-1.16133e-36
-1.90111e-36
-2.33949e-36
-2.19581e-36
-1.46949e-36
-6.56033e-37
-2.25976e-37
-9.85328e-38
-4.90827e-34
-4.77384e-35
-2.86731e-37
-1.21791e-39
-3.53559e-39
-7.88321e-39
-1.3414e-38
-1.83695e-38
-2.12296e-38
-2.15913e-38
-2.06221e-38
-2.04802e-38
-2.0498e-38
-2.19514e-38
-2.10355e-38
-1.62013e-38
-9.62319e-39
-4.36885e-39
-1.63114e-39
-6.01169e-40
-2.36565e-34
-2.82862e-36
-1.37705e-38
-4.90054e-41
-6.05364e-41
-1.47096e-40
-2.735e-40
-3.99891e-40
-4.81029e-40
-4.99458e-40
-4.68786e-40
-4.16349e-40
-3.5294e-40
-2.84391e-40
-2.05391e-40
-1.26881e-40
-6.55316e-41
-2.83192e-41
-1.05198e-41
-3.5239e-42
-7.53829e-35
-2.18518e-37
-1.92573e-39
-1.80975e-41
-1.288e-42
-2.92757e-42
-5.56415e-42
-8.13848e-42
-9.59065e-42
-9.57853e-42
-8.43491e-42
-6.72544e-42
-4.90662e-42
-3.25913e-42
-1.93278e-42
-1.00389e-42
-4.51323e-43
-1.75488e-43
-5.96503e-44
-1.80398e-44
-1.68693e-35
-7.61603e-38
-8.47542e-40
-8.09003e-42
-8.14535e-44
-5.26235e-44
-9.78112e-44
-1.37079e-43
-1.52554e-43
-1.4252e-43
-1.15918e-43
-8.35359e-44
-5.3658e-44
-3.0669e-44
-1.5497e-44
-6.87289e-45
-2.66231e-45
-9.00584e-46
-2.67363e-46
-7.02481e-47
-9.73617e-37
-1.36425e-38
-1.42392e-40
-1.20449e-42
-7.70659e-45
-7.73253e-46
-1.30503e-45
-1.70203e-45
-1.75308e-45
-1.51764e-45
-1.13839e-45
-7.45057e-46
-4.24898e-46
-2.10794e-46
-9.0921e-47
-3.40981e-47
-1.1128e-47
-3.16783e-48
-7.90164e-49
-1.7379e-49
-1.2602e-39
-3.20876e-40
-3.43506e-42
-2.5798e-44
-1.31724e-46
-7.46445e-48
-1.13272e-47
-1.34683e-47
-1.27408e-47
-1.02325e-47
-7.09218e-48
-4.202e-48
-2.10796e-48
-8.94408e-49
-3.22651e-49
-9.96908e-50
-2.65752e-50
-6.15439e-51
-1.24672e-51
-2.22493e-52
-9.79148e-45
-8.92415e-44
-1.21932e-45
-8.63017e-48
-5.12623e-50
-3.4758e-50
-5.03692e-50
-5.41259e-50
-4.72318e-50
-3.54789e-50
-2.26984e-50
-1.19934e-50
-5.15525e-51
-1.81018e-51
-5.27086e-52
-1.29538e-52
-2.72886e-53
-4.98596e-54
-7.9706e-55
-1.12283e-55
-1.96646e-50
-2.52989e-49
-2.83227e-51
-2.52741e-53
-3.14388e-53
-5.37795e-53
-6.98942e-53
-6.84546e-53
-5.60515e-53
-3.98137e-53
-2.32866e-53
-1.06462e-53
-3.75125e-54
-1.03766e-54
-2.33203e-55
-4.39934e-56
-7.10561e-57
-9.90469e-58
-1.1972e-58
-1.26518e-59
1
1
1
1
1
1
1
1
1
1
1
1
1
1
1
1
1
1
1
1
1
1
1
1
1
1
1
1
1
1
1
1
1
1