/*--------------------------------*- C++ -*----------------------------------*\
| =========                 |                                                 |
| \\      /  F ield         | OpenFOAM: The Open Source CFD Toolbox           |
|  \\    /   O peration     | Version:  v1912                                 |
|   \\  /    A nd           | Website:  www.openfoam.com                      |
|    \\/     M anipulation  |                                                 |
\*---------------------------------------------------------------------------*/
FoamFile
{
    version     2.0;
    format      ascii;
    class       surfaceScalarField;
    location    "50";
    object      alphaPhi0.water;
}
// * * * * * * * * * * * * * * * * * * * * * * * * * * * * * * * * * * * * * //

dimensions      [0 3 -1 0 0 0 0];
oriented        oriented;


internalField   nonuniform List<scalar> 
40282
(
0.00276322
0.00264328
1.92103
-1.92761
1.92196
0.00564835
-1.91289
1.90071
0.0121749
-1.88559
1.86751
0.0180775
-1.84653
1.82264
0.0238847
-1.79596
1.76652
0.0294413
-1.73444
1.69975
0.034682
-1.66257
1.6229
0.0396639
-1.58083
1.53637
0.0444625
-1.4896
1.44059
0.0490129
-1.38945
1.33623
0.0532232
-1.281
1.22382
0.057178
-1.16475
1.10393
0.0608181
-1.04143
0.97736
0.064069
-0.911704
0.844625
0.0670787
-0.775976
0.706012
0.0699633
-0.634304
0.561224
0.0730794
-0.485899
0.409066
0.0768333
-0.328537
0.246466
0.0820711
-0.157507
0.070585
0.086922
-0.00423919
0.0056092
1.85606
-1.85152
1.84455
-0.0141029
0.0210791
-1.83486
1.82242
-0.0256641
0.0381007
-1.80723
1.78929
-0.0369899
0.0549275
-1.76862
1.74523
-0.0480323
0.0714182
-1.71917
1.6905
-0.0588086
0.0874829
-1.65926
1.6255
-0.0692801
0.103037
-1.58927
1.55062
-0.0793563
0.11801
-1.50959
1.46623
-0.0889793
0.132335
-1.42061
1.37278
-0.0981354
0.145964
-1.3228
1.27072
-0.106776
0.158853
-1.2166
1.16051
-0.114851
0.170947
-1.10249
1.04261
-0.122322
0.182207
-0.980914
0.917482
-0.129121
0.192554
-0.852395
0.785741
-0.135215
0.201869
-0.717639
0.648192
-0.140633
0.210081
-0.57756
0.505863
-0.145527
0.217223
-0.433366
0.360311
-0.150565
0.22362
-0.287082
0.214046
-0.157214
0.23025
-0.141603
0.075694
-0.17055
0.236458
-0.00701588
0.00836871
1.78953
-1.78536
1.77855
-0.0282182
0.0350288
-1.76908
1.75696
-0.0507502
0.0628694
-1.7422
1.72481
-0.0729981
0.0903846
-1.70482
1.68227
-0.0948373
0.117392
-1.65717
1.62955
-0.116146
0.143765
-1.59944
1.56688
-0.136795
0.16936
-1.5319
1.49455
-0.156673
0.194016
-1.4549
1.413
-0.175695
0.217595
-1.36892
1.3227
-0.193773
0.239984
-1.27444
1.2242
-0.210853
0.261095
-1.17205
1.11807
-0.226911
0.280894
-1.06232
1.00486
-0.241909
0.299364
-0.94576
0.885061
-0.255774
0.316473
-0.822813
0.759065
-0.268352
0.3321
-0.693872
0.627297
-0.279377
0.345952
-0.55942
0.490335
-0.288529
0.357614
-0.420181
0.349153
-0.295716
0.366743
-0.277532
0.205773
-0.301742
0.373501
-0.134395
0.0652286
-0.308655
0.377821
-0.00965673
0.0109324
1.72546
-1.72159
1.71517
-0.0417654
0.0481877
-1.70618
1.69464
-0.0749002
0.0864429
-1.68055
1.66395
-0.107656
0.124258
-1.64485
1.62327
-0.139878
0.161459
-1.59923
1.57276
-0.171358
0.197833
-1.54387
1.51261
-0.201912
0.233174
-1.479
1.44309
-0.231368
0.267279
-1.40492
1.36453
-0.25955
0.29994
-1.32198
1.27733
-0.286302
0.330953
-1.23064
1.182
-0.311485
0.360132
-1.13147
1.07915
-0.335022
0.387341
-1.02513
0.969506
-0.356895
0.412521
-0.912366
0.853796
-0.37711
0.43568
-0.793871
0.732654
-0.395617
0.456833
-0.670195
0.606531
-0.412152
0.475816
-0.541698
0.475734
-0.42612
0.492084
-0.40868
0.340603
-0.436683
0.504761
-0.27163
0.20203
-0.443539
0.51314
-0.13216
0.0635222
-0.447691
0.516328
-0.0121541
0.0133617
1.66366
-1.66
1.65391
-0.0545707
0.0606663
-1.64538
1.63444
-0.0979039
0.108846
-1.62109
1.60534
-0.14074
0.156492
-1.5872
1.56669
-0.182901
0.203413
-1.54382
1.51861
-0.22416
0.249364
-1.4911
1.46129
-0.264284
0.294092
-1.42922
1.39492
-0.303042
0.337342
-1.35842
1.31977
-0.3402
0.378853
-1.279
1.23617
-0.375515
0.418347
-1.19133
1.14453
-0.408754
0.455551
-1.09585
1.04535
-0.439719
0.490211
-0.993136
0.939286
-0.468285
0.522135
-0.883906
0.827101
-0.494422
0.551227
-0.768976
0.709632
-0.518175
0.577519
-0.649152
0.5876
-0.539472
0.601024
-0.525021
0.461443
-0.55782
0.621398
-0.396879
0.331335
-0.572104
0.637648
-0.264834
0.197464
-0.581019
0.64839
-0.129307
0.0620215
-0.584426
0.651712
-0.0145094
0.0156373
1.60419
-1.60059
1.59486
-0.0666892
0.0724135
-1.58686
1.57657
-0.119664
0.129948
-1.56401
1.54919
-0.172074
0.186899
-1.5321
1.51276
-0.223722
0.243063
-1.49117
1.46735
-0.274344
0.298164
-1.44131
1.41307
-0.323668
0.351909
-1.38265
1.35007
-0.371416
0.404
-1.31535
1.27852
-0.4173
0.454123
-1.23963
1.1987
-0.461009
0.501936
-1.15579
1.11093
-0.502229
0.547086
-1.06419
1.01562
-0.54066
0.589225
-0.965302
0.91331
-0.576037
0.62803
-0.859733
0.804675
-0.608191
0.66325
-0.748243
0.690553
-0.637104
0.694794
-0.631717
0.571834
-0.662825
0.722708
-0.510987
0.449236
-0.685112
0.746863
-0.386619
0.32315
-0.702935
0.766404
-0.258829
0.193649
-0.714431
0.779611
-0.127486
0.0622673
-0.718324
0.783542
-0.0167026
0.0177416
1.54654
-1.54351
1.53819
-0.07804
0.083353
-1.53076
1.5212
-0.140062
0.149618
-1.50953
1.49572
-0.20149
0.215291
-1.4798
1.46175
-0.262123
0.280176
-1.44157
1.41927
-0.32167
0.343973
-1.39484
1.36831
-0.379824
0.406361
-1.33966
1.30892
-0.436266
0.467006
-1.2761
1.24122
-0.490657
0.525542
-1.20429
1.16535
-0.542622
0.581562
-1.12443
1.08156
-0.591768
0.634635
-1.03679
0.990174
-0.637702
0.684322
-0.94176
0.89162
-0.680039
0.730179
-0.83983
0.786479
-0.718451
0.771803
-0.731667
0.675508
-0.75276
0.808919
-0.618123
0.559631
-0.782973
0.841465
-0.500144
0.439753
-0.809023
0.869414
-0.378526
0.316502
-0.830103
0.892127
-0.253685
0.190027
-0.844149
0.907807
-0.125221
0.0620192
-0.849197
0.912399
-0.0187145
0.0196538
1.49131
-1.48855
1.48369
-0.0885356
0.0933886
-1.4769
1.46816
-0.158947
0.167689
-1.45746
1.4448
-0.228779
0.241438
-1.43017
1.41355
-0.297849
0.314469
-1.39493
1.37431
-0.365851
0.386475
-1.35166
1.327
-0.432454
0.457119
-1.3003
1.27157
-0.497308
0.526038
-1.24081
1.20801
-0.560024
0.592822
-1.17319
1.13635
-0.620161
0.656996
-1.09752
1.05672
-0.677247
0.718048
-1.01398
0.969332
-0.730794
0.77544
-0.922829
0.87452
-0.780302
0.82861
-0.824471
0.772758
-0.825287
0.877
-0.719472
0.664719
-0.865377
0.92013
-0.608621
0.55131
-0.900422
0.957733
-0.492922
0.433586
-0.930395
0.989731
-0.373415
0.312498
-0.95471
1.01563
-0.250888
0.188553
-0.971319
1.03365
-0.124959
0.0639815
-0.977967
1.03895
-0.0205227
0.0213501
1.43795
-1.4353
1.43097
-0.0980753
0.102412
-1.42489
1.41706
-0.176141
0.183971
-1.40746
1.39608
-0.253697
0.265077
-1.3829
1.36788
-0.330601
0.345618
-1.35101
1.33225
-0.406552
0.425303
-1.3116
1.28902
-0.481207
0.503791
-1.26448
1.23797
-0.554196
0.580705
-1.20947
1.17896
-0.625087
0.655597
-1.14643
1.11187
-0.693374
0.72793
-1.07529
1.03668
-0.758501
0.797104
-0.996072
0.953474
-0.819876
0.862473
-0.908919
0.862447
-0.876874
0.923346
-0.814107
0.763963
-0.928856
0.979
-0.712093
0.658593
-0.975237
1.02874
-0.603579
0.547185
-1.01563
1.07203
-0.489559
0.430853
-1.04991
1.10861
-0.371214
0.310773
-1.07761
1.13805
-0.249621
0.187756
-1.09678
1.15865
-0.124381
0.0652367
-1.10529
1.16443
-0.022103
0.0228059
1.38664
-1.38434
1.38057
-0.106543
0.110305
-1.37529
1.36848
-0.191441
0.198255
-1.36011
1.35016
-0.275961
0.285916
-1.33858
1.32535
-0.360027
0.373258
-1.31043
1.29376
-0.443366
0.460028
-1.27532
1.25506
-0.525643
0.545907
-1.23293
1.20889
-0.606481
0.63052
-1.1829
1.15492
-0.685417
0.713396
-1.12492
1.09286
-0.761884
0.79394
-1.05873
1.0225
-0.835238
0.871465
-0.984173
0.943738
-0.904776
0.945211
-0.901207
0.856602
-0.969734
1.01434
-0.809956
0.761314
-1.0293
1.07794
-0.710741
0.658321
-1.08266
1.13508
-0.604163
0.548404
-1.12914
1.1849
-0.491204
0.432744
-1.16837
1.22683
-0.373215
0.312812
-1.19992
1.26032
-0.2517
0.189959
-1.22194
1.28368
-0.126412
0.0691594
-1.23263
1.28988
-0.0234303
0.0239963
1.33702
-1.33509
1.33196
-0.11382
0.116946
-1.32756
1.32188
-0.204635
0.210324
-1.31487
1.30649
-0.295269
0.303641
-1.29671
1.28547
-0.385745
0.396985
-1.27272
1.25839
-0.475841
0.490168
-1.24243
1.22477
-0.565258
0.582917
-1.20535
1.18409
-0.65363
0.674888
-1.16093
1.13581
-0.740483
0.765606
-1.10866
1.07942
-0.8252
0.854439
-1.04804
1.01447
-0.907051
0.940619
-0.978676
0.940624
-0.985216
1.02327
-0.900295
0.857685
-1.05878
1.10139
-0.812799
0.765663
-1.12672
1.17386
-0.716318
0.664833
-1.18798
1.23947
-0.611305
0.555865
-1.24154
1.29698
-0.498686
0.439978
-1.28667
1.34538
-0.379987
0.318996
-1.32281
1.3838
-0.257289
0.195123
-1.34822
1.41038
-0.130577
0.0752025
-1.36131
1.41668
-0.0244808
0.0248994
1.28926
-1.28756
1.28512
-0.119784
0.122218
-1.28169
1.27723
-0.215505
0.219965
-1.2717
1.26507
-0.311304
0.317941
-1.25726
1.24821
-0.40734
0.416384
-1.23786
1.22613
-0.503471
0.515202
-1.21294
1.19819
-0.59946
0.614204
-1.18181
1.16369
-0.694989
0.713106
-1.14375
1.12188
-0.789595
0.811468
-1.09798
1.07197
-0.882636
0.908647
-1.04375
1.01324
-0.973312
1.00382
-0.980359
0.945039
-1.06069
1.09601
-0.90722
0.866857
-1.14369
1.18405
-0.82392
0.778398
-1.22107
1.26659
-0.730302
0.679671
-1.29148
1.34211
-0.626578
0.571146
-1.35346
1.40889
-0.51355
0.454028
-1.40583
1.46535
-0.392893
0.330543
-1.4477
1.51005
-0.267438
0.20418
-1.4774
1.54065
-0.137268
0.0849626
-1.49379
1.5461
-0.0252349
0.0254983
1.24337
-1.2421
1.24041
-0.124326
0.126023
-1.238
1.23485
-0.223849
0.226996
-1.23092
1.22615
-0.323767
0.328537
-1.22047
1.21381
-0.424405
0.431065
-1.20609
1.1972
-0.525733
0.534617
-1.18706
1.17556
-0.627613
0.639117
-1.16258
1.148
-0.729812
0.744393
-1.13169
1.11353
-0.83192
0.850081
-1.09338
1.07111
-0.933311
0.955582
-1.04658
1.01967
-1.03315
1.06007
-0.990234
0.958162
-1.13041
1.16249
-0.923337
0.885657
-1.22387
1.26155
-0.845037
0.80141
-1.31205
1.35568
-0.754733
0.704995
-1.39325
1.44299
-0.65223
0.596525
-1.46553
1.52124
-0.538043
0.477043
-1.52703
1.58803
-0.413897
0.34914
-1.57631
1.64106
-0.283463
0.217959
-1.61161
1.67712
-0.146001
0.098367
-1.63327
1.68091
-0.0256789
0.0257831
1.19878
-1.19816
1.19723
-0.127363
0.128292
-1.19589
1.19412
-0.229507
0.23128
-1.19186
1.18906
-0.332404
0.335205
-1.18564
1.18153
-0.436572
0.440691
-1.17661
1.17081
-0.542125
0.547932
-1.16399
1.15605
-0.649063
0.657009
-1.14683
1.13621
-0.757284
0.767908
-1.12402
1.1101
-0.866489
0.880407
-1.09429
1.07639
-0.976126
0.994019
-1.05624
1.03364
-1.08539
1.10799
-1.0084
0.980344
-1.19323
1.22129
-0.949273
0.915012
-1.29831
1.33257
-0.877392
0.836262
-1.39895
1.44008
-0.791491
0.742983
-1.4931
1.54161
-0.69069
0.634629
-1.57823
1.63429
-0.574919
0.511808
-1.65159
1.7147
-0.445729
0.377398
-1.71083
1.77917
-0.307847
0.238862
-1.75381
1.82279
-0.159571
0.116747
-1.78233
1.82515
-0.0258075
0.0257539
1.15605
-1.15589
1.15574
-0.128843
0.128996
-1.15549
1.15511
-0.232374
0.23275
-1.15456
1.15378
-0.337032
0.337813
-1.1527
1.15122
-0.443549
0.445027
-1.14925
1.1467
-0.552208
0.554764
-1.14343
1.13931
-0.663183
0.667299
-1.1342
1.12793
-0.776558
0.782825
-1.12034
1.11121
-0.89221
0.901332
-1.10037
1.08757
-1.00974
1.02254
-1.0726
1.05521
-1.12848
1.14587
-1.03514
1.01213
-1.24745
1.27046
-0.985898
0.956166
-1.36533
1.39506
-0.922653
0.88508
-1.48034
1.51791
-0.843183
0.796721
-1.59013
1.63659
-0.745496
0.689382
-1.69155
1.74766
-0.628369
0.562627
-1.78075
1.84649
-0.492598
0.41919
-1.85398
1.92738
-0.343919
0.269632
-1.90827
1.98255
-0.181439
0.144106
-1.94664
1.98397
-0.0256259
0.0254211
1.11479
-1.11491
1.11551
-0.128762
0.128157
-1.11633
1.11733
-0.232427
0.231428
-1.11847
1.1197
-0.33758
0.336353
-1.12094
1.12213
-0.445173
0.443987
-1.12316
1.12394
-0.555674
0.554894
-1.12435
1.12425
-0.669462
0.669559
-1.1235
1.12192
-0.786855
0.788431
-1.11934
1.11554
-0.907975
0.911775
-1.1103
1.10336
-1.03268
1.03961
-1.09447
1.08332
-1.16054
1.17169
-1.0696
1.05296
-1.29084
1.30748
-1.03303
1.00941
-1.42246
1.44608
-0.981687
0.949409
-1.55376
1.58604
-0.912119
0.869355
-1.68232
1.72508
-0.820668
0.76566
-1.80452
1.85953
-0.70404
0.635721
-1.91527
1.98359
-0.560971
0.480751
-2.00866
2.08888
-0.397039
0.313885
-2.07977
2.16292
-0.213804
0.179917
-2.13236
2.16624
-0.0251499
0.0248058
1.07501
-1.07574
1.07707
-0.127169
0.125848
-1.07889
1.08119
-0.229734
0.22743
-1.08395
1.0871
-0.334106
0.33095
-1.0906
1.09438
-0.441444
0.437665
-1.09836
1.10245
-0.552403
0.548313
-1.10655
1.11053
-0.66758
0.663599
-1.11426
1.11757
-0.78756
0.784245
-1.12029
1.12222
-0.91277
0.910841
-1.12313
1.12275
-1.04342
1.04379
-1.12081
1.11697
-1.17946
1.1833
-1.11087
1.10213
-1.32062
1.32937
-1.09027
1.0748
-1.46628
1.48175
-1.05515
1.03071
-1.61531
1.63976
-1.00076
0.964564
-1.76577
1.80197
-0.921288
0.870089
-1.91414
1.96534
-0.810152
0.740813
-2.05442
2.12376
-0.661782
0.573657
-2.17808
2.26621
-0.478541
0.381821
-2.27626
2.37298
-0.265887
0.23413
-2.35339
2.38515
-0.0244054
0.0239386
1.03652
-1.03764
1.03961
-0.124163
0.122195
-1.04235
1.04584
-0.22446
0.220965
-1.05007
1.055
-0.326809
0.321879
-1.06059
1.06679
-0.432554
0.426353
-1.07355
1.08079
-0.542514
0.535273
-1.08843
1.09639
-0.657497
0.649544
-1.10454
1.11275
-0.77836
0.770147
-1.12087
1.12873
-0.905866
0.898009
-1.13611
1.14279
-1.04063
1.03395
-1.14848
1.15288
-1.18311
1.17871
-1.15562
1.1563
-1.33366
1.33299
-1.15442
1.14943
-1.49247
1.49745
-1.14068
1.1274
-1.65944
1.67272
-1.1087
1.0835
-1.83391
1.8591
-1.05058
1.0085
-2.01374
2.05583
-0.955635
0.890271
-2.19358
2.25894
-0.810821
0.716467
-2.36307
2.45742
-0.608088
0.491335
-2.50707
2.62382
-0.35222
0.313545
-2.6286
2.66727
-0.0234269
0.0228569
0.999486
-1.00114
1.00367
-0.119893
0.117363
-1.0072
1.01173
-0.216858
0.212327
-1.01725
1.02374
-0.316033
0.30954
-1.03118
1.03955
-0.418898
0.410534
-1.0488
1.0589
-0.526398
0.516296
-1.06981
1.08145
-0.639519
0.627878
-1.09375
1.10663
-0.759361
0.74648
-1.11998
1.13367
-0.887006
0.873321
-1.14754
1.16141
-1.02349
1.00962
-1.17506
1.18824
-1.1698
1.15662
-1.20065
1.21194
-1.32701
1.31573
-1.22167
1.22934
-1.49633
1.48867
-1.23432
1.23585
-1.67916
1.67763
-1.23299
1.22456
-1.87702
1.88545
-1.20906
1.18461
-2.09101
2.11546
-1.1488
1.09863
-2.31985
2.37001
-1.03054
0.940653
-2.55632
2.64621
-0.825732
0.687005
-2.78205
2.92078
-0.518093
0.450244
-2.99617
3.06402
-0.0222542
0.0216022
0.963919
-0.965668
0.968658
-0.114539
0.111549
-0.972844
0.978231
-0.207253
0.201866
-0.984822
0.992615
-0.302232
0.294439
-1.00161
1.01179
-0.401043
0.390855
-1.02317
1.03573
-0.504702
0.492146
-1.04945
1.06432
-0.614313
0.599446
-1.0803
1.09737
-0.731157
0.714092
-1.11546
1.13452
-0.856569
0.837509
-1.15447
1.1752
-0.991926
0.971197
-1.19658
1.21848
-1.1387
1.1168
-1.24071
1.26303
-1.29861
1.27628
-1.28519
1.30684
-1.47383
1.45218
-1.32756
1.34682
-1.66731
1.64805
-1.36393
1.37798
-1.88321
1.86915
-1.38777
1.3916
-2.12732
2.12349
-1.38713
1.37104
-2.40657
2.42265
-1.33871
1.28368
-2.72698
2.78202
-1.19753
1.06807
-3.08949
3.21896
-0.897049
0.816928
-3.51587
3.59599
-0.0612273
0.0789367
-0.0248078
0.0649612
-0.0982863
0.0329671
0.140449
-0.187716
0.0459671
0.236555
-0.280995
0.0467217
0.285111
-0.325127
0.0400162
0.341913
-0.341443
-0.000470567
0.330767
-0.354858
-0.0350079
0.317218
-0.255779
-0.0614381
0.167239
-0.035614
-0.131624
-0.148641
0.387622
-0.238981
-0.67326
0.98555
-0.31229
-1.29519
1.59815
-0.302961
-1.89233
2.1731
-0.280276
-2.4358
2.6757
-0.239241
-2.88504
3.05894
-0.177338
-3.20739
3.33673
-0.131294
-3.45505
3.56058
-0.099677
-3.57972
3.7293
-0.0750652
-3.88042
3.95112
-0.0706973
-4.01616
4.01127
-0.0594278
-3.98096
3.97833
-0.0259859
-4.0256
4.00103
-0.0143836
-4.08978
4.11392
-0.0536036
-4.20598
4.27428
-0.0444719
-4.39784
4.42472
-0.026885
-4.44451
4.46117
-0.0166567
-4.47852
4.49778
-0.019263
-4.51627
4.52917
-0.0129088
-4.53231
4.52599
0.00620028
-4.51871
4.51967
-0.000918983
-4.53
4.54544
-0.0154711
-4.56647
4.60132
-0.0348385
-4.65607
4.72778
-0.0716776
-4.80469
4.87886
-0.0741702
-2.64234
1.25221
0.00478103
-1.21696
3.73338
-0.00714973
-5.00892
5.18689
-0.177972
-5.40104
5.64118
-0.240137
-3.82501
-1.54444e-06
0.0190545
1.45194e-06
1.433e-05
3.49633e-07
-1.97267e-05
1.86861e-05
4.09551e-06
-2.6931e-07
9.52885e-11
2.46343e-07
-3.10888e-09
3.10888e-09
5.64545e-25
-2.37249
5.19119
-0.345097
-5.54368
5.79108
-0.2474
-5.9677
6.09638
-0.128682
-6.19456
6.27776
-0.0832022
-6.36002
4.97698
-0.081706
-1.67204
1.63899
-0.0211056
-1.65261
1.69838
-0.00191387
-1.55371
0.994878
-0.0023383
-0.505431
0.440952
0.00272839
-0.432919
0.439064
0.00606927
-0.42174
3.53462
0.019228
-5.56832
3.46984
-0.0179665
-2.22573
2.22262
0.00311122
-2.21268
2.19916
0.013521
-5.94509
6.33241
-0.00201113
-6.34016
6.32119
0.0189622
-3.94019
4.60299
0.0293715
-0.0909358
0.0966701
0.00320506
0.0473244
-0.0768981
-0.057841
0.100456
0.110201
-0.147812
-0.0726111
0.127869
0.187447
-0.223521
-0.0717325
0.122965
0.255259
-0.281781
-0.0670796
0.0959684
0.304697
-0.320613
-0.00861329
0.0245324
0.327717
-0.325355
0.0470634
-0.0493214
0.308105
-0.267967
0.112806
-0.152926
0.197385
-0.0855251
0.252907
-0.361969
-0.0843457
0.31389
0.472302
-0.702887
-0.597171
0.886558
0.626455
-0.937691
-1.07199
1.43077
0.572459
-0.972071
-1.76688
2.0853
0.553331
-0.874744
-2.36769
2.63946
0.463198
-0.750607
-2.96543
3.31108
0.361978
-0.607881
-3.50729
3.67938
0.300958
-0.473042
-3.83126
3.96544
0.230758
-0.364941
-4.08275
4.18455
0.176423
-0.278215
-4.2739
4.35478
0.146948
-0.227823
-4.42531
4.48397
0.117825
-0.176484
-4.53583
4.58016
0.0642713
-0.1086
-4.61008
4.6304
0.0312991
-0.0516175
-4.65023
4.32109
0.101292
-0.107085
-4.17185
4.18496
0.0754068
-0.11918
-4.83006
4.85012
0.0531786
-0.073232
-4.86578
4.87844
0.0316697
-0.0443308
-4.89057
4.90126
0.0354534
-0.0493417
-4.91687
4.93309
0.0282302
-0.0442537
-4.94822
4.95166
-0.0075248
0.00450807
-4.94574
4.94219
-0.00134527
0.00490054
-4.94878
4.9637
0.0307509
-0.0456676
-4.95948
4.90229
0.0589461
-0.0688764
-4.92577
5.02592
0.121572
-0.138456
-5.0557
3.89408
0.0826431
-0.125393
-2.81227
3.84057
-0.00881657
0.0112244
-5.08144
5.16632
0.0544672
-0.0838516
-5.19987
5.25684
0.319683
-0.376648
-5.32947
4.77194
0.420642
-0.499452
-0.101159
-8.39241e-10
7.46969e-20
-1.21649e-05
-2.98446e-09
5.22187e-08
-5.3786e-08
8.04475e-09
-2.68935e-05
7.94514e-05
-4.44075e-06
5.10603e-06
-9.02587e-05
4.18719e-09
1.4201e-06
-7.0589e-07
1.77613e-20
0.0155713
4.60734e-22
-0.0155713
-2.58067
6.17163
0.495873
-0.732497
-6.25806
6.34922
0.395627
-0.486788
-6.43195
6.50222
0.223508
-0.293785
-6.55853
6.60061
0.145437
-0.187523
-6.62926
6.64738
0.111072
-0.129196
-6.66089
6.6747
0.049937
-0.0637443
-6.68605
6.69326
0.0129273
-0.0201394
-6.69614
6.69637
0.00183339
-0.00206783
-6.69263
6.68695
-0.0172847
0.0229657
-6.68032
6.6776
-0.0520298
0.0547501
-6.68129
6.67716
-0.0404717
0.0446012
-6.66414
6.651
0.00496123
0.00817851
-6.64131
6.63624
-0.0183183
0.0233829
-6.63677
6.63929
-0.0361579
0.0336374
-6.63493
6.62693
-0.00680989
0.0148126
-6.33608
4.98151
-0.0330442
0.0351918
-5.25397
5.9843
-0.0203536
0.0458794
-0.0983754
0.10451
-0.00639514
0.0270071
-0.0596035
-0.133847
0.159699
0.0913749
-0.121409
-0.156696
0.18673
0.148041
-0.18685
-0.150866
0.183249
0.225582
-0.25403
-0.119476
0.14846
0.280618
-0.302124
-0.0452648
0.0706284
0.321888
-0.344941
0.0415601
-0.0257408
0.352129
-0.338749
0.178657
-0.18901
0.297129
-0.211537
0.458356
-0.544802
0.055958
0.189775
0.938558
-1.18674
-0.509126
0.907042
1.32318
-1.72109
-1.30278
1.68017
1.33209
-1.63019
-2.0161
2.33243
1.20386
-1.29945
-2.64275
2.92973
1.03392
-1.09162
-3.18618
3.38929
0.838552
-0.869998
-3.51928
3.5755
0.655219
-0.604476
-3.60133
3.65146
0.50658
-0.404884
-3.71561
3.79817
0.385712
-0.298863
-3.89562
3.97096
0.308876
-0.245433
-3.99788
4.03884
0.233595
-0.122134
-3.93562
2.3246
0.145632
-0.0490028
-0.957503
0.998635
0.0255351
-0.0303353
-3.81491
5.13873
0.195798
-0.191132
-5.15082
5.15233
0.143394
-0.14491
-5.15534
5.16062
0.0857818
-0.0910674
-5.16692
5.17324
0.0537619
-0.0600816
-5.18011
5.18935
0.060573
-0.0698101
-5.20039
5.21262
0.0589338
-0.0711699
-5.22565
5.23355
0.00171355
-0.00961587
-4.38288
4.00202
-0.00769046
0.00354147
-4.04012
4.05238
0.0474183
-0.0789588
-4.10935
4.8783
0.0781187
-0.109715
-5.29257
5.2986
0.157342
-0.163374
-5.29965
5.30691
0.144433
-0.15169
-5.32231
5.34345
0.0039748
-0.0251171
-5.36518
5.38397
0.10202
-0.120815
-5.39718
5.40103
0.402022
-0.405877
-5.39039
4.64594
0.520779
-0.482283
3.01095e-06
2.07678e-18
-3.01095e-06
5.30013e-20
-2.07595e-18
3.6505e-05
-1.22818e-06
1.41984e-06
-3.12067e-05
7.89248e-06
-2.48385e-06
1.96418e-07
-1.18776e-06
0.00893202
-2.8273e-07
-0.00893603
-0.825919
5.4053
0.0400998
-0.552916
-6.57643
6.56015
0.774539
-0.758256
-6.57598
6.60866
0.54072
-0.5734
-6.64525
6.67875
0.342867
-0.376365
-6.70531
6.72347
0.216153
-0.234312
-6.73343
6.73717
0.139175
-0.142913
-6.73837
6.74015
0.0704817
-0.0722629
-6.74256
6.74454
0.0246594
-0.0266331
-6.74537
6.74549
0.00157001
-0.00168442
-6.74546
6.74607
-0.0250122
0.0243932
-6.74771
6.75079
-0.0538236
0.050742
-6.7547
6.75474
-0.0464126
0.04637
-6.75026
6.74482
-0.0176701
0.0231124
-6.7422
6.74269
-0.0253214
0.0248307
-6.74566
6.74699
-0.0314493
0.0285675
-6.74642
6.74347
-0.0206587
0.0237347
-6.74125
6.74312
-0.0407595
0.0391001
-6.7472
6.7492
-0.0444729
0.0424757
-0.114471
0.126382
-0.0119105
0.0283464
-0.0542966
-0.190781
0.225235
0.0837769
-0.114738
-0.22634
0.257778
0.146573
-0.179008
-0.22159
0.254025
0.208026
-0.230636
-0.175796
0.20098
0.263854
-0.308268
-0.0954728
0.12906
0.343995
-0.381058
0.000293154
0.0367704
0.41914
-0.44741
0.181108
-0.149862
0.450195
-0.404872
0.617994
-0.666453
0.274856
0.0349772
1.50488
-1.03038
-0.127643
0.273306
1.42278
-0.810314
-0.248933
0.509792
0.685201
-0.864175
-0.654595
0.816839
0.793764
-1.12327
-0.986629
1.12547
0.725798
-1.26401
-1.24379
1.35394
0.615848
-1.10724
-1.4634
1.56616
0.486005
-0.914728
-1.6315
1.65464
0.254964
-0.692531
-1.6365
1.58681
0.176257
-0.478673
-1.55226
1.5323
0.181792
-0.325135
-1.53921
1.59077
0.0245435
-0.230899
-1.68092
1.71096
0.054493
-0.193377
-1.53326
1.5107
0.0293553
-0.0921674
-2.45589
3.00628
0.139512
-0.0704868
-1.34567
1.33567
0.0673967
-0.026967
-1.3476
1.34063
0.0473671
-0.00746357
-1.46216
1.40466
0.0255878
-0.00974476
-1.93494
3.05908
0.0656904
-0.0321769
-3.11545
2.67976
0.0737132
-0.0376719
-1.8136
2.07942
0.015688
-0.0185784
-2.38311
3.24179
-0.000602321
0.00192739
-4.18598
5.20286
0.0893826
-0.0595396
-5.53877
5.46725
0.114632
-0.114528
-5.34739
5.1323
0.152893
-0.061935
-4.90084
4.66104
0.155017
-0.0269531
-4.36219
4.05941
0.0528381
-0.0176396
-4.06316
4.33787
0.14411
-0.120509
-5.0907
5.22166
0.39546
-0.283211
-4.02743
0.333801
0.346609
-0.0472105
0.000675558
-1.03932e-19
-1.83616e-19
-0.000675558
-1.13665e-19
0.00264938
-2.46971e-09
-0.00264937
-0.0907105
0.640947
-1.96418e-07
-0.250611
-4.08643
6.70282
0.253156
-0.490808
-6.79781
6.79501
0.675704
-0.672903
-6.77978
6.77048
0.74394
-0.734636
-6.77372
6.78521
0.592748
-0.604239
-6.79864
6.81017
0.397325
-0.408858
-6.81744
6.82005
0.243681
-0.246291
-6.81818
6.81323
0.14169
-0.136741
-6.80738
6.80275
0.0703243
-0.0656912
-6.80001
6.79878
0.0266803
-0.0254492
-6.79858
6.79979
0.00233411
-0.00354147
-6.80276
6.80732
-0.0216814
0.0171188
-6.81283
6.81858
-0.0461902
0.0404432
-6.82365
6.82651
-0.0448183
0.0419586
-6.82759
6.82884
-0.0248714
0.0236226
-6.83191
6.83676
-0.0220963
0.0172475
-6.84256
6.8478
-0.0246484
0.0194031
-6.85124
6.85353
-0.0239193
0.0216349
-6.85587
6.86008
-0.0360583
0.0315836
-6.86515
6.86984
-0.0391023
0.0345159
-0.140669
0.156335
-0.016707
0.032587
-0.0548829
-0.24885
0.268663
0.081743
-0.111291
-0.2874
0.316528
0.141223
-0.16636
-0.278891
0.310832
0.204183
-0.242342
-0.230523
0.274252
0.279384
-0.313649
-0.167577
0.201842
0.351201
-0.399268
-0.0812149
0.134646
0.479347
-0.573359
0.0939144
-0.0128769
0.653872
-0.290932
0.692178
-0.45071
0.0227963
0.084268
0.209234
-0.786892
-1.01491
1.82594
1.15171
-3.83456
-2.50759
2.84898
3.1304
-3.4718
-3.17199
3.48262
2.6999
-3.01054
-3.77908
4.06006
2.24831
-2.52928
-4.32108
4.56069
1.82661
-2.06621
-4.77695
4.97101
1.45134
-1.6454
-5.14414
5.29748
1.11326
-1.2666
-5.43246
5.55007
0.824756
-0.942369
-5.65178
5.73619
0.601891
-0.686302
-5.80498
5.86181
0.453531
-0.51036
-5.90563
5.93472
0.355762
-0.384856
-5.9563
5.98171
0.187221
-0.212632
-6.00227
6.00152
0.101364
-0.100613
-5.99222
5.98534
0.0877416
-0.0808693
-5.98086
5.97785
0.0593927
-0.0563746
-5.97569
5.92926
0.0319399
-0.0363239
-5.80676
5.73487
0.0347036
-0.039474
-5.71599
5.77519
0.0565802
-0.0627701
-5.6051
3.58648
0.0220431
-0.0484588
-2.85129
3.7592
-0.00101179
-0.000833947
-5.74685
5.50899
0.0690171
-0.0664644
-4.06021
0.516772
0.0493279
-0.0747525
-0.588458
0.680876
0.0144496
-0.104897
-0.90454
1.20277
0.0173161
-0.183708
-1.42641
1.78109
0.0223254
-0.139081
-1.96932
1.85328
0.0427042
-0.131148
-1.73941
1.7882
0.142054
-0.286606
-2.07964
2.6603
0.0556885
-0.496986
-4.80851
6.3602
0.229923
-0.472638
-6.53418
6.629
0.353887
-0.448703
-6.70637
6.77511
0.41611
-0.484848
-6.83172
6.87468
0.530391
-0.573346
-6.90249
6.91503
0.678937
-0.69148
-6.91613
6.91461
0.729844
-0.728326
-6.91563
6.91785
0.610217
-0.612441
-6.91832
6.91641
0.412749
-0.410835
-6.91218
6.90615
0.243705
-0.237675
-6.89849
6.88971
0.129283
-0.120501
-6.88086
6.8736
0.0593686
-0.0521163
-6.86911
6.86703
0.0235447
-0.021458
-6.86662
6.86867
0.00523702
-0.00728287
-6.87396
6.88151
-0.0110168
0.00346596
-6.88975
6.89742
-0.0337493
0.0260787
-6.90368
6.90836
-0.0380822
0.0334061
-6.91261
6.91816
-0.0199849
0.0144381
-6.92553
6.93401
-0.0105449
0.00207035
-6.94263
6.95053
-0.0128522
0.00494738
-6.9573
6.9634
-0.0172978
0.0111969
-6.96955
6.97658
-0.0258415
0.0188162
-6.98356
6.9902
-0.0288519
0.0222083
-0.175394
0.193032
-0.0170747
0.0337548
-0.0536021
-0.289387
0.311718
0.0791322
-0.110454
-0.344948
0.37576
0.143397
-0.176881
-0.352204
0.385573
0.208742
-0.233347
-0.309394
0.317029
0.252957
-0.291406
-0.22737
0.252945
0.364715
-0.433346
-0.190671
0.259302
0.515114
-0.597018
-0.0949404
0.213507
0
1.14669e-19
0
4.87862e-20
-0.203105
1.49915
2.4943
-4.31666
-1.88857
2.22799
4.23866
-4.57808
-2.56642
2.90117
3.8015
-4.13625
-3.2298
3.54891
3.32113
-3.64025
-3.85518
4.14424
2.8116
-3.10067
-4.41343
4.65921
2.30623
-2.55201
-4.87999
5.07575
1.83832
-2.03407
-5.24806
5.39916
1.41814
-1.56924
-5.53087
5.6457
1.05868
-1.1735
-5.74529
5.82988
0.771508
-0.856103
-5.89943
5.95593
0.567125
-0.62362
-6.00057
6.0337
0.416198
-0.449325
-6.06101
6.09126
0.241519
-0.271768
-6.12186
6.14177
0.112808
-0.132727
-6.15033
6.15294
0.0780803
-0.0806949
-6.15275
6.15128
0.053083
-0.0516111
-6.14946
6.14743
0.0325554
-0.0305304
-6.14485
6.1407
0.032074
-0.0279275
-6.13482
6.12856
0.0544962
-0.0482437
-6.12319
6.12415
0.052218
-0.0531741
-6.13507
6.14803
0.0095135
-0.0224714
-6.15533
6.15908
0.0702651
-0.0740104
-6.16433
6.17537
0.130938
-0.141975
-6.19105
6.21096
0.173939
-0.193852
-6.23414
6.2592
0.207498
-0.232558
-6.28716
6.31871
0.217174
-0.248717
-6.35388
6.38787
0.256044
-0.290027
-6.41512
6.43699
0.415534
-0.437396
-6.4591
6.49137
0.532811
-0.565089
-6.53885
6.59864
0.541716
-0.601506
-6.66761
6.74013
0.530317
-0.602837
-6.80947
6.87325
0.551582
-0.615365
-6.92762
6.97138
0.617145
-0.660902
-7.00227
7.02162
0.70781
-0.727159
-7.02951
7.02866
0.728108
-0.727257
-7.02248
6.87434
0.611426
-0.573957
-6.26809
5.40148
0.404147
-0.101538
-4.99922
5.04853
0.230274
-0.0619994
-5.2412
5.63477
0.112003
-0.0407742
-6.17209
6.66927
0.0448208
-0.0226252
-6.91499
6.95478
0.0196533
-0.0192255
-6.95548
6.9571
0.00932438
-0.0109434
-6.96344
6.97285
0.00514947
-0.014557
-6.98305
6.99236
-0.0176323
0.0083253
-6.99977
7.00538
-0.0282586
0.0226478
-7.01087
7.0187
-0.00757894
-0.000252171
-7.02898
7.04006
0.00778267
-0.0188586
-7.05081
7.06074
0.00400493
-0.01393
-7.06981
7.07844
-0.00375494
-0.00487119
-7.08716
7.09634
-0.0107331
0.00155223
-7.10528
7.11344
-0.0148257
0.00667018
-0.208549
0.206872
-0.011128
0.029714
-0.0478652
-0.332615
0.350766
0.0730394
-0.105239
-0.40663
0.438351
0.13472
-0.159498
-0.385065
0.437679
0.188607
-0.220349
-0.344037
0.413077
0.270696
-0.318003
-0.310501
0.357931
0.357591
-0.433796
-0.308369
0.348914
0.470925
-0.0288906
-0.169255
0.062087
-4.68736e-20
0
-3.37871e-19
4.53247e-19
-1.25233
1.62436
5.25968
-5.63171
-1.95943
2.29974
4.91615
-5.25646
-2.64157
2.98214
4.47204
-4.8126
-3.32003
3.64996
3.96202
-4.29196
-3.96771
4.2667
3.39259
-3.69158
-4.54301
4.79266
2.79834
-3.048
-5.01512
5.21004
2.22775
-2.42267
-5.378
5.52214
1.71629
-1.86043
-5.64557
5.75105
1.28312
-1.38859
-5.8412
5.91765
0.936643
-1.01309
-5.98125
6.03348
0.678162
-0.730386
-6.07582
6.10941
0.482902
-0.516496
-6.13826
6.16739
0.301491
-0.33062
-6.19692
6.222
0.156107
-0.181183
-6.23999
6.25195
0.0883665
-0.100318
-6.25949
6.26422
0.0529955
-0.0577235
-6.26755
6.27033
0.0307
-0.0334846
-6.27275
6.27427
0.0266617
-0.0281846
-6.27452
6.27375
0.0445329
-0.0437636
-6.27281
6.27534
0.054242
-0.0567781
-6.28492
6.29923
0.0363123
-0.0506211
-6.31312
6.32414
0.0816397
-0.0926629
-6.33359
6.3441
0.151581
-0.162088
-6.35702
6.37362
0.211028
-0.227637
-6.39441
6.41934
0.257281
-0.282214
-6.44837
6.4812
0.280821
-0.313648
-6.51702
6.55357
0.32563
-0.362176
-6.58693
6.61537
0.462411
-0.490849
-6.64148
6.67231
0.595708
-0.626538
-6.71155
6.75803
0.653486
-0.699975
-6.8113
6.86774
0.666142
-0.722581
-6.9235
6.97754
0.673904
-0.727948
-7.02533
7.06021
0.703403
-0.73828
-6.81884
5.66307
0.743294
-0.209803
-2.0897
0.121363
0.281857
1.15903e-20
-5.71554e-19
-1.40719e-20
3.68582e-19
8.97998e-21
2.80335e-19
-2.90396e-19
0
6.89396e-21
2.71024e-19
4.97372e-35
2.32268e-17
-2.34978e-17
-1.35865e-33
-2.81414e-22
0
-1.22106e-22
0.000162493
0.00537253
0.00301327
-9.17322e-06
-0.038276
0.109697
0.00479192
-0.000132269
-0.330215
1.74195
0.00540507
-0.000891657
-5.07969
6.45418
0.024981
-0.0110346
-6.48294
6.51497
0.00160712
-0.00809772
-6.62715
6.83257
-0.0164908
0.00583509
-7.03282
7.12627
0.00844133
-0.0144054
-7.14584
7.15752
0.0304556
-0.0421306
-7.16877
7.17957
0.0243532
-0.0351475
-7.18996
7.20018
0.0142982
-0.0245183
-7.21053
7.22127
0.00842271
-0.0191702
-7.23182
7.2411