/*--------------------------------*- C++ -*----------------------------------*\
| =========                 |                                                 |
| \\      /  F ield         | OpenFOAM: The Open Source CFD Toolbox           |
|  \\    /   O peration     | Version:  v1912                                 |
|   \\  /    A nd           | Website:  www.openfoam.com                      |
|    \\/     M anipulation  |                                                 |
\*---------------------------------------------------------------------------*/
FoamFile
{
    version     2.0;
    format      ascii;
    class       volScalarField;
    location    "50";
    object      epsilon;
}
// * * * * * * * * * * * * * * * * * * * * * * * * * * * * * * * * * * * * * //

dimensions      [0 2 -3 0 0 0 0];


internalField   nonuniform List<scalar> 
20320
(
4.44142e-05
0.000214362
0.000220213
0.000225998
0.000231671
0.000237188
0.000242491
0.000247511
0.000252161
0.000256346
0.000259962
0.000262885
0.000264981
0.000266098
0.000266035
0.000264534
0.000261133
0.000254597
0.000241196
0.000206771
4.40135e-05
4.39271e-05
4.46678e-05
4.64378e-05
4.9782e-05
5.53508e-05
6.39538e-05
7.66634e-05
9.4858e-05
0.000120251
0.00015499
0.000201703
0.000263576
0.000344273
0.000447449
0.000575985
0.000728984
0.000891617
0.00101814
0.00115557
4.44249e-05
4.49304e-05
4.61451e-05
4.81848e-05
5.15009e-05
5.67153e-05
6.47235e-05
7.68558e-05
9.51057e-05
0.000122403
0.000162855
0.000221988
0.000306882
0.000426117
0.000589196
0.000804236
0.00107157
0.00136719
0.00160911
0.00188628
4.50132e-05
4.65161e-05
4.8808e-05
5.19456e-05
5.63981e-05
6.2812e-05
7.21279e-05
8.57683e-05
0.000105934
0.000136039
0.000181293
0.000249267
0.000350265
0.000497213
0.00070481
0.000986877
0.00134813
0.0017614
0.00212122
0.00258643
4.57408e-05
4.85799e-05
5.23196e-05
5.6959e-05
6.2985e-05
7.10712e-05
8.2213e-05
9.7914e-05
0.000120502
0.000153655
0.000203216
0.000278233
0.000391887
0.00056158
0.000807295
0.00114748
0.0015895
0.00210384
0.00257217
0.00328605
4.65862e-05
5.11047e-05
5.66999e-05
6.33134e-05
7.14414e-05
8.17814e-05
9.5377e-05
0.000113801
0.00013947
0.00017621
0.000230197
0.000311369
0.000435117
0.000623257
0.000902106
0.00129578
0.0018129
0.00241788
0.0029828
0.00398778
4.7521e-05
5.40295e-05
6.18827e-05
7.09742e-05
8.17933e-05
9.50436e-05
0.000111804
0.000133707
0.000163243
0.00020435
0.000263409
0.000350885
0.000483677
0.000687316
0.000994873
0.00143804
0.00202778
0.00271999
0.00337656
0.00470021
4.85101e-05
5.72717e-05
6.77601e-05
7.98421e-05
9.39887e-05
0.000110889
0.000131641
0.000157914
0.000192263
0.000238716
0.00030382
0.000398405
0.00054041
0.000758297
0.00109154
0.00158078
0.00224135
0.00301956
0.00376457
0.00542998
4.95112e-05
6.07158e-05
7.41545e-05
8.97087e-05
0.000107832
0.000129188
0.000154876
0.000186589
0.00022692
0.000279971
0.000352446
0.000455483
0.00060782
0.000840268
0.00119813
0.00173172
0.00246334
0.00333093
0.00416895
0.00619299
5.04749e-05
6.42081e-05
8.0803e-05
0.000100225
0.000122935
0.000149579
0.000181265
0.000219697
0.000267485
0.000328788
0.000410457
0.000523935
0.000688675
0.000937497
0.00132099
0.0018994
0.00270388
0.00366506
0.0045996
0.00700503
5.13469e-05
6.75594e-05
8.73561e-05
0.000110886
0.000138682
0.000171421
0.000210254
0.000256916
0.00031403
0.000385793
0.000479203
0.000606032
0.00078646
0.00105522
0.00146789
0.00209489
0.00297808
0.00404222
0.00508155
0.00789507
5.20725e-05
7.05558e-05
9.33933e-05
0.000121049
0.000154231
0.000193754
0.000240912
0.000297543
0.000366318
0.000451488
0.000560211
0.000704644
0.000905801
0.00120044
0.00164922
0.00233315
0.00330665
0.00448943
0.00564568
0.00888636
5.26028e-05
7.29814e-05
9.84652e-05
0.000129978
0.00016856
0.000215331
0.000271913
0.000340416
0.00042369
0.000526127
0.000655131
0.00082337
0.00105293
0.00138299
0.00187988
0.00263629
0.00372145
0.00505038
0.00634475
0.0100337
5.2901e-05
7.46463e-05
0.000102151
0.000136938
0.000180557
0.000234676
0.000301533
0.000383818
0.000484859
0.00060945
0.000765484
0.000966462
0.00123604
0.0016167
0.00218187
0.00303834
0.00427354
0.0057968
0.00726626
0.0114559
5.29489e-05
7.54174e-05
0.000104127
0.000141296
0.000189164
0.000250227
0.000327732
0.00042544
0.000547703
0.000700291
0.000892185
0.00113846
0.00146545
0.00192076
0.0025882
0.00359395
0.00505061
0.00685997
0.00857361
0.0133254
5.27496e-05
7.52443e-05
0.000104227
0.000142643
0.000193548
0.000260541
0.000348332
0.000462426
0.000609077
0.00079608
0.00103473
0.00134326
0.00175304
0.00232078
0.00314784
0.00439225
0.00620888
0.00849444
0.0106108
0.0160498
5.23276e-05
7.41683e-05
0.00010248
0.000140871
0.000193253
0.00026452
0.00036128
0.000491559
0.000664722
0.000892253
0.00118996
0.00158224
0.00211017
0.00284784
0.00393024
0.00557819
0.00803897
0.0112369
0.0141636
0.0205111
5.17241e-05
7.23155e-05
9.9103e-05
0.000136207
0.000188311
0.000261641
0.000364985
0.000509619
0.000709414
0.000981788
0.00135041
0.00185091
0.00254245
0.00353224
0.00502255
0.0073721
0.0110742
0.0162924
0.0213987
0.0295838
5.09906e-05
6.98728e-05
9.44594e-05
0.000129172
0.000179254
0.000252105
0.000358688
0.000513972
0.000737579
0.00105536
0.00150315
0.00213501
0.00304101
0.00438767
0.00650654
0.0100584
0.0162188
0.0263907
0.0391217
0.0550442
5.0181e-05
6.70545e-05
8.89925e-05
0.00012048
0.000167031
0.00023685
0.000342726
0.000503225
0.000744358
0.00110244
0.00162978
0.00240707
0.00357117
0.00538243
0.00839255
0.0138496
0.0245948
0.0467044
0.0888556
0.174353
1.29355
4.55402
7.47297
11.7266
18.8915
30.925
49.686
78.1943
123.692
184.801
233.506
254.62
257.058
247.046
230.394
212.724
195.971
180.463
166.131
152.234
137.655
126.052
117.228
106.862
96.8284
88.5464
82.0271
76.1642
71.2291
68.2982
66.9959
67.1296
67.993
66.9043
64.6057
68.882
80.0766
92.0102
99.7395
86.6701
99.2407
179.29
164.385
136.93
103.313
82.4234
69.4957
60.6584
53.1988
47.3307
42.9708
39.547
36.8224
34.9613
34.0029
33.1057
32.556
32.4381
32.4474
32.8198
2.72809
1.88288
3.05077
4.89901
8.17746
14.1279
24.783
43.0981
71.9659
106.926
128.193
132.983
128.575
120.581
111.344
102.408
94.1822
86.5062
79.3679
72.6201
66.2187
60.217
54.6755
49.2334
44.3473
40.2856
36.9745
34.2752
32.0986
30.4206
29.3005
28.5814
28.1029
27.8419
28.1659
29.781
33.6496
41.5722
59.2669
62.0511
65.0349
100.035
102.401
62.6487
44.4
34.6376
28.5578
24.3336
21.1945
18.7663
16.8361
15.2995
14.097
13.1244
12.3207
11.7338
11.3163
11.001
10.8488
10.8189
4.18121
2.11779
3.22393
5.38634
9.69577
18.5499
36.6226
71.5197
128.158
189.057
206.383
192.957
172.742
152.959
136.107
121.965
109.565
98.4702
88.5226
79.9115
72.4597
64.9802
56.75
50.0655
44.7093
40.3734
36.8543
34.0077
31.6955
29.8448
28.539
27.6308
27.1364
27.1634
27.7546
29.3694
33.0792
40.4661
52.1182
57.9391
55.6821
53.4217
47.5847
39.9291
33.8662
29.1558
25.4441
22.4837
20.0899
18.1335
16.5155
15.1721
14.0701
13.177
12.4479
11.8636
11.4119
11.0731
10.8381
10.6991
5.71889
2.68821
3.94396
6.83784
13.2244
27.7111
60.5656
130.299
249.398
359.766
338.047
268.56
213.016
175.962
150.487
131.306
115.719
102.816
91.9
82.6777
74.1335
65.5351
57.9277
51.8083
46.7085
42.3647
38.5797
35.488
33.0069
30.8825
29.33
28.344
28.0159
28.3531
29.1467
30.4986
33.8078
41.8576
59.2608
57.8919
47.8587
41.5666
37.0342
33.2715
30.0573
27.189
24.6369
22.4158
20.5112
18.8968
17.5345
16.3885
15.4393
14.6687
14.0433
13.5367
13.1348
12.8246
12.597
12.4485
7.32468
3.42398
4.96774
8.9087
18.2954
41.2613
97.6765
228.939
478.134
652.985
377.785
253.919
192.477
156.418
132.433
114.861
101.193
90.1507
80.9183
72.9548
65.8865
59.5252
53.8596
48.9236
44.641
40.8793
37.5871
34.7906
32.4975
30.5843
29.1189
28.3095
28.1931
28.6374
29.278
30.0866
32.2947
36.6432
40.9441
41.3682
39.0032
36.1893
33.5993
31.2898
29.1454
27.0651
25.0946
23.3109
21.7507
20.421
19.3055
18.374
17.6062
16.9933
16.5123
16.128
15.8173
15.5719
15.3881
15.2636
8.87743
4.26384
6.19383
11.4306
24.572
58.2818
145.264
365.007
841.97
605.12
324.908
215.657
162.198
131.304
110.913
96.1515
84.9005
75.9943
68.6688
62.4222
56.9931
52.2502
47.9999
44.1431
40.6826
37.5999
34.8815
32.5405
30.5965
29.0076
27.787
27.0102
26.6879
26.8309
27.3589
28.2345
29.6849
31.8312
33.986
35.0952
35.0119
34.2268
33.1028
31.7643
30.21
28.5091
26.8381
25.3267
24.0225
22.9367
22.0573
21.3502
20.7771
20.3405
20.0293
19.7936
19.593
19.4253
19.2938
19.1988
10.3326
5.16677
7.53453
14.1956
31.4268
76.6703
197.816
507.387
1058.34
472.615
262.276
174.389
130.881
105.749
89.1905
77.2913
68.3688
61.4861
55.9914
51.435
47.5582
44.206
41.2085
38.44
35.8876
33.571
31.5069
29.7173
28.2347
27.0686
26.213
25.7106
25.6041
25.9147
26.6234
27.6972
29.1475
30.9483
32.8091
34.2866
35.1668
35.4821
35.284
34.5438
33.2558
31.6481
30.1135
28.8011
27.7099
26.8247
26.1671
25.6894
25.3231
25.0739
24.9481
24.8667
24.7773
24.6852
24.5959
24.5108
11.8141
6.10931
8.91396
16.9659
38.2133
94.445
247.272
725.632
930.931
380.28
209.565
138.731
103.563
83.2133
69.8351
60.3553
53.4244
48.2664
44.3187
41.1725
38.571
36.3561
34.4006
32.6021
30.9297
29.4029
28.0542
26.9185
26.037
25.4436
25.1498
25.1882
25.6049
26.4189
27.6213
29.2009
31.1211
33.2781
35.4454
37.361
38.8754
39.9676
40.255
39.2592
37.1459
35.1361
33.7262
32.852
32.444
32.2387
32.0574
31.8698
31.7186
31.671
31.7487
31.8081
31.8087
31.7707
31.6866
31.5497
13.6467
7.10372
10.3093
19.6274
44.6267
111.748
291.758
783.533
717.577
312.595
170.789
111.231
81.7298
64.8395
53.9769
46.5473
41.3372
37.6125
34.8784
32.7884
31.1273
29.7695
28.628
27.6347
26.7619
26.0228
25.4508
25.0855
24.9686
25.1334
25.6003
26.4151
27.6217
29.2021
31.1464
33.5044
36.1642
39.012
41.6951
44.0734
45.7328
45.652
44.026
41.4573
38.9375
36.9152
35.7687
35.4275
35.6971
36.319
37.146
37.9459
38.7699
39.6287
40.2584
40.5121
40.56
40.5247
40.3604
39.9868
15.666
8.20464
11.8063
22.2437
50.7313
128.99
352.023
946.402
601.312
263.845
142.149
90.1657
64.6285
50.56
42.091
36.6106
32.881
30.2469
28.3676
27.0152
26.0423
25.3615
24.9162
24.665
24.5888
24.6941
25.005
25.5545
26.3741
27.4753
28.8563
30.6354
32.875
35.4036
38.1932
41.6426
45.1409
48.6716
50.7535
50.7508
49.3245
46.9556
44.036
41.1477
38.7898
37.1278
36.3484
36.3793
36.9769
37.9057
39.0906
40.4209
41.6931
42.816
43.7072
44.1419
44.1952
43.9974
43.5139
42.7454
17.4693
9.41716
13.6007
25.222
57.3065
146.431
405.312
1281.32
508.172
225.502
119.369
73.2579
51.3003
40.3442
34.6932
30.9923
28.2303
26.2376
24.9672
24.2557
23.9754
24.0448
24.421
25.0704
25.9667
27.1001
28.4771
30.1182
32.0398
34.2249
36.5556
39.3034
42.3328
45.5157
48.44
50.9231
52.8256
53.7122
52.8877
50.7928
47.9022
44.7116
41.6286
39.0303
37.128
35.9407
35.5117
35.7512
36.4497
37.4322
38.6432
39.972
41.1745
42.1739
42.9469
43.3183
43.2643
42.8564
42.1296
41.2699
18.9583
10.676
15.762
29.2143
66.0809
171.749
452.964
1015.5
430.294
193.559
99.7952
59.2218
41.4629
34.554
32.4182
29.1311
26.6121
24.9675
24.0713
23.7656
23.955
24.5677
25.5652
26.9163
28.5852
30.5364
32.7395
35.1871
37.8662
40.6901
43.2807
45.5514
47.7566
49.4967
50.7241
52.0375
52.1891
51.2365
49.3377
46.6026
43.5027
40.444
37.7733
35.7202
34.3427
33.5883
33.4204
33.7461
34.4131
35.3006
36.3483
37.4424
38.4032
39.1759
39.7277
39.9346
39.7556
39.247
38.5152
37.7972
20.2798
11.9238
18.2252
34.2738
77.9159
210.589
611.421
954.622
374.771
165.675
82.3817
47.8233
35.3299
33.2964
31.7039
29.164
26.8222
25.179
24.2445
23.8983
24.0573
24.6625
25.6685
27.0386
28.737
30.7189
32.9342
35.3425
37.8805
40.379
42.4939
44.4292
46.4752
47.4492
47.4967
47.6143
46.8702
45.2051
43.0067
40.3899
37.6844
35.1932
33.1534
31.6855
30.7759
30.3486
30.3399
30.6698
31.2367
31.9581
32.7733
33.5884
34.2916
34.8378
35.1834
35.2493
35.0163
34.5482
33.9695
33.4561
21.5369
13.1279
20.9077
40.4357
92.291
246.958
765.606
857.525
324.192
139.795
66.9699
39.2794
32.9062
34.1313
32.8141
29.5651
26.7214
24.7943
23.7146
23.3063
23.4341
24.0046
24.9469
26.2038
27.7271
29.464
31.3576
33.3469
35.3347
37.145
38.5789
39.9214
41.3541
41.8338
41.3372
40.6624
39.4833
37.7349
35.7104
33.5526
31.4694
29.654
28.2417
27.2792
26.7281
26.5175
26.5873
26.8776
27.324
27.8708
28.4671
29.0464
29.5414
29.9132
30.1217
30.1254
29.9295
29.5973
29.226
28.9141
22.8016
14.2379
23.631
47.533
110.402
288.479
822.348
705.891
277.302
116.116
53.8332
33.7498
33.6183
37.1161
33.8299
28.7983
24.9487
22.6325
21.4931
21.1643
21.3964
22.0356
22.9804
24.1541
25.4947
26.9434
28.4417
29.921
31.2783
32.379
33.1562
33.8572
34.5546
34.5848
33.8647
32.8829
31.629
30.1083
28.4942
26.9013
25.4499
24.2447
23.349
22.7695
22.4667
22.3876
22.4878
22.7278
23.0685
23.4736
23.9059
24.3218
24.6796
24.948
25.0998
25.1189
25.0224
24.8594
24.6889
24.5562
23.8988
15.1705
26.0957
54.647
132
361.324
1016.98
628.793
236.629
95.0224
43.2312
31.0059
37.0315
39.9143
33.6016
26.5981
21.76
19.0952
17.9502
17.7572
18.146
18.895
19.8674
20.9695
22.1307
23.2932
24.4049
25.404
26.2053
26.7292
26.9901
27.1705
27.2895
26.9961
26.2379
25.2811
24.2043
23.0484
21.9055
20.8445
19.9265
19.1984
18.6822
18.3691
18.2296
18.23
18.3429
18.5451
18.8141
19.1271
19.459
19.782
20.0691
20.2986
20.4552
20.5362
20.5584
20.5529
20.5498
20.5652
24.6837
15.8937
28.054
60.5072
151.082
450
1492.7
558.764
198.109
76.6047
35.2343
30.6572
41.5444
41.637
32.0417
23.4081
17.9061
15.0588
13.9378
13.8346
14.3084
15.097
16.0385
17.0255
17.9831
18.8587
19.613
20.2027
20.5751
20.7008
20.6307
20.4893
20.2827
19.8563
19.1987
18.4451
17.6652
16.8959
16.1806
15.5517
15.0347
14.6462
14.3894
14.2545
14.2235
14.2786
14.4056
14.5922
14.8261
15.093
15.3768
15.6593
15.9233
16.1552
16.3473
16.5014
16.6292
16.7479
16.8715
17.0004
25.3181
16.4298
29.5008
64.5164
161.659
470.702
1232.59
452.283
162.941
61.2444
29.6626
32.3411
46.9571
41.292
29.3239
19.7256
13.9872
11.1712
10.1126
10.0279
10.468
11.1725
11.9785
12.7774
13.496
14.0893
14.5324
14.8054
14.89
14.7935
14.5741
14.3114
14.0131
13.626
13.1576
12.6689
12.198
11.7647
11.3855
11.0721
10.8326
10.6707
10.5849
10.5691
10.615
10.7149
10.8629
11.0529
11.2781
11.5297
11.797
12.0686
12.3334
12.5833
12.8146
13.0293
13.2345
13.4399
13.6522
13.8613
25.358
16.8208
30.6356
67.4
167.556
477.557
1032.49
371.361
134.515
48.9422
26.137
35.7436
50.1831
39.875
25.9596
15.9642
10.3815
7.78206
6.81789
6.69305
6.99954
7.51355
8.09471
8.6479
9.11021
9.4475
9.64836
9.71274
9.64846
9.48117
9.25903
9.02738
8.79461
8.54732
8.29195
8.04995
7.83489
7.65326
7.50947
7.40648
7.34604
7.3287
7.35347
7.41817
7.52041
7.65793
7.82859
8.02975
8.2574
8.50604
8.76887
9.03851
9.30822
9.57319
9.83156
10.0849
10.3381
10.5976
10.8668
11.1269
25.3828
17.0645
31.6372
70.4982
174.332
487.695
935.559
319.256
111.786
39.2035
24.2422
40.6727
51.2016
37.1699
22.2322
12.4029
7.2793
5.02859
4.18444
3.99055
4.11476
4.38931
4.71078
5.00911
5.2383
5.37599
5.42187
5.38753
5.2921
5.16136
5.02472
4.9026
4.79847
4.70806
4.63155
4.57241
4.53279
4.51358
4.51544
4.53903
4.58499
4.65386
4.74597
4.86152
5.00068
5.16336
5.34922
5.55694
5.78443
6.02824
6.28428
6.54797
6.81538
7.08377
7.35246
7.62308
7.89976
8.18769
8.48788
8.7739
23.722
17.079
32.4045
74.3572
188.807
518.285
852.855
276.28
92.7941
31.5775
23.6196
46.4621
50.6314
33.5935
18.4324
9.19558
4.78008
2.95245
2.22921
1.97995
1.94623
2.0108
2.10899
2.19966
2.25804
2.27493
2.25473
2.20966
2.15514
2.10558
2.07183
2.05877
2.06437
2.08505
2.11783
2.16152
2.21554
2.27977
2.35451
2.44024
2.53768
2.64771
2.77127
2.90936
3.06283
3.23237
3.4182
3.61993
3.83648
4.06601
4.30618
4.55445
4.80867
5.06761
5.33145
5.6022
5.88368
6.18014
6.48998
6.7805
20.4265
16.7186
32.5935
77.1987
206.961
622.954
745.949
234.941
76.8753
25.7294
23.9632
50.9559
49.7897
30.111
14.8946
6.53159
2.92074
1.48807
0.925111
0.695209
0.597213
0.553831
0.531407
0.513314
0.492456
0.468282
0.444678
0.427139
0.420263
0.426753
0.447478
0.481521
0.526862
0.581775
0.644269
0.713969
0.78978
0.872174
0.961204
1.0574
1.16138
1.27395
1.39594
1.52833
1.67203
1.82771
1.99586
2.17651
2.36926
2.57331
2.7875
3.01056
3.2416
3.48039
3.72774
3.98582
4.25796
4.54687
4.84814
5.12523
19.565
16.3592
32.4016
77.7372
210.514
629.048
576.619
198.556
63.9287
21.324
25.0205
54.7079
47.7546
26.4267
11.6519
4.48174
1.60064
0.583228
0.242429
0.118899
0.0654966
0.0380032
0.0222333
0.0130788
0.00796205
0.00521955
0.00386317
0.00337546
0.00358276
0.0046298
0.0070584
0.0119362
0.0209119
0.0359536
0.0586072
0.0897199
0.129437
0.177814
0.234539
0.300033
0.373858
0.456633
0.548748
0.650761
0.763303
0.886877
1.02185
1.16834
1.32634
1.49551
1.6754
1.86554
2.06579
2.27652
2.49886
2.7347
2.98637
3.2547
3.53246
3.78211
22.1273
16.9998
32.8917
78.3729
211.104
632.669
479.216
171.475
53.1684
18.0214
26.5934
58.651
43.8676
22.2007
8.85029
2.90566
0.75094
0.155259
0.0284708
0.00471088
0.000768926
0.00026432
0.00017297
0.000138183
0.000116837
0.00010065
8.82264e-05
7.87643e-05
7.15693e-05
6.62342e-05
6.29441e-05
6.22349e-05
6.59857e-05
8.35679e-05
0.000152076
0.000433633
0.00153591
0.00493593
0.0129362
0.0279488
0.0517506
0.085507
0.129876
0.185532
0.252732
0.331872
0.423239
0.526871
0.642784
0.770872
0.911007
1.06312
1.22748
1.40469
1.59582
1.80227
2.02504
2.26282
2.50603
2.71899
28.1606
19.2847
35.7802
82.082
216.595
666.144
445.66
152.881
43.8011
15.597
28.5308
60.736
39.0935
18.0326
6.51741
1.74427
0.287369
0.025374
0.00151562
0.00021566
0.000150567
0.000134549
0.000121629
0.000108636
9.64398e-05
8.55962e-05
7.67062e-05
6.96667e-05
6.40481e-05
5.95401e-05
5.61562e-05
5.37434e-05
5.19018e-05
5.04907e-05
4.95591e-05
4.91436e-05
4.98698e-05
5.48423e-05
7.8004e-05
0.000185424
0.000699934
0.00267417
0.0082265
0.0201715
0.0411964
0.073309
0.117794
0.175312
0.24624
0.33069
0.428648
0.540231
0.665985
0.80634
0.962199
1.13426
1.3222
1.52285
1.72481
1.89621
34.7007
23.8032
42.4641
92.9995
232.631
683.701
427.65
136.473
35.276
13.9117
30.7598
59.2955
35.0174
14.8283
4.70997
0.956506
0.0865294
0.00296741
0.000197951
0.000130191
0.000120874
0.000111358
0.000102072
9.26413e-05
8.36046e-05
7.54747e-05
6.87769e-05
6.3311e-05
5.87517e-05
5.49791e-05
5.21037e-05
5.00218e-05
4.84227e-05
4.71329e-05
4.60899e-05
4.519e-05
4.45307e-05
4.42449e-05
4.42859e-05
4.4692e-05
4.64903e-05
5.43185e-05
9.01965e-05
0.000275338
0.00118623
0.00454397
0.0134233
0.0312729
0.0607646
0.10349
0.160309
0.231739
0.318388
0.420647
0.539245
0.674046
0.823635
0.983519
1.14108
1.26866
47.5085
31.7026
55.0559
116.195
284.227
774.959
401.62
117.748
27.4371
12.8589
33.2716
55.4819
32.0851
12.4827
3.36692
0.473455
0.0203731
0.000421974
0.000117091
0.000108937
0.00010272
9.56305e-05
8.82132e-05
8.1069e-05
7.4223e-05
6.7944e-05
6.27301e-05
5.83258e-05
5.45142e-05
5.13465e-05
4.8934e-05
4.71489e-05
4.57134e-05
4.45409e-05
4.36061e-05
4.28209e-05
4.22457e-05
4.19339e-05
4.17461e-05
4.16409e-05
4.17386e-05
4.21152e-05
4.28411e-05
4.47256e-05
5.20795e-05
8.80551e-05
0.000297059
0.00143021
0.00581673
0.0173618
0.0398002
0.0755448
0.12594
0.191717
0.273223
0.369993
0.479855
0.597164
0.708633
0.787769
70.7995
45.6961
77.5734
153.387
367.864
1004.73
360.939
96.1792
20.5468
12.3596
35.9776
52.3411
28.7334
10.3384
2.33264
0.20661
0.00399789
0.000139271
9.75415e-05
9.50706e-05
8.94437e-05
8.37415e-05
7.81352e-05
7.25526e-05
6.70776e-05
6.2066e-05
5.78813e-05
5.42518e-05
5.11092e-05
4.84907e-05
4.64644e-05
4.49146e-05
4.36175e-05
4.25635e-05
4.17164e-05
4.09975e-05
4.04728e-05
4.01888e-05
4.00238e-05
3.99458e-05
4.00153e-05
4.0215e-05
4.05332e-05
4.10505e-05
4.19199e-05
4.35315e-05
4.79983e-05
6.742e-05
0.000182704
0.000914221
0.00436879
0.0147099
0.0359396
0.0702729
0.118418
0.17976
0.251599
0.327307
0.392691
0.416513
109.183
69.156
118.012
230.072
501.703
991.752
305.638
72.9789
14.8883
12.3524
39.0776
49.1735
24.2997
8.09927
1.50086
0.0758625
0.000774142
9.40842e-05
8.59864e-05
8.41522e-05
7.97619e-05
7.48639e-05
7.0209e-05
6.57808e-05
6.14166e-05
5.74e-05
5.39957e-05
5.10022e-05
4.84243e-05
4.62346e-05
4.45016e-05
4.3146e-05
4.1986e-05
4.10186e-05
4.02366e-05
3.95995e-05
3.91511e-05
3.88911e-05
3.87237e-05
3.86379e-05
3.86819e-05
3.88458e-05
3.91202e-05
3.95362e-05
4.0137e-05
4.0999e-05
4.23021e-05
4.45361e-05
5.00452e-05
7.28384e-05
0.00021183
0.00111889
0.00529556
0.0168603
0.0385105
0.0703479
0.109775
0.150182
0.177897
0.165974
198.937
109.942
192.324
409.591
1038.74
1083.37
246.627
50.3089
10.7276
12.7962
42.5824
44.4443
19.6054
5.98415
0.86602
0.0221348
0.000206427
8.06759e-05
7.8334e-05
7.57323e-05
7.16892e-05
6.75821e-05
6.38043e-05
6.03302e-05
5.68903e-05
5.36918e-05
5.08875e-05
4.84025e-05
4.6274e-05
4.44229e-05
4.29292e-05
4.1741e-05
4.0691e-05
3.98045e-05
3.91023e-05
3.85387e-05
3.8136e-05
3.78874e-05
3.77265e-05
3.76507e-05
3.76803e-05
3.78027e-05
3.80218e-05
3.8364e-05
3.88522e-05
3.95341e-05
4.0486e-05
4.18169e-05
4.38347e-05
4.7324e-05
5.59178e-05
9.21137e-05
0.000312649
0.00160522
0.00645365
0.0171859
0.0330435
0.0493312
0.0567359
0.0416683
226.434
176.16
314.473
654.509
1602.71
868.91
169.309
31.199
8.10754
13.6692
45.887
38.9748
15.7759
4.26782
0.441428
0.00504933
0.000101515
7.35842e-05
7.24477e-05
6.98569e-05
6.58123e-05
6.20469e-05
5.88947e-05
5.61164e-05
5.33103e-05
5.06736e-05
4.8337e-05
4.62678e-05
4.44881e-05
4.29177e-05
4.1634e-05
4.05908e-05
3.96489e-05
3.88546e-05
3.82331e-05
3.77319e-05
3.73562e-05
3.71132e-05
3.69683e-05
3.69009e-05
3.69085e-05
3.69956e-05
3.71761e-05
3.74556e-05
3.78503e-05
3.84005e-05
3.91459e-05
4.01637e-05
4.15982e-05
4.36286e-05
4.67145e-05
5.1963e-05
6.4079e-05
0.0001085
0.000325454
0.00125419
0.00363872
0.00672359
0.00743048
0.00342726
214.334
176.836
288.483
574.281
1180.47
389.057
90.9074
17.928
6.75497
14.9869
46.1204
34.7522
12.9519
2.98258
0.19534
0.00099667
7.70785e-05
6.84516e-05
6.72795e-05
6.50216e-05
6.14467e-05
5.80299e-05
5.52556e-05
5.28988e-05
5.04812e-05
4.81991e-05
4.62016e-05
4.44484e-05
4.2962e-05
4.16643e-05
4.05827e-05
3.96602e-05
3.88129e-05
3.81094e-05
3.7562e-05
3.71137e-05
3.67691e-05
3.65452e-05
3.64102e-05
3.63325e-05
3.63187e-05
3.63848e-05
3.65305e-05
3.67523e-05
3.70719e-05
3.75141e-05
3.81042e-05
3.89018e-05
3.99828e-05
4.14684e-05
4.35639e-05
4.65236e-05
5.0892e-05
5.75098e-05
6.88555e-05
9.12194e-05
0.00013514
0.000190611
0.00018395
0.000105276
194.93
140.632
217.606
377.569
563.256
179.837
45.7164
10.4773
6.31978
16.8353
45.766
29.6669
10.1917
1.95428
0.0699845
0.000238533
6.88108e-05
6.47538e-05
6.31881e-05
6.09411e-05
5.76947e-05
5.4691e-05
5.23107e-05
5.03057e-05
4.82065e-05
4.62342e-05
4.45342e-05
4.30461e-05
4.17969e-05
4.07062e-05
3.97555e-05
3.89083e-05
3.81515e-05
3.75429e-05
3.70597e-05
3.66555e-05
3.63456e-05
3.6143e-05
3.60095e-05
3.59198e-05
3.58924e-05
3.59363e-05
3.60443e-05
3.62195e-05
3.64767e-05
3.68289e-05
3.72968e-05
3.79177e-05
3.87415e-05
3.98506e-05
4.13484e-05
4.34102e-05
4.62363e-05
5.00515e-05
5.51884e-05
6.15882e-05
6.86892e-05
7.4578e-05
7.56358e-05
6.76266e-05
145.066
114.383
173.025
295.704
232.814
85.9408
23.7094
6.76812
6.52218
19.3314
45.0597
23.3105
7.29177
1.11674
0.0178831
0.000102743
6.41348e-05
6.15437e-05
5.99033e-05
5.76203e-05
5.46049e-05
5.18766e-05
4.97767e-05
4.80589e-05
4.62874e-05
4.46382e-05
4.32146e-05
4.19562e-05
4.08875e-05
3.99452e-05
3.90869e-05
3.83213e-05
3.76707e-05
3.7143e-05
3.67031e-05
3.63358e-05
3.6056e-05
3.58638e-05
3.57292e-05
3.56361e-05
3.55978e-05
3.56182e-05
3.56942e-05
3.58293e-05
3.60316e-05
3.6309e-05
3.66755e-05
3.71561e-05
3.77851e-05
3.8607e-05
3.96968e-05
4.11456e-05
4.3047e-05
4.555e-05
4.87387e-05
5.25574e-05
5.66701e-05
6.01662e-05
6.14799e-05
5.80425e-05
101.225
97.45
154.101
253.082
135.457
47.0334
13.0299
5.04819
7.23226
22.6028
39.7873
18.1714
4.94459
0.536995
0.00302952
7.26697e-05
6.09011e-05
5.86891e-05
5.70825e-05
5.48461e-05
5.20947e-05
4.96515e-05
4.77734e-05
4.62414e-05
4.472e-05
4.33191e-05
4.20952e-05
4.10113e-05
4.00966e-05
3.92995e-05
3.8553e-05
3.78842e-05
3.73275e-05
3.68601e-05
3.64553e-05
3.61217e-05
3.58702e-05
3.56875e-05
3.55493e-05
3.54519e-05
3.54051e-05
3.54073e-05
3.54566e-05
3.55562e-05
3.5711e-05
3.59253e-05
3.62078e-05
3.65754e-05
3.70489e-05
3.76593e-05
3.84484e-05
3.94642e-05
4.07686e-05
4.24105e-05
4.44244e-05
4.68116e-05
4.94046e-05
5.17647e-05
5.31682e-05
5.2167e-05
69.5756
85.4182
164.599
215.162
83.4675
25.9112
7.46389
4.42694
8.45726
26.7414
33.1103
14.0172
3.14668
0.204116
0.00043298
6.41704e-05
5.84516e-05
5.62906e-05
5.45488e-05
5.24619e-05
5.00735e-05
4.79406e-05
4.62727e-05
4.4887e-05
4.35658e-05
4.23474e-05
4.12645e-05
4.03156e-05
3.95252e-05
3.88335e-05
3.81685e-05
3.7575e-05
3.70851e-05
3.66603e-05
3.62908e-05
3.5996e-05
3.57727e-05
3.55964e-05
3.5455e-05
3.53546e-05
3.53e-05
3.52864e-05
3.53123e-05
3.53808e-05
3.54944e-05
3.56549e-05
3.58679e-05
3.61438e-05
3.64946e-05
3.69391e-05
3.75046e-05
3.82208e-05
3.91084e-05
4.01884e-05
4.1487e-05
4.29945e-05
4.46333e-05
4.62574e-05
4.76951e-05
4.823e-05
54.2194
80.7661
223.844
139.602
46.8321
13.1903
4.65496
4.54513
10.2865
32.1684
26.2061
9.54955
1.72277
0.0532864
0.000123581
5.98085e-05
5.56817e-05
5.36607e-05
5.19814e-05
5.00796e-05
4.80871e-05
4.63281e-05
4.49094e-05
4.37131e-05
4.2615e-05
4.15851e-05
4.06505e-05
3.98365e-05
3.91517e-05
3.85339e-05
3.79321e-05
3.74022e-05
3.69598e-05
3.65675e-05
3.62297e-05
3.59665e-05
3.57599e-05
3.55808e-05
3.54335e-05
3.53319e-05
3.52713e-05
3.52428e-05
3.52471e-05
3.52879e-05
3.53659e-05
3.54803e-05
3.56351e-05
3.58361e-05
3.609e-05
3.64083e-05
3.6806e-05
3.72965e-05
3.78927e-05
3.86045e-05
3.94358e-05
4.03793e-05
4.14224e-05
4.25785e-05
4.39954e-05
4.55095e-05
73.9716
117.639
219.329
76.5366
21.7866
6.34279
3.53073
5.30128
12.962
32.4375
20.821
6.24677
0.78765
0.00869887
7.56982e-05
5.70705e-05
5.33601e-05
5.1175e-05
4.94585e-05
4.77821e-05
4.61243e-05
4.46681e-05
4.34708e-05
4.24602e-05
4.15634e-05
4.07251e-05
3.99577e-05
3.92888e-05
3.87101e-05
3.81785e-05
3.76811e-05
3.72458e-05
3.68677e-05
3.65246e-05
3.62255e-05
3.599e-05
3.57968e-05
3.56192e-05
3.54716e-05
3.53693e-05
3.53027e-05
3.5262e-05
3.52482e-05
3.52651e-05
3.53123e-05
3.53879e-05
3.54941e-05
3.56335e-05
3.58093e-05
3.60287e-05
3.62996e-05
3.66293e-05
3.70216e-05
3.74778e-05
3.79989e-05
3.8583e-05
3.9238e-05
4.00457e-05
4.13489e-05
4.34642e-05
214.285
416.185
126.237
30.944
8.1682
3.34972
3.49855
6.75998
17.0207
28.4254
14.6741
3.65729
0.280315
0.00122421
6.67925e-05
5.56594e-05
5.19099e-05
4.95564e-05
4.7711e-05
4.6109e-05
4.46649e-05
4.33922e-05
4.2308e-05
4.13969e-05
4.06163e-05
3.99119e-05
3.92765e-05
3.87277e-05
3.82413e-05
3.77964e-05
3.74043e-05
3.70528e-05
3.67302e-05
3.64414e-05
3.61912e-05
3.59889e-05
3.582e-05
3.56643e-05
3.55324e-05
3.54355e-05
3.53672e-05
3.53206e-05
3.52954e-05
3.52943e-05
3.53166e-05
3.536e-05
3.54264e-05
3.5516e-05
3.56297e-05
3.57717e-05
3.5946e-05
3.61551e-05
3.63997e-05
3.66791e-05
3.69917e-05
3.73349e-05
3.77239e-05
3.82654e-05
3.94101e-05
4.18789e-05
56.1367
71.1915
20.6705
6.59713
2.98602
2.58358
4.30018
9.16486
22.2046
22.3892
10.2572
1.99875
0.0856165
0.000495519
6.38901e-05
5.44332e-05
5.07142e-05
4.82515e-05
4.64291e-05
4.49398e-05
4.36722e-05
4.25784e-05
4.16362e-05
4.08311e-05
4.01456e-05
3.95419e-05
3.9002e-05
3.85313e-05
3.81068e-05
3.77165e-05
3.73686e-05
3.70489e-05
3.67528e-05
3.6494e-05
3.62717e-05
3.60836e-05
3.59226e-05
3.57788e-05
3.56558e-05
3.55587e-05
3.54854e-05
3.54316e-05
3.53948e-05
3.53769e-05
3.53765e-05
3.5392e-05
3.54241e-05
3.54722e-05
3.55358e-05
3.56166e-05
3.57164e-05
3.5836e-05
3.59746e-05
3.61306e-05
3.63019e-05
3.64871e-05
3.67002e-05
3.70438e-05
3.80086e-05
4.06442e-05
4.93451e-05
6.40698e-05
8.31489e-05
0.000110913
0.000152826
0.000217409
0.000318587
0.000477781
0.000726979
0.00111358
0.00170912
0.00262737
0.00406557
0.0064086
0.0105134
0.0185249
0.0363023
0.0810095
0.212042
0.922205
4.85013e-05
6.10672e-05
7.72506e-05
0.000101066
0.000137639
0.000195283
0.00028817
0.000439283
0.000685019
0.0010825
0.00172218
0.00275274
0.00443679
0.00729245
0.0124956
0.023124
0.0482003
0.115523
0.313568
1.22825
4.76769e-05
5.81157e-05
7.14789e-05
9.13455e-05
0.000122273
0.000171885
0.000253657
0.00039046
0.000620456
0.0010068
0.00165422
0.00274047
0.00458355
0.0078068
0.013799
0.0261176
0.0548095
0.127978
0.318906
0.797211
4.69005e-05
5.53277e-05
6.60674e-05
8.22051e-05
0.000107608
0.000148871
0.000217971
0.000335975
0.000539582
0.000892337
0.00150406
0.00256668
0.00442658
0.00775011
0.0139547
0.0264358
0.0540035
0.118722
0.265884
0.562165
4.6194e-05
5.27884e-05
6.11891e-05
7.39817e-05
9.43164e-05
0.000127608
0.000183853
0.000281053
0.000451559
0.000753356
0.00129003
0.00224722
0.0039624
0.00707131
0.0128526
0.0241143
0.0474235
0.0974489
0.200297
0.392312
4.55721e-05
5.05521e-05
5.69433e-05
6.68657e-05
8.28032e-05
0.000109014
0.000153386
0.000230286
0.000365979
0.000608534
0.00104569
0.00183743
0.00327629
0.00590399
0.0107552
0.0199085
0.0377086
0.0728721
0.1399
0.25608
4.50431e-05
4.86451e-05
5.3365e-05
6.09143e-05
7.32115e-05
9.34987e-05
0.000127734
0.000186736
0.000290348
0.000475084
0.000808014
0.00141199
0.0025114
0.0045154
0.00817354
0.0148797
0.0272565
0.0500564
0.0906712
0.15726
4.46097e-05
4.70712e-05
5.04404e-05
5.60862e-05
6.54819e-05
8.10539e-05
0.000107172
0.00015165
0.000228662
0.000364046
0.00060476
0.00103571
0.00180942
0.00319743
0.00567837
0.0100879
0.0178656
0.0313832
0.0540781
0.0896948
4.4271e-05
4.58178e-05
4.81203e-05
5.22733e-05
5.94234e-05
7.13858e-05
9.13287e-05
0.000124774
0.000181509
0.00027898
0.00044811
0.000743119
0.00125776
0.00215135
0.0036892
0.00630404
0.0106843
0.0178735
0.0292838
0.0464088
4.40237e-05
4.48595e-05
4.63282e-05
4.93281e-05
5.47812e-05
6.40668e-05
7.95012e-05
0.000104992
0.000147243
0.000217827
0.000336605
0.000537107
0.000874337
0.00143479
0.00234801
0.00380162
0.00606305
0.00950411
0.0145952
0.021789
4.38639e-05
4.41515e-05
4.49662e-05
4.71061e-05
5.13141e-05
5.86686e-05
7.09161e-05
9.08957e-05
0.000123284
0.000175834
0.000261374
0.000401089
0.00062889
0.000993622
0.00155533
0.00238016
0.0035415
0.00513695
0.00730502
0.0101591
4.39935e-05
4.36855e-05
4.41263e-05
4.5864e-05
4.94782e-05
5.58768e-05
6.63732e-05
8.30252e-05
0.000109094
0.000149645
0.000212651
0.000311806
0.000473477
0.000738676
0.00115206
0.00178815
0.0027978
0.00465727
0.00868537
0.0180515
0.000515705
9.07789e-05
0.000144771
0.000199563
0.000250244
0.000298757
0.00035123
0.000422002
0.000570844