/*--------------------------------*- C++ -*----------------------------------*\
| =========                 |                                                 |
| \\      /  F ield         | OpenFOAM: The Open Source CFD Toolbox           |
|  \\    /   O peration     | Version:  v1912                                 |
|   \\  /    A nd           | Website:  www.openfoam.com                      |
|    \\/     M anipulation  |                                                 |
\*---------------------------------------------------------------------------*/
FoamFile
{
    version     2.0;
    format      ascii;
    class       volScalarField;
    location    "50";
    object      k;
}
// * * * * * * * * * * * * * * * * * * * * * * * * * * * * * * * * * * * * * //

dimensions      [0 2 -2 0 0 0 0];


internalField   nonuniform List<scalar> 
20320
(
0.00413926
0.00425421
0.00433127
0.0044068
0.00448025
0.00455109
0.00461868
0.0046822
0.00474066
0.00479298
0.00483795
0.00487414
0.00490002
0.00491377
0.004913
0.0048945
0.00485246
0.00477115
0.00460223
0.00415319
0.00415081
0.00414923
0.00419426
0.00429055
0.00445977
0.00472172
0.00509386
0.00559324
0.00623497
0.00703056
0.0079903
0.00912278
0.0104351
0.0119293
0.0135916
0.0153822
0.0171946
0.0187239
0.019253
0.0175641
0.00417746
0.004218
0.0043046
0.00444379
0.00466156
0.00498992
0.00546855
0.00614617
0.00708063
0.00833518
0.00996881
0.0120254
0.014523
0.0174435
0.0207199
0.0242058
0.0276094
0.0303326
0.0310567
0.0272668
0.00421529
0.00432024
0.00447478
0.00468084
0.00496445
0.00535858
0.00590659
0.00666681
0.00771756
0.00916043
0.0111174
0.0137135
0.0170445
0.0211328
0.0258867
0.0310579
0.0361609
0.0402699
0.0414336
0.0357532
0.00426165
0.00445119
0.00469407
0.00498751
0.00535688
0.00583453
0.00646438
0.00730679
0.0084456
0.00999748
0.0121201
0.0150086
0.0188626
0.023812
0.0298118
0.0365402
0.0433033
0.048825
0.0505316
0.0434546
0.00431492
0.00460827
0.00496004
0.00536281
0.00584061
0.00642471
0.00715862
0.00810266
0.00934137
0.0109953
0.0132365
0.0163003
0.020472
0.0260144
0.0330052
0.0411255
0.0494816
0.0563889
0.0586294
0.0505121
0.0043731
0.00478617
0.0052649
0.00579776
0.00640653
0.00712037
0.00798157
0.0090496
0.0104082
0.0121783
0.0145369
0.0177387
0.0221258
0.0280783
0.0358331
0.0451589
0.0550214
0.0633001
0.0660795
0.0571008
0.00443383
0.00497862
0.00559901
0.00628052
0.00704196
0.00790936
0.00892288
0.0101402
0.0116433
0.0135518
0.0160442
0.0193845
0.0239492
0.0302094
0.0385612
0.048918
0.0601789
0.0697913
0.0730899
0.0633886
0.00449446
0.00517791
0.00594994
0.00679502
0.00772877
0.00877341
0.00996618
0.011362
0.0130398
0.0151171
0.0177716
0.0212719
0.0260159
0.0325418
0.0413897
0.0526472
0.065219
0.0761575
0.0800012
0.0695644
0.00455204
0.00537494
0.00630234
0.0073206
0.00844274
0.00968716
0.0110879
0.0126962
0.0145869
0.0168735
0.0197317
0.023432
0.0283861
0.0351824
0.044485
0.0565633
0.0703792
0.0826245
0.0869979
0.0758328
0.00460348
0.00555951
0.00663841
0.0078324
0.00915368
0.0106178
0.0122562
0.0141162
0.0162673
0.0188174
0.0219384
0.0259005
0.0311249
0.038239
0.0480137
0.0608991
0.0759517
0.0895345
0.0944376
0.0824511
0.00464581
0.00572101
0.00693892
0.00830258
0.00982643
0.0115257
0.013431
0.0155866
0.0180563
0.0209407
0.0244061
0.0287205
0.0343118
0.0418397
0.0521697
0.0659273
0.0822879
0.0972998
0.102733
0.0896381
0.00467649
0.00584938
0.00718498
0.00870261
0.0104232
0.0123659
0.0145643
0.0170625
0.0199194
0.0232281
0.0271479
0.0319433
0.0380473
0.0461499
0.0572044
0.0720098
0.0898769
0.106529
0.11253
0.0978253
0.00469364
0.00593626
0.00736011
0.00900597
0.0109066
0.0130908
0.0156014
0.0184878
0.0218083
0.0256509
0.0301683
0.0356225
0.0424533
0.0513833
0.063458
0.0796558
0.099435
0.11814
0.124823
0.107877
0.00469638
0.00597609
0.00745231
0.00919139
0.0112433
0.0136537
0.0164832
0.0197955
0.0236575
0.0281592
0.0334527
0.039803
0.0476656
0.0578095
0.0713948
0.0896116
0.112092
0.133691
0.141339
0.120992
0.00468493
0.00596694
0.00745593
0.00924586
0.0114086
0.014014
0.0171505
0.0209097
0.0253814
0.030673
0.0369509
0.0444996
0.053813
0.0657438
0.0816307
0.102972
0.129667
0.155927
0.165416
0.139764
0.00466059
0.00591086
0.00737259
0.00916671
0.0113897
0.0141419
0.0175502
0.0217495
0.0268737
0.0330727
0.0405555
0.0496605
0.0609685
0.0754982
0.0949178
0.121302
0.155162
0.19
0.203884
0.169466
0.00462553
0.0058136
0.00721104
0.00896237
0.0111886
0.014024
0.0176423
0.0222372
0.0280122
0.0351939
0.0440782
0.0551158
0.0690613
0.0872515
0.111993
0.146572
0.193232
0.245753
0.272864
0.225252
0.00458254
0.00568369
0.00698589
0.00865137
0.0108225
0.0136667
0.0174081
0.0223111
0.0286724
0.0368351
0.0472391
0.0605283
0.0777591
0.100823
0.133185
0.180621
0.250057
0.340829
0.411913
0.356884
0.00453457
0.00553127
0.00671546
0.00825973
0.0103218
0.0130971
0.0168567
0.0219391
0.0287498
0.0377828
0.04968
0.0653686
0.0863533
0.115358
0.157675
0.223472
0.330016
0.497538
0.703961
0.768341
0.807566
1.29709
1.805
2.43852
3.3532
4.65894
6.39672
8.66662
11.7815
15.4172
18.011
19.0526
19.1476
18.6294
17.7683
16.8343
15.9274
15.0684
14.2557
13.45
12.578
11.8477
11.2942
10.6245
9.94826
9.36861
8.90171
8.4737
8.09928
7.86878
7.765
7.76984
7.83813
7.76384
7.57868
7.8723
8.69763
9.54185
10.0638
9.32307
9.91843
14.8908
14.2299
12.6463
10.4691
8.98659
8.00636
7.3091
6.69814
6.19178
5.80262
5.48889
5.23186
5.04936
4.95542
4.86823
4.81233
4.79927
4.80052
4.83405
1.3309
3.63359
5.10811
6.91897
9.52956
13.3988
18.9287
26.7118
36.9578
47.831
54.1762
55.57
54.1762
51.625
48.6184
45.6333
42.824
40.1629
37.6796
35.3164
33.0278
30.8566
28.9013
26.8804
25.0142
23.4473
22.1647
21.0736
20.1224
19.4227
18.995
18.7274
18.5646
18.3539
18.1924
18.6614
19.8233
21.1946
22.7751
21.2883
22.7434
31.9506
32.5457
25.6082
21.7928
19.2133
17.3118
15.8242
14.6024
13.6024
12.7887
12.1222
11.603
11.2834
11.1018
10.9635
10.8964
10.9112
10.9502
11.0609
1.77389
4.75766
6.7199
9.19179
12.8844
18.6392
27.5491
40.8898
58.403
75.186
81.418
79.5213
74.9776
69.8097
64.9347
60.5077
56.3938
52.547
48.9814
45.7952
42.9289
39.9806
36.7286
33.9702
31.6599
29.7246
28.1111
26.7533
25.5851
24.6495
24.0305
23.6047
23.3771
23.3104
23.3646
23.8712
25.1441
27.2485
29.8409
30.4207
29.8962
29.9362
28.8832
27.1163
25.3335
23.5637
21.9292
20.4935
19.2583
18.2211
17.3631
16.6609
16.1212
15.7599
15.5304
15.377
15.2995
15.2912
15.3309
15.4363
2.1916
5.80286
8.18007
11.33
16.2901
24.5082
38.2162
60.0486
89.2494
113.282
112.574
99.9488
88.0698
79.1154
72.2654
66.6066
61.643
57.2715
53.3893
49.9819
46.7231
43.319
40.2154
37.6471
35.4263
33.4709
31.7142
30.2309
28.9896
27.9064
27.1492
26.686
26.5681
26.7509
27.0545
27.5466
28.8291
31.7074
37.4479
36.6354
33.1435
31.4079
30.392
29.4485
28.3273
27.0001
25.6224
24.3333
23.1965
22.2364
21.446
20.8065
20.3196
19.9904
19.7857
19.6614
19.6025
19.601
19.6503
19.7557
2.59144
6.86149
9.67297
13.582
20.0712
31.443
51.5695
85.6786
134.285
164.567
122.067
98.367
84.6659
75.557
68.7913
63.3312
58.7225
54.7453
51.247
48.1175
45.2511
42.5776
40.134
37.9732
36.0591
34.3371
32.7962
31.4621
30.3436
29.3993
28.7162
28.4078
28.4904
28.8643
29.2855
29.7357
30.8757
32.914
34.7557
35.0016
34.303
33.6129
33.037
32.4013
31.5359
30.4263
29.2273
28.0886
27.0893
26.2603
25.5967
25.075
24.6856
24.4353
24.3037
24.2453
24.233
24.2626
24.3352
24.4507
2.95415
7.91914
11.2027
15.9493
24.1861
39.1866
66.7312
116.044
193.225
161.203
113.805
90.9318
77.9179
69.4118
63.148
58.156
54.0322
50.5497
47.5414
44.8874
42.5215
40.4047
38.4749
36.7126
35.1213
33.6912
32.4219
31.3305
30.434
29.7234
29.2443
29.0543
29.1523
29.5306
30.12
30.9048
32.0398
33.5471
35.0175
35.9564
36.3525
36.4456
36.3293
35.9453
35.2202
34.2225
33.1546
32.167
31.3271
30.6577
30.1531
29.7857
29.5241
29.3837
29.3586
29.3944
29.4492
29.5246
29.6281
29.7579
3.2785
8.95006
12.7238
18.3408
28.4059
47.1354
82.3766
146.383
228.905
143.492
102.63
81.7686
69.8137
62.052
56.3834
51.9243
48.3183
45.3633
42.8939
40.7816
38.95
37.348
35.9116
34.5956
33.3991
32.3325
31.4084
30.645
30.0661
29.6867
29.5272
29.6263
30.0052
30.6624
31.5692
32.7097
34.1065
35.7188
37.3309
38.6732
39.6404
40.2546
40.5046
40.3096
39.6413
38.6697
37.7131
36.8996
36.2452
35.7413
35.4092
35.216
35.1075
35.0989
35.2021
35.3432
35.4745
35.6039
35.7395
35.8774
3.59545
9.94351
14.1877
20.6268
32.4578
54.7405
96.9127
183.983
218.872
129.021
91.5237
72.3859
61.4232
54.3649
49.2786
45.3694
42.3094
39.9056
37.9892
36.4207
35.1088
33.9954
33.0319
32.1787
31.4283
30.7963
30.3052
29.9788
29.8428
29.9198
30.226
30.7871
31.6244
32.7313
34.0838
35.6742
37.4795
39.4136
41.3005
42.9614
44.3109
45.3445
45.801
45.3724
44.1471
42.9432
42.1306
41.6828
41.565
41.5846
41.6183
41.6469
41.7042
41.8466
42.0974
42.3403
42.5417
42.7203
42.873
42.9896
3.96983
10.9232
15.5843
22.7394
36.1469
61.7618
110.024
200.924
189.983
116.178
81.4914
63.5173
53.2987
46.8753
42.4101
39.1344
36.7005
34.8863
33.5191
32.4642
31.637
30.9903
30.4936
30.1237
29.8762
29.7668
29.8192
30.0575
30.5014
31.163
32.0514
33.1956
34.6123
36.2642
38.1292
40.2384
42.5039
44.8441
47.0105
48.9139
50.3114
50.5686
49.8055
48.3606
46.8878
45.705
45.1116
45.0782
45.4758
46.1088
46.876
47.6131
48.3618
49.1425
49.7824
50.1702
50.4212
50.6236
50.7494
50.7427
4.36628
11.9509
16.9821
24.7122
39.4488
68.0913
123.834
226.648
172.454
104.938
72.4307
55.3271
45.7731
40.0935
36.4701
33.9893
32.2309
30.9723
30.0952
29.5092
29.1546
28.9989
29.0243
29.2184
29.5783
30.1129
30.8365
31.7632
32.8992
34.2332
35.7509
37.5347
39.6115
41.8329
44.1713
46.8924
49.5743
52.2208
53.9232
54.3278
53.8081
52.6316
51.0176
49.3436
47.9699
47.0368
46.7128
46.9662
47.6228
48.5006
49.5475
50.6882
51.7814
52.7702
53.611
54.1415
54.4121
54.5189
54.4419
54.1774
4.71094
13.0304
18.5144
26.7606
42.6407
73.9639
135.75
267.39
155.138
94.5696
64.0931
47.8799
39.2288
34.7061
32.3557
30.7233
29.4662
28.6013
28.1641
28.0853
28.3036
28.7786
29.4914
30.4247
31.5614
32.8919
34.4118
36.1204
38.0078
40.0389
42.1224
44.4525
46.9363
49.4551
51.7466
53.7577
55.381
56.3579
56.2575
55.3257
53.8219
52.0458
50.2557
48.7234
47.6277
47.0108
46.9346
47.3495
48.0981
49.0423
50.1439
51.3277
52.4148
53.3538
54.1425
54.6522
54.8618
54.8252
54.5691
54.2186
4.99248
14.101
20.2071
29.2091
46.3632
80.9427
145.797
236.294
139.454
84.9606
56.3339
41.3068
34.1202
31.4467
30.933
29.462
28.3534
27.757
27.646
27.9454
28.6056
29.5828
30.8507
32.3835
34.1486
36.1113
38.2368
40.5021
42.8764
45.2812
47.4684
49.416
51.3115
52.8816
54.08
55.3038
55.7906
55.5603
54.6976
53.2457
51.4865
49.679
48.068
46.8403
46.0686
45.7394
45.8473
46.3325
47.0761
47.9805
49.0029
50.0612
51.0169
51.8321
52.4932
52.9051
53.0312
52.9121
52.6274
52.3487
5.23923
15.1139
21.9808
32.0443
51.0679
90.5919
170.405
225.98
126.818
76.0569
49.1657
35.8171
30.8443
30.6443
30.362
29.3551
28.3946
27.845
27.7666
28.1086
28.8278
29.8873
31.2513
32.8849
34.7504
36.8021
38.9886
41.2643
43.5682
45.7734
47.6537
49.3606
51.1092
52.135
52.5291
52.947
52.7855
51.9902
50.8086
49.2934
47.6568
46.1098
44.8386
43.9581
43.4839
43.376
43.5989
44.0951
44.7821
45.5914
46.4773
47.3668
48.1691
48.8514
49.3852
49.7046
49.7874
49.6806
49.483
49.3282
5.47297
16.0498
23.7532
35.1582
56.4796
100.424
195.614
209.575
115.038
67.5657
42.6453
31.6143
29.5078
31.0093
30.8911
29.5184
28.2731
27.5538
27.3925
27.7133
28.4404
29.511
30.8678
32.4578
34.2319
36.1374
38.1185
40.1176
42.0557
43.8057
45.2337
46.5433
47.8783
48.5356
48.4991
48.3217
47.7773
46.8046
45.6047
44.2654
42.9328
41.7568
40.8586
40.2976
40.0624
40.1076
40.3915
40.8673
41.4798
42.1811
42.9295
43.6694
44.3426
44.9181
45.3638
45.6397
45.7434
45.7254
45.6685
45.6448
5.70601
16.8876
25.4368
38.3997
62.4549
110.609
208.702
187.155
103.872
59.4795
36.8789
28.8213
29.8191
32.5434
31.4042
28.979
27.0497
26.0149
25.7666
26.1139
26.9003
28.014
29.37
30.8966
32.5324
34.2193
35.9013
37.5186
38.9926
40.2273
41.1776
42.0268
42.8432
43.1513
42.8843
42.4038
41.7019
40.7707
39.7389
38.6894
37.7175
36.9165
36.3547
36.0554
35.9981
36.144
36.4579
36.9056
37.4517
38.0627
38.7056
39.3404
39.9285
40.4415
40.853
41.1434
41.3228
41.434
41.53
41.6338
5.90893
17.5873
26.9371
41.5298
68.8926
124.744
234.421
173.288
93.4687
51.8837
32.0003
27.3693
31.5358
33.9937
31.2215
27.5061
24.7615
23.3281
22.9631
23.3391
24.1974
25.3616
26.7108
28.1559
29.6275
31.0673
32.4245
33.6463
34.6684
35.4352
35.9616
36.3921
36.7539
36.7735
36.3993
35.8435
35.1708
34.4093
33.6347
32.9058
32.2788
31.805
31.517
31.4192
31.4922
31.7081
32.0424
32.4727
32.9768
33.5319
34.1131
34.6926
35.2423
35.7395
36.1661
36.515
36.7996
37.0492
37.2896
37.5126
6.05914
18.1368
28.1809
44.2785
74.9657
141.161
286.892
159.991
83.2688
44.8379
28.1081
27.0976
33.7513
34.8727
30.2383
25.2823
21.7832
19.957
19.4348
19.7771
20.6417
21.7957
23.0836
24.3993
25.6682
26.8369
27.8655
28.7154
29.3469
29.7417
29.9458
30.0677
30.1207
29.9698
29.5949
29.1142
28.5925
28.0629
27.5671
27.1385
26.8069
26.5968
26.5208
26.5765
26.75
27.0242
27.3846
27.8179
28.3103
28.846
29.407
29.9727
30.5228
31.0404
31.5143
31.9434
32.3384
32.7159
33.0837
33.4135
6.18504
18.5393
29.1404
46.3875
79.3726
149.32
264
142.019
73.5011
38.4769
25.2175
27.835
36.3585
34.6447
28.4931
22.5436
18.4549
16.3109
15.6152
15.8438
16.6078
17.6448
18.7796
19.8958
20.9168
21.7959
22.5071
23.0314
23.3561
23.4923
23.4967
23.4471
23.3556
23.1673
22.8826
22.5623
22.2479
21.962
21.7245
21.5517
21.4574
21.4518
21.5388
21.7154
21.974
22.3061
22.7042
23.1609
23.6673
24.2123
24.7823
25.362
25.9366
26.4943
27.0284
27.5394
28.0343
28.521
28.9967
29.418
6.21409
18.8004
29.8353
47.8685
82.0535
153.54
242.384
126.635
64.622
32.8999
23.2518
29.3965
37.8714
33.7934
26.2217
19.5141
15.0352
12.678
11.8134
11.8589
12.4159
13.224
14.1097
14.9576
15.6946
16.2827
16.7092
16.9748
17.0901
17.0845
17.0109
16.9211
16.8261
16.7084
16.5724
16.4439
16.342
16.2769
16.2567
16.2883
16.3774
16.5283
16.7423
17.0182
17.3533
17.7445
18.1884
18.6809
19.2158
19.7849
20.378
20.9838
21.5916
22.1935
22.7855
23.3681
23.9457
24.5214
25.0859
25.5816
6.24143
18.91
30.2937
49.0159
84.027
155.76
228.413
114.389
56.5785
28.1214
22.0877
31.6651
38.2882
32.1944
23.5635
16.3733
11.7027
9.25128
8.24814
8.06923
8.34174
8.83663
9.40264
9.93913
10.3831
10.7046
10.9033
10.9944
11.0026
10.9618
10.9115
10.8802
10.8735
10.8846
10.9132
10.9656
11.0468
11.1599
11.3076
11.4929
11.7183
11.9862
12.2979
12.6541
13.055
13.4998
13.9876
14.5156
15.0796
15.6735
16.2898
16.9204
17.5582
18.1977
18.8368
19.4762
20.1186
20.7644
21.3984
21.9496
5.99246
18.8259
30.5007
50.0139
86.8168
159.328
213.363
103.078
49.2797
24.1345
21.5859
34.2752
37.9355
30.0116
20.6676
13.2425
8.60743
6.1969
5.09313
4.69847
4.67622
4.83739
5.06681
5.29024
5.46364
5.57018
5.61618
5.62155
5.61172
5.61228
5.64384
5.71568
5.82495
5.96515
6.13066
6.32001
6.53267
6.76909
7.03044
7.31813
7.63401
7.97997
8.35783
8.76929
9.21553
9.69729
10.2143
10.765
11.3464
11.9545
12.5839
13.2294
13.8863
14.5515
15.2239
15.9044
16.5946
17.2919
17.9754
18.5612
5.44343
18.4805
30.4402
50.6538
90.1153
172.475
192.501
91.8846
42.7575
20.9029
21.6014
36.1867
37.3913
27.7467
17.7481
10.307
5.91156
3.62623
2.53273
2.03347
1.81477
1.72575
1.69104
1.66997
1.64379
1.61005
1.578
1.56248
1.57738
1.63223
1.73105
1.87146
2.0472
2.25255
2.48114
2.73173
3.0008
3.28958
3.59786
3.92699
4.27841
4.65391
5.05534
5.48468
5.9436
6.43299
6.95321
7.5034
8.08175
8.68564
9.31185
9.95705
10.6187
11.2952
11.9861
12.6921
13.4129
14.1421
14.8523
15.4499
5.30461
18.0602
30.3143
50.901
91.4268
175.502
164.15
81.7607
37.0577
18.3439
22
37.6682
36.2311
25.2644
14.8519
7.73091
3.67591
1.69536
0.833076
0.460145
0.280454
0.180113
0.117343
0.0770808
0.0524187
0.0381984
0.0308197
0.0282637
0.030049
0.0374809
0.0542635
0.0869959
0.144629
0.235625
0.363577
0.527705
0.724849
0.952675
1.20822
1.49199
1.80145
2.13837
2.50339
2.8978
3.32287
3.77931
4.2672
4.78589
5.33429
5.9107
6.51318
7.13983
7.78937
8.46106
9.15456
9.8691
10.6014
11.3403
12.0517
12.637
5.77629
18.4037
30.6295
51.3542
92.157
178.058
146.517
73.3436
31.9715
16.3446
22.6647
39.2261
34.154
22.3507
12.1107
5.50399
1.98413
0.551141
0.128955
0.0317421
0.0135706
0.0110485
0.0102295
0.00943682
0.00862595
0.00786614
0.00721497
0.00668188
0.0062517
0.00590927
0.00566046
0.005504
0.00542393
0.00550086
0.00612586
0.0089283
0.019438
0.0490914
0.111818
0.217584
0.369742
0.56813
0.810968
1.09767
1.4263
1.79618
2.2063
2.65495
3.14053
3.66135
4.21574
4.80224
5.42003
6.06813
6.74528
7.44853
8.17056
8.89438
9.5798
10.1289
6.8089
20.0301
32.1945
52.8558
93.5424
182.896
138.272
66.5033
27.3128
14.8228
23.4975
40.0337
31.5653
19.3077
9.61065
3.66152
0.883905
0.111658
0.015298
0.010287
0.0101595
0.00965713
0.00904117
0.00837139
0.00771466
0.00710742
0.00659079
0.00616796
0.0058209
0.00553595
0.0053178
0.00515994
0.00503798
0.00494202
0.00487195
0.00481858
0.00478016
0.00480057
0.00505683
0.00631902
0.012072
0.0321313
0.0824854
0.179124
0.33213
0.544922
0.816725
1.14455
1.52521
1.95528
2.43141
2.95126
3.51343
4.11501
4.75308
5.42154
6.10835
6.79061
7.42238
7.91115
7.85953
22.9092
35.5199
56.615
97.0199
183.808
132.139
60.0441
22.9747
13.7207
24.4418
39.3718
29.1906
16.7119
7.47119
2.24492
0.310806
0.0203343
0.00914008
0.00926318
0.00896882
0.00848995
0.00799862
0.00748423
0.00697499
0.00650144
0.00609881
0.00576098
0.00547236
0.0052286
0.00503948
0.00490087
0.00479371
0.00470686
0.00463642
0.00457563
0.00453104
0.00451086
0.00450796
0.00451021
0.00453132
0.00464539
0.00513976
0.00751402
0.0182741
0.0538488
0.137292
0.286509
0.508175
0.800767
1.15956
1.57933
2.05557
2.58254
3.15472
3.76129
4.38528
4.99815
5.54748
5.94663
9.72543
27.2917
41.2881
63.9853
107.124
193.067
124.006
52.8822
18.9362
12.9866
25.481
37.5573
27.2798
14.6039
5.71333
1.2491
0.0867992
0.00891546
0.00832702
0.00831942
0.00800777
0.00762692
0.00721711
0.0068109
0.0064106
0.00603303
0.00571089
0.0054322
0.00518588
0.00497728
0.00481591
0.00469529
0.00459772
0.00451762
0.00445364
0.00440008
0.00436132
0.00434131
0.00433033
0.00432534
0.00433423
0.00435991
0.00439693
0.00445566
0.0046115
0.00519565
0.00817118
0.0228065
0.0730837
0.189094
0.387351
0.66805
1.02378
1.44477
1.91999
2.43461
2.96631
3.47956
3.91371
4.17088
12.7388
34.2824
50.631
75.5755
123.864
219.002
112.875
44.8112
15.3164
12.5801
26.5766
35.8905
25.0848
12.5912
4.23883
0.614605
0.023143
0.00747604
0.00763712
0.00757075
0.00726485
0.00694481
0.00662287
0.0062948
0.00596514
0.00565568
0.00539101
0.00515667
0.00494992
0.00477479
0.00463747
0.00453154
0.00444236
0.00436954
0.00431099
0.00426148
0.00422582
0.00420746
0.0041979
0.00419486
0.0042027
0.00422019
0.00424631
0.00428588
0.00434553
0.00443222
0.00458635
0.0050114
0.00695702
0.0178101
0.0626859
0.178014
0.381088
0.665917
1.0168
1.41324
1.82676
2.21354
2.5008
2.54675
17.0606
44.3966
65.0191
95.8395
149.97
216.436
98.8472
36.0819
12.2561
12.4694
27.8282
34.228
22.2358
10.444
2.95967
0.256133
0.00940998
0.00699572
0.00703874
0.00694736
0.00669819
0.00641437
0.00613873
0.00587095
0.00560134
0.00534761
0.00512801
0.00493143
0.00475933
0.0046111
0.00449247
0.00439898
0.00431852
0.00425115
0.00419671
0.00415257
0.00412199
0.00410513
0.0040952
0.0040914
0.00409725
0.00411211
0.0041353
0.00416901
0.00421616
0.00428124
0.00437277
0.00450479
0.00472876
0.00530223
0.00786379
0.0221149
0.0780983
0.208369
0.41467
0.675342
0.956441
1.208
1.34945
1.23256
25.5874
59.2515
87.0331
132.987
224.259
222.991
83.0222
27.2539
9.90317
12.6335
29.2217
31.8939
19.1032
8.3005
1.88854
0.087025
0.0068958
0.00661785
0.00659719
0.00644886
0.00621114
0.00596538
0.00573522
0.00551974
0.00530237
0.0050963
0.00491246
0.00474701
0.00460327
0.0044768
0.00437375
0.00429125
0.00421797
0.00415589
0.00410679
0.00406761
0.00404009
0.00402389
0.00401425
0.00401101
0.00401566
0.00402736
0.00404641
0.00407473
0.004114
0.00416756
0.00424044
0.00433894
0.00447852
0.00468393
0.00503598
0.0059516
0.0100361
0.0301214
0.0934585
0.211281
0.359917
0.49185
0.537626
0.400937
28.0598
79.776
116.849
176.616
294.758
188.97
63.6242
19.3714
8.32338
13.0584
30.4856
29.1299
16.3091
6.39883
1.07997
0.0258474
0.00634788
0.00628099
0.00624069
0.00608766
0.00584425
0.00561323
0.00541648
0.00524038
0.00505965
0.004887
0.00473174
0.0045924
0.00447113
0.00436306
0.00427399
0.0042012
0.00413519
0.00407938
0.00403583
0.00400095
0.00397525
0.00395932
0.0039507
0.00394792
0.00395083
0.00395981
0.00397587
0.00399946
0.0040318
0.00407578
0.00413423
0.00421246
0.00432004
0.00446726
0.00467708
0.00498482
0.00549417
0.0066668
0.0107994
0.0255041
0.0577623
0.0938392
0.0990191
0.0496686
27.1142
81.7275
115.285
172.013
254.542
119.625
42.964
13.1589
7.43806
13.7465
30.4086
26.7395
14.0234
4.81886
0.539831
0.00974301
0.00610613
0.00598496
0.00591998
0.00578282
0.00556305
0.00534937
0.00517307
0.00502119
0.00486313
0.00471175
0.00457752
0.00445833
0.00435629
0.00426649
0.00419113
0.00412657
0.00406703
0.00401754
0.00397919
0.00394804
0.00392449
0.00390985
0.00390184
0.00389819
0.00389941
0.00390669
0.00392004
0.00393923
0.00396586
0.00400176
0.00404877
0.00411113
0.00419414
0.00430595
0.00445976
0.00466985
0.00496329
0.00536434
0.00592692
0.006737
0.0078838
0.00904189
0.00877933
0.0067817
25.588
71.6623
101.305
140.107
166.569
74.4008
26.8004
8.88528
7.13083
14.7319
30.0617
23.8022
11.684
3.43364
0.22084
0.00658796
0.00589918
0.00575431
0.00565933
0.00551995
0.00531646
0.0051252
0.00497151
0.00484047
0.00470158
0.00456941
0.00445417
0.0043523
0.00426613
0.00419041
0.00412403
0.00406462
0.00401139
0.00396862
0.00393486
0.00390684
0.00388576
0.0038726
0.00386462
0.00385999
0.00386008
0.00386559
0.00387602
0.0038916
0.00391343
0.00394251
0.00398033
0.00402959
0.00409386
0.00417887
0.00429159
0.00444332
0.0046457
0.00490932
0.00524675
0.00563835
0.00602977
0.00629881
0.00625239
0.00565638
21.1363
62.4787
88.7252
119.225
94.7908
44.3192
15.8292
6.42047
7.28464
16.0457
29.6626
20.0906
9.10893
2.1903
0.0674351
0.00597237
0.00568277
0.00554716
0.00544485
0.005301
0.00510891
0.00493248
0.00479493
0.00468122
0.00456276
0.00445129
0.00435415
0.00426761
0.00419369
0.00412818
0.00406818
0.00401448
0.00396879
0.00393182
0.00390118
0.00387582
0.00385688
0.00384444
0.00383632
0.00383134
0.00383053
0.00383419
0.0038421
0.00385455
0.00387214
0.00389548
0.00392559
0.0039643
0.00401409
0.00407811
0.00416157
0.00427054
0.00441072
0.00459048
0.00481169
0.00506338
0.00531176
0.00548416
0.00547326
0.00512687
16.6993
54.5023
78.7332
100.162
60.9917
26.1279
9.25689
5.3049
7.80988
17.6964
27.3185
16.7856
6.7826
1.20271
0.0170305
0.00573911
0.00549316
0.00535941
0.00525724
0.00511432
0.00493663
0.0047766
0.00465212
0.00454965
0.00444703
0.00435168
0.00426773
0.00419293
0.00412956
0.00407412
0.00402197
0.00397512
0.00393616
0.00390356
0.00387546
0.00385255
0.00383567
0.00382388
0.00381542
0.00381006
0.00380853
0.00381074
0.00381654
0.00382621
0.00384011
0.00385857
0.00388225
0.00391237
0.00395046
0.00399875
0.00406018
0.00413804
0.00423634
0.00435772
0.00450285
0.0046679
0.0048334
0.00495615
0.00497201
0.00478229
13.0671
46.7288
73.2962
78.9731
37.865
14.4977
5.8173
5.04632
8.67233
19.6751
24.0419
13.8252
4.76791
0.531535
0.0071473
0.00557405
0.00533454
0.00519795
0.00508588
0.00495077
0.00479466
0.00465356
0.00454204
0.00444869
0.00435904
0.00427577
0.00420126
0.00413568
0.0040809
0.00403285
0.00398646
0.003945
0.00391086
0.00388136
0.00385583
0.00383574
0.00382092
0.00380957
0.00380083
0.00379518
0.003793
0.00379394
0.0037979
0.00380512
0.00381581
0.00383009
0.0038484
0.0038715
0.00390027
0.00393608
0.00398087
0.00403674
0.00410499
0.00418681
0.00428328
0.00439172
0.00450149
0.00459049
0.00462633
0.00454433
11.087
40.5636
73.6672
49.754
20.7514
7.64102
4.3808
5.32664
9.87535
22.1857
20.4534
10.4618
2.971
0.166419
0.00586416
0.00538326
0.00515151
0.00502051
0.00491072
0.00478585
0.00465394
0.00453635
0.00444072
0.00435961
0.00428479
0.00421422
0.00414985
0.00409361
0.00404624
0.00400342
0.00396157
0.0039247
0.00389402
0.00386691
0.00384371
0.00382594
0.00381232
0.00380075
0.00379155
0.00378576
0.00378306
0.00378281
0.00378506
0.00379012
0.00379801
0.00380871
0.00382251
0.00383984
0.00386119
0.00388741
0.00391957
0.00395863
0.00400545
0.0040606
0.00412404
0.00419433
0.00426738
0.00433452
0.00438399
0.00437695
13.7045
44.6515
60.5117
26.2356
9.65755
4.48971
4.09853
6.00476
11.5026
22.3177
17.2996
7.60233
1.58453
0.0356566
0.00556827
0.00522452
0.00499486
0.00485106
0.00473706
0.00462518
0.00451385
0.00441535
0.00433387
0.00426483
0.00420341
0.0041458
0.00409289
0.00404671
0.00400675
0.00397002
0.00393562
0.00390555
0.00387954
0.00385601
0.00383565
0.00381991
0.00380728
0.0037958
0.00378655
0.00378066
0.00377746
0.00377623
0.00377706
0.00378023
0.00378571
0.00379338
0.0038034
0.00381596
0.00383131
0.00384997
0.00387249
0.00389943
0.003931
0.00396724
0.00400813
0.00405311
0.00410101
0.00415062
0.004205
0.00424946
27.9961
71.9591
29.6945
10.3263
4.6113
3.60489
4.42287
7.07211
13.7766
20.466
13.4567
5.05502
0.67535
0.00942286
0.00545481
0.00513229
0.00489267
0.00473649
0.00461284
0.00450476
0.00440675
0.00431987
0.00424553
0.00418289
0.00412915
0.00408059
0.00403673
0.00399887
0.00396536
0.00393474
0.00390782
0.00388376
0.00386175
0.00384215
0.00382534
0.00381201
0.00380113
0.00379123
0.0037831
0.00377757
0.00377419
0.00377245
0.00377235
0.00377409
0.00377761
0.00378276
0.00378967
0.00379837
0.00380892
0.00382162
0.00383676
0.00385452
0.00387493
0.00389791
0.0039233
0.00395077
0.0039806
0.00401576
0.00406966
0.00414962
11.5071
14.789
6.85163
4.11571
3.42149
3.67953
5.13175
8.6319
16.4186
17.286
10.2295
3.11087
0.238796
0.00646491
0.00537037
0.00504793
0.00480646
0.00464189
0.00451874
0.0044174
0.00433069
0.00425558
0.0041907
0.00413519
0.00408793
0.00404632
0.00400913
0.00397679
0.00394768
0.00392096
0.00389723
0.0038755
0.00385542
0.00383801
0.00382323
0.00381095
0.00380064
0.0037916
0.00378409
0.00377851
0.00377471
0.00377238
0.00377134
0.00377174
0.00377349
0.00377645
0.0037807
0.00378617
0.00379283
0.0038008
0.00381022
0.00382112
0.00383345
0.00384706
0.00386178
0.00387747
0.00389486
0.00391856
0.0039683
0.00407114
0.00448449
0.00536669
0.00641921
0.00781723
0.00972611
0.0123603
0.0160273
0.0211312
0.0281871
0.0378557
0.0510209
0.068963
0.0937457
0.129122
0.182669
0.270495
0.426011
0.710664
1.21328
2.17615
0.00443333
0.00519764
0.00611183
0.00734741
0.00906931
0.0114996
0.0149668
0.0199221
0.0269717
0.0369337
0.0509389
0.0706423
0.0986896
0.139836
0.203731
0.311667
0.510676
0.890685
1.56591
2.83612
0.00438277
0.0050278
0.00580192
0.00686679
0.00837918
0.0105566
0.0137294
0.0183683
0.0251349
0.0349615
0.0491821
0.0697732
0.0998589
0.144886
0.215535
0.334691
0.550817
0.947317
1.60777
2.40551
0.00433461
0.00486384
0.00550227
0.00639734
0.00769176
0.00958773
0.0123985
0.0165827
0.0228069
0.032045
0.0457329
0.0660282
0.0963023
0.142195
0.214085
0.33267
0.538558
0.895837
1.451
2.11716
0.00429033
0.00471133
0.00522377
0.00595817
0.00703951
0.00864719
0.0110624
0.0147037
0.0201925
0.0284594
0.0409071
0.0596726
0.0880705
0.131432
0.198882
0.307038
0.485765
0.778836
1.21748
1.77694
0.00425099
0.00457436
0.00497425
0.00556327
0.00644745
0.00777963
0.00980014
0.0128692
0.0175268
0.0245886
0.0352978
0.0515632
0.0763362
0.11423
0.172648
0.263868
0.407954
0.632724
0.961339
1.38636
0.00421725
0.00445549
0.00475828
0.00522085
0.00593115
0.00701529
0.0086706
0.0111921
0.0150214
0.0208226
0.0296012
0.042893
0.0630548
0.0936984
0.140354
0.211498
0.3198
0.481969
0.713208
1.01403
0.00418941
0.00435588
0.00457757
0.00493384
0.00549699
0.00636901
0.00770713
0.00974417
0.0128251
0.0174608
0.0244073
0.0347894
0.0502895
0.0734187
0.107883
0.159049
0.234393
0.343299
0.494691
0.691521
0.00416754
0.00427553
0.00443132
0.00470067
0.00514354
0.00584194
0.00691905
0.00855428
0.0110094
0.0146644
0.0200639
0.0279826
0.0395169
0.0562104
0.08021
0.114448
0.162794
0.229934
0.320436
0.436571
0.00415149
0.00421346
0.00431648
0.00451622
0.00486378
0.00542555
0.00629799
0.00761833
0.00958245
0.012469
0.0166675
0.02271
0.0312976
0.0433116
0.0598076
0.0820398
0.111533
0.150112
0.199619
0.260979
0.00414108
0.0041672
0.00422799
0.00437427
0.00464905
0.00510713
0.00582552
0.00691036
0.0085085
0.0108229
0.0141328
0.018821
0.0253874
0.0343754
0.0462165
0.0611693
0.0794173
0.101321
0.127344
0.156343
0.00414064
0.0041338
0.00416251
0.00426884
0.00448574
0.00485943
0.00544614
0.00632042
0.00758155
0.00935599
0.0118067
0.015177
0.0198567
0.0261397
0.0338984
0.0423717
0.0509476
0.0601653
0.0731457
0.0968861
0.00920079
0.00465135
0.00513784
0.00560812
0.00604247
0.00646543
0.00692366
0.00750325
0.00845961
0.0101232
0.0132192
0.019069
0.0298776
0.0479084
0.0761918
0.117591
0.17816
0.278181
0.396509
0.560512
0.0534646
0.0394942
0.0457194
0.0506323
0.0578276
0.0691866
0.0862773
0.111743
0.149141
0.205265
0.290773
0.344564
0.371927
0.436922
0.537185
0.705549
0.987286
1.3378
1.43155
2.12772
0.0139975
0.0194937
0.029619
0.0482132
0.0747
0.109024
0.151057
0.200372
0.254504
0.302986
0.351909
0.618972
0.709494
0.639088
0.574471
0.516347
0.472691
0.400308
0.393748
0.594496
0.00967219
0.00885905
0.00493084
0.00487502
0.00493553
0.00512411
0.00552438
0.00606834
0.00665119
0.00717151
0.00776029
0.012556
0.0464417
0.0728828
0.0743293
0.0610219
0.0421442
0.0246686
0.0145293
0.015468
0.00639076
0.00951355
0.00475797
0.0040612
0.00394557
0.00394976
0.00399689
0.00404842
0.00407682
0.00411153
0.00428511
0.0047419
0.00483713
0.00543291
0.00609562
0.00657097
0.00684681
0.00686072
0.00608613
0.00617951
0.00631756
0.00976682
0.00469223
0.00392224
0.00376837
0.00375534
0.00379268
0.00384121
0.00387875
0.00390395
0.00394738
0.00404487
0.00425381
0.00454226
0.00487424
0.00523266
0.00553223
0.00564526
0.00552751
0.00554413
0.00677638
0.009904
0.00466
0.00388767
0.00374051
0.00372576
0.00375838
0.00380526
0.00385175
0.00389433
0.00394207
0.00402122
0.00415727
0.00434109
0.00456316
0.00479084
0.00497419
0.00507711
0.00511875
0.00516573
0.00743122
0.00958023
0.00464776
0.00391481
0.00377826
0.00376397
0.00379076
0.00383147
0.00387626
0.00392336
0.00397715
0.0040476
0.00414576
0.00427246
0.00442057
0.0045723
0.00470497
0.00480377
0.00487262
0.00492757
0.00814579
0.00879877
0.00457455
0.00395992
0.00384346