/*--------------------------------*- C++ -*----------------------------------*\
| =========                 |                                                 |
| \\      /  F ield         | OpenFOAM: The Open Source CFD Toolbox           |
|  \\    /   O peration     | Version:  v1912                                 |
|   \\  /    A nd           | Website:  www.openfoam.com                      |
|    \\/     M anipulation  |                                                 |
\*---------------------------------------------------------------------------*/
FoamFile
{
    version     2.0;
    format      ascii;
    class       volScalarField;
    location    "50";
    object      nut;
}
// * * * * * * * * * * * * * * * * * * * * * * * * * * * * * * * * * * * * * //

dimensions      [0 2 -1 0 0 0 0];


internalField   nonuniform List<scalar> 
20320
(
0.0347189
0.00759859
0.0076671
0.00773366
0.00779785
0.00785926
0.0079174
0.00797166
0.00802127
0.00806541
0.00810315
0.00813341
0.00815497
0.00816641
0.00816577
0.00815038
0.0081153
0.00804703
0.00790331
0.00750787
0.0352308
0.0352732
0.0354453
0.0356777
0.035958
0.036251
0.0365148
0.0367267
0.0368839
0.0369941
0.0370736
0.0371351
0.0371815
0.0372022
0.0371568
0.0369714
0.0365013
0.035388
0.0327667
0.0240268
0.0353542
0.0356382
0.0361395
0.0368842
0.0379743
0.0395121
0.0415839
0.0442359
0.0474438
0.0510837
0.0549197
0.0586294
0.0618566
0.0642656
0.0655778
0.0655691
0.0640231
0.0605669
0.0539469
0.0354737
0.035527
0.0361123
0.0369228
0.0379612
0.0393297
0.0411433
0.0435324
0.0466392
0.0506021
0.0555149
0.0613571
0.0679012
0.0746473
0.0808376
0.0855707
0.0879681
0.0872947
0.0828599
0.0728386
0.0444807
0.0357351
0.0367061
0.0379033
0.039305
0.0410043
0.0431082
0.0457462
0.0490739
0.0532734
0.0585434
0.065058
0.0728645
0.0817115
0.0908706
0.0990805
0.104723
0.106176
0.10198
0.0893447
0.0517177
0.0359692
0.0373987
0.0390509
0.0408819
0.0429743
0.0454251
0.0483568
0.0519222
0.0563096
0.0617483
0.0685001
0.0767991
0.0866872
0.0977245
0.10868
0.117472
0.12155
0.118358
0.103717
0.0575842
0.0362189
0.0381582
0.0403138
0.0426248
0.0451618
0.0480093
0.0512814
0.055125
0.0597254
0.0653192
0.0722026
0.0807088
0.0910928
0.103235
0.116157
0.127631
0.134365
0.132582
0.116386
0.0624322
0.0364728
0.0389511
0.0416381
0.0444633
0.0474847
0.0507734
0.054433
0.058602
0.0634592
0.06924
0.0762535
0.0848837
0.0955219
0.108314
0.122603
0.136241
0.14542
0.145178
0.127715
0.0665989
0.0367193
0.039742
0.0429665
0.0463222
0.0498558
0.053624
0.0577187
0.0622677
0.0674396
0.0734628
0.0806494
0.089409
0.100218
0.113425
0.128684
0.144051
0.155406
0.156712
0.138168
0.070326
0.0369469
0.0404948
0.0442404
0.0481239
0.0521838
0.0564631
0.0610414
0.0660331
0.0715926
0.0779358
0.0853697
0.0943156
0.105303
0.118829
0.134825
0.151599
0.164871
0.16764
0.148095
0.0738833
0.037145
0.0411747
0.0454023
0.0497914
0.0543769
0.0591904
0.0642999
0.0698049
0.075841
0.0826053
0.0903924
0.099624
0.110862
0.124713
0.141344
0.159333
0.174333
0.178486
0.157956
0.0774961
0.0373042
0.0417499
0.0463991
0.0512518
0.0563459
0.0617059
0.0673906
0.0734848
0.0801018
0.0874139
0.0956945
0.105356
0.116976
0.131244
0.148525
0.16766
0.184301
0.189791
0.168246
0.0813774
0.0374174
0.0421939
0.0471858
0.0524409
0.0580087
0.063913
0.070209
0.0769693
0.0842841
0.0922955
0.101248
0.111534
0.123735
0.1386
0.156665
0.177024
0.195356
0.202232
0.179624
0.0858385
0.0374798
0.0424875
0.0477274
0.0533064
0.0592937
0.0657215
0.0726501
0.0801467
0.0882816
0.097165
0.107006
0.11817
0.13123
0.14698
0.166107
0.18795
0.208225
0.216695
0.192984
0.0914261
0.0374897
0.0426191
0.0480022
0.0538114
0.0601443
0.0670519
0.0746115
0.0828969
0.0919676
0.101907
0.112889
0.125244
0.139535
0.156591
0.177247
0.201094
0.223895
0.23449
0.209703
0.098873
0.0374481
0.0425865
0.0480025
0.053937
0.0605227
0.0678404
0.0759983
0.0850934
0.095192
0.106365
0.118758
0.132676
0.14867
0.167618
0.190518
0.217269
0.243719
0.257602
0.232085
0.109538
0.0373588
0.0423961
0.0477355
0.0536843
0.0604144
0.0680451
0.0767299
0.0866095
0.0977816
0.11033
0.124397
0.140279
0.158539
0.180136
0.206309
0.237403
0.269533
0.289138
0.264142
0.126014
0.0372283
0.042063
0.0472228
0.0530748
0.0598299
0.0676517
0.0767498
0.0873291
0.0995489
0.113543
0.129487
0.147709
0.168834
0.193971
0.224749
0.262272
0.30345
0.333622
0.313145
0.154357
0.037065
0.0416097
0.0464988
0.0521489
0.0588064
0.0666789
0.0760375
0.0871657
0.100314
0.115708
0.133611
0.15444
0.178948
0.20851
0.245361
0.291909
0.346978
0.396155
0.390332
0.20825
0.0368787
0.0410643
0.045608
0.0509635
0.0574056
0.065181
0.0746179
0.086083
0.0999382
0.11654
0.136293
0.159769
0.187927
0.222517
0.266609
0.324526
0.398537
0.47702
0.501944
0.304735
0.0453747
0.0332496
0.0392379
0.0456377
0.0535667
0.0631695
0.074118
0.0864504
0.100996
0.115757
0.125031
0.12831
0.128364
0.126433
0.123329
0.1199
0.116504
0.113237
0.110095
0.106949
0.103437
0.100222
0.0979309
0.0950686
0.0919887
0.0892117
0.0869426
0.0848472
0.0828854
0.0815921
0.0809984
0.080938
0.0813211
0.0810852
0.0800127
0.080973
0.0850234
0.0890578
0.0913908
0.0902591
0.089215
0.111307
0.110862
0.105116
0.0954784
0.0881824
0.0830146
0.0792647
0.0759013
0.0729005
0.070521
0.0685643
0.0669024
0.0656339
0.0649961
0.0644293
0.0640209
0.0639054
0.0639203
0.0640807
0.058435
0.631088
0.769756
0.879463
0.999471
1.14366
1.30116
1.49002
1.70815
1.92565
2.0606
2.0899
2.05448
1.98923
1.91063
1.8301
1.75246
1.6782
1.60994
1.54575
1.48259
1.42305
1.37494
1.32085
1.26984
1.22823
1.19581
1.16611
1.13531
1.11607
1.10827
1.10437
1.10373
1.08893
1.05755
1.05243
1.05103
0.972497
0.787683
0.657319
0.715828
0.918439
0.930944
0.942082
0.962687
0.959181
0.9445
0.926145
0.905453
0.887346
0.874282
0.86443
0.859516
0.873063
0.900321
0.921937
0.944285
0.973987
0.994735
1.01774
0.0677322
0.96194
1.26062
1.41172
1.54094
1.68561
1.86512
2.10401
2.39534
2.69106
2.89075
2.94951
2.92893
2.86748
2.78815
2.70164
2.61235
2.52367
2.43922
2.36196
2.289
2.21391
2.13937
2.07444
2.01774
1.96961
1.92979
1.89418
1.85874
1.83227
1.82108
1.81487
1.81247
1.80035
1.77021
1.7462
1.72013
1.65134
1.53772
1.4375
1.44464
1.50979
1.57785
1.65735
1.70556
1.71397
1.70098
1.68115
1.6615
1.64783
1.64287
1.64663
1.6624
1.69642
1.74386
1.79378
1.84603
1.90045
1.95175
2.0044
0.0755882
1.12737
1.52695
1.68959
1.80599
1.95079
2.17026
2.49062
2.87449
3.21031
3.37399
3.34777
3.27706
3.20145
3.12323
3.04084
2.95532
2.87117
2.79149
2.71944
2.65028
2.57706
2.51271
2.4621
2.41823
2.37998
2.34635
2.31773
2.29151
2.26954
2.26175
2.26125
2.26757
2.27153
2.26012
2.23923
2.21253
2.16167
2.12975
2.08653
2.06576
2.13588
2.2447
2.34584
2.40272
2.41312
2.39826
2.37733
2.361
2.35496
2.3607
2.3774
2.40682
2.45186
2.50886
2.57017
2.63293
2.6962
2.75874
2.82169
0.0825154
1.23751
1.69513
1.86362
1.98175
2.15649
2.4504
2.88581
3.39427
3.73271
3.54972
3.42962
3.35182
3.28476
3.21597
3.14271
3.06693
2.99204
2.92101
2.85624
2.79707
2.74097
2.69157
2.65265
2.62143
2.59578
2.57543
2.56069
2.54993
2.54342
2.54871
2.56558
2.59117
2.61838
2.63638
2.645
2.65671
2.66079
2.65524
2.66534
2.71523
2.80979
2.92357
3.01971
3.07102
3.07843
3.06367
3.04608
3.03644
3.03924
3.05443
3.07979
3.11503
3.16226
3.21943
3.28033
3.34137
3.40233
3.46362
3.52506
0.0884749
1.32372
1.82361
2.0029
2.14257
2.37129
2.75895
3.32038
3.99089
3.86496
3.58762
3.45073
3.36877
3.30242
3.23577
3.16574
3.09484
3.0262
2.96228
2.90504
2.85521
2.81202
2.77561
2.74796
2.72882
2.71699
2.71222
2.7149
2.72452
2.74111
2.77003
2.81278
2.86599
2.92518
2.98437
3.04449
3.11235
3.18199
3.24722
3.31549
3.397
3.49275
3.58833
3.6609
3.69553
3.69727
3.68619
3.67692
3.67676
3.68801
3.70983
3.73986
3.77581
3.82025
3.87299
3.92869
3.98371
4.0387
4.0948
4.15119
0.0936231
1.39532
1.93385
2.13269
2.31079
2.60801
3.08737
3.80086
4.45582
3.92096
3.61438
3.45063
3.35156
3.277
3.20794
3.13944
3.07332
3.01215
2.95741
2.91013
2.871
2.83986
2.8166
2.80221
2.79748
2.80258
2.81791
2.84416
2.88148
2.93023
2.99344
3.07245
3.16465
3.2652
3.36903
3.47664
3.59182
3.71022
3.82283
3.9259
4.02148
4.11021
4.18479
4.23339
4.25276
4.25242
4.25075
4.25477
4.26687
4.28598
4.31241
4.34478
4.38053
4.42188
4.47035
4.52102
4.5711
4.62169
4.67386
4.72637
0.0984801
1.45656
2.03232
2.25699
2.48123
2.85549
3.41845
4.19835
4.63134
3.93969
3.59741
3.3992
3.27869
3.19659
3.12958
3.0694
3.01562
2.96938
2.93073
2.89956
2.87616
2.86092
2.85459
2.85847
2.87414
2.90301
2.9463
3.00483
3.07843
3.16651
3.26942
3.38674
3.5153
3.64967
3.78525
3.92243
4.06234
4.20123
4.33104
4.44612
4.54556
4.63003
4.69
4.71936
4.72212
4.72365
4.73663
4.75986
4.79252
4.82758
4.86275
4.89811
4.93501
4.97623
5.02373
5.07239
5.12068
5.16991
5.22078
5.27198
0.103935
1.51168
2.12026
2.37104
2.63506
3.07215
3.7342
4.63713
4.52692
3.88607
3.4995
3.26437
3.12821
3.04994
2.99898
2.96119
2.93256
2.91219
2.89915
2.8929
2.89395
2.9035
2.92327
2.95531
3.00176
3.06445
3.14438
3.24134
3.35341
3.47753
3.61153
3.75449
3.90349
4.05309
4.20097
4.34933
4.49595
4.63933
4.77031
4.88575
4.98135
5.04132
5.07093
5.07721
5.08152
5.09289
5.12053
5.1622
5.214
5.26836
5.32393
5.37688
5.4294
5.48464
5.54035
5.59178
5.64118
5.69153
5.74314
5.79526
0.109523
1.56669
2.19843
2.47092
2.7608
3.23498
3.9206
4.88507
4.45133
3.75631
3.32159
3.05546
2.91768
2.86144
2.84398
2.84
2.84343
2.85435
2.87351
2.901
2.93749
2.98423
3.04288
3.11511
3.20222
3.30487
3.42251
3.55322
3.69347
3.83879
3.98636
4.13891
4.29555
4.44868
4.59767
4.75237
4.89987
5.0426
5.15618
5.23413
5.28294
5.30944
5.31955
5.32548
5.33903
5.36315
5.40292
5.45706
5.52002
5.58512
5.65216
5.72072
5.78797
5.85346
5.91829
5.97658
6.0292
6.08008
6.13029
6.18001
0.114336
1.62271
2.26832
2.55537
2.85553
3.36241
4.09198
5.022
4.26251
3.5694
3.09722
2.8164
2.69981
2.68703
2.71581
2.74109
2.76807
2.80601
2.85932
2.92677
3.00718
3.1
3.20531
3.32301
3.45254
3.59294
3.7425
3.89869
4.05787
4.21565
4.36831
4.52486
4.68365
4.8362
4.9751
5.10751
5.2254
5.32205
5.38578
5.42369
5.44259
5.45246
5.46036
5.47414
5.4987
5.53416
5.58288
5.64393
5.71222
5.78282
5.85606
5.93186
6.00512
6.07477
6.1431
6.20563
6.26113
6.31229
6.36133
6.4107
0.118325
1.67623
2.33151
2.62834
2.92761
3.43323
4.22352
4.94843
4.06763
3.35634
2.86202
2.593
2.527
2.5757
2.65642
2.68169
2.71877
2.77724
2.85764
2.95744
3.07432
3.20595
3.35059
3.5065
3.67152
3.84334
4.01913
4.1958
4.36946
4.53514
4.68551
4.82477
4.96179
5.08481
5.18922
5.28976
5.36766
5.42241
5.45759
5.47523
5.4842
5.49203
5.50515
5.52799
5.56184
5.60577
5.66055
5.7252
5.79589
5.86935
5.94569
6.02397
6.09961
6.17193
6.24246
6.30796
6.36659
6.42016
6.47192
6.52523
0.121818
1.72418
2.38593
2.69638
3.01239
3.5074
4.27429
4.81451
3.86226
3.14241
2.64081
2.41426
2.42354
2.53831
2.61692
2.65927
2.70533
2.7714
2.86203
2.97546
3.109
3.2597
3.42434
3.59958
3.78201
3.9681
4.15404
4.33605
4.50989
4.66997
4.8096
4.93554
5.05848
5.15551
5.22853
5.29892
5.35026
5.38142
5.40233
5.41437
5.42414
5.43716
5.45781
5.48858
5.52953
5.57962
5.6387
5.70575
5.7781
5.85367
5.93204
6.01176
6.08963
6.16517
6.23876
6.30791
6.37105
6.42969
6.48734
6.54572
0.125172
1.76598
2.42873
2.75125
3.11076
3.67533
4.49818
4.6097
3.67387
2.93902
2.44402
2.29005
2.38144
2.53556
2.61728
2.65245
2.69234
2.75584
2.84768
2.96582
3.10646
3.26524
3.43746
3.61839
3.80365
3.98901
4.17033
4.34367
4.50497
4.64947
4.77327
4.88371
4.98885
5.06799
5.12117
5.16813
5.20322
5.22489
5.24164
5.25587
5.27146
5.29192
5.32009
5.35759
5.40439
5.45962
5.52266
5.59248
5.66723
5.74551
5.82655
5.90886
5.99036
6.07049
6.14868
6.22292
6.29216
6.35777
6.42253
6.48508
0.128511
1.80274
2.46425
2.79192
3.1798
3.81691
4.76694
4.4659
3.50177
2.74212
2.27379
2.21513
2.38044
2.56806
2.62372
2.62447
2.63948
2.69126
2.78009
2.8999
3.0438
3.2053
3.37826
3.55691
3.73616
3.91141
4.07856
4.23409
4.37486
4.49802
4.60257
4.69508
4.78081
4.84557
4.88756
4.92132
4.94844
4.96882
4.98788
5.00787
5.03086
5.05901
5.09442
5.13843
5.19113
5.25179
5.31958
5.39349
5.47223
5.55472
5.64007
5.72697
5.81394
5.90012
5.98441
6.06516
6.14177
6.21535
6.2873
6.35294
0.131487
1.83504
2.50251
2.8405
3.23603
3.87603
4.8632
4.29803
3.32282
2.54964
2.13183
2.17433
2.41701
2.60562
2.6109
2.56007
2.53593
2.56494
2.64383
2.7608
2.90402
3.06371
3.23203
3.40247
3.56973
3.72923
3.87716
4.01065
4.12782
4.22792
4.31236
4.38692
4.45506
4.50829
4.54464
4.57368
4.59954
4.6233
4.648
4.67514
4.70596
4.74207
4.78525
4.83664
4.89632
4.96359
5.0376
5.11741
5.20206
5.29065
5.38227
5.47575
5.56982
5.66333
5.75494
5.84341
5.92844
6.01072
6.08988
6.15832
0.133861
1.86268
2.54776
2.91622
3.34776
3.98529
4.96257
4.1229
3.14994
2.36199
2.01808
2.15562
2.46781
2.62866
2.56828
2.45759
2.38498
2.38038
2.43899
2.54449
2.68005
2.83198
2.9901
3.14702
3.29739
3.43713
3.56312
3.67336
3.76725
3.8458
3.91202
3.97115
4.02574
4.07109
4.10585
4.13591
4.16514
4.19496
4.22699
4.26223
4.30171
4.34688
4.3992
4.45952
4.52776
4.60323
4.68517
4.77276
4.86524
4.96179
5.0615
5.16322
5.2657
5.36764
5.46778
5.56526
5.65992
5.75176
5.8387
5.91053
0.135987
1.88277
2.5906
3.00175
3.50739
4.26319
5.08901
4.01349
2.98402
2.17558
1.92946
2.15611
2.53368
2.61608
2.49173
2.31878
2.19147
2.14338
2.17008
2.25295
2.37141
2.50798
2.64981
2.7882
2.91762
3.03463
3.1372
3.22452
3.29722
3.35755
3.40936
3.45734
3.50342
3.54507
3.58161
3.61636
3.65203
3.68982
3.73069
3.7755
3.8253
3.8813
3.94456
4.01551
4.09394
4.17925
4.2708
4.36793
4.46997
4.57612
4.68544
4.7968
4.90892
5.02056
5.13072
5.23881
5.34458
5.44722
5.54288
5.61906
0.137051
1.89117
2.61504
3.05972
3.6164
4.44286
5.12111
3.88648
2.79404
1.99043
1.86166
2.17588
2.57221
2.57755
2.38379
2.1468
1.95976
1.85887
1.84223
1.89107
1.98211
2.09469
2.21348
2.32838
2.43341
2.52568
2.60436
2.66999
2.72441
2.77066
2.81277
2.85455
2.89729
2.93956
2.98095
3.02316
3.06775
3.11557
3.16736
3.22391
3.2861
3.35483
3.43067
3.51375
3.60385
3.7005
3.8032
3.91143
4.02454
4.14175
4.26208
4.38442
4.5076
4.6306
4.75264
4.87323
4.99179
5.10654
5.21195
5.29327
0.138125
1.88597
2.61065
3.06717
3.64505
4.47718
5.01895
3.68867
2.57725
1.81548
1.81123
2.21872
2.57685
2.50965
2.2477
1.94532
1.69326
1.5318
1.46324
1.4685
1.52199
1.60111
1.68908
1.77492
1.85228
1.91833
1.97337
2.01927
2.05875
2.09529
2.13256
2.17317
2.21758
2.26478
2.31431
2.36681
2.42298
2.48337
2.54851
2.61901
2.69546
2.77837
2.868
2.96438
3.06736
3.17663
3.29184
3.41251
3.53804
3.66762
3.80032
3.93513
4.07109
4.20737
4.34334
4.47836
4.61133
4.73935
4.85521
4.94203
0.136239
1.86763
2.58379
3.02762
3.59279
4.40814
4.80403
3.46119
2.35536
1.66013
1.77545
2.27564
2.55808
2.41305
2.08564
1.71635
1.39493
1.1706
1.04728
1.00346
1.0112
1.04736
1.09556
1.14509
1.18981
1.22748
1.25901
1.28715
1.3151
1.34632
1.38369
1.42814
1.47924
1.53592
1.59723
1.6631
1.73358
1.80889
1.88932
1.97519
2.06686
2.16458
2.26856
2.37889
2.49551
2.61832
2.74701
2.88115
3.02016
3.16327
3.30967
3.45851
3.60903
3.76057
3.91243
4.06366
4.21236
4.35441
4.48081
4.57293
0.130555
1.83852
2.55863
2.99128
3.53143
4.29771
4.47096
3.23422
2.14032
1.52836
1.75252
2.31285
2.52722
2.30113
1.90336
1.46382
1.07685
0.795296
0.624061
0.535306
0.496312
0.483974
0.484309
0.488961
0.493821
0.49821
0.503974
0.514402
0.532836
0.561864
0.602682
0.654621
0.715921
0.78494
0.859959
0.940671
1.02615
1.11666
1.21203
1.31258
1.4185
1.53012
1.64769
1.77144
1.9015
2.0378
2.18013
2.32808
2.48108
2.63848
2.79962
2.96385
3.13057
3.29913
3.46859
3.6374
3.80265
3.95873
4.09498
4.19159
0.129441
1.79444
2.55252
2.99961
3.57362
4.40681
4.20568
3.03005
1.93332
1.42022
1.74097
2.33422
2.47395
2.17379
1.70376
1.20021
0.759765
0.443537
0.257649
0.16027
0.10808
0.0768268
0.0557382
0.0408854
0.0310592
0.0251593
0.0221287
0.0212994
0.0226822
0.0273087
0.037545
0.0570655
0.0900249
0.138977
0.202995
0.279342
0.365325
0.459372
0.560172
0.667734
0.781234
0.901244
1.02784
1.16133
1.30189
1.44945
1.60377
1.7644
1.93083
2.10248
2.27882
2.45931
2.64339
2.83022
3.0184
3.20544
3.38709
3.55616
3.70052
3.8001
0.13571
1.79313
2.56706
3.02851
3.62079
4.5101
4.03171
2.82336
1.73028
1.33415
1.73847
2.36112
2.39321
2.02515
1.49151
0.938322
0.47182
0.17608
0.0525681
0.0192492
0.0215553
0.0415644
0.054448
0.0580013
0.0573163
0.055329
0.0531023
0.0510166
0.0491487
0.0474491
0.0458132
0.0438092
0.0401256
0.0325884
0.0222084
0.0165447
0.0221401
0.0439424
0.0869884
0.152452
0.237753
0.339732
0.455746
0.58448
0.724444
0.874921
1.03511
1.20407
1.38096
1.5651
1.75577
1.9523
2.15392
2.35924
2.56601
2.77053
2.96697
3.14646
3.29586
3.39591
0.148168
1.87239
2.60714
3.06323
3.63589
4.51941
3.86107
2.6036
1.53282
1.26783
1.7417
2.37492
2.29382
1.86056
1.27548
0.691753
0.244689
0.0442214
0.013897
0.044162
0.0616964
0.0623818
0.0604862
0.0580581
0.0555418
0.0531144
0.0509668
0.0491474
0.0476121
0.0463251
0.045322
0.0445868
0.0440122
0.0435351
0.0431048
0.042522
0.0412372
0.0378192
0.0295041
0.0193809
0.0187389
0.0347464
0.0744357
0.143157
0.24099
0.364548
0.509651
0.672515
0.850243
1.04049
1.24124
1.45103
1.66817
1.89002
2.11314
2.33226
2.53976
2.72523
2.87466
2.97054
0.160213
1.98439
2.67402
3.10188
3.64164
4.44741
3.67467
2.37758
1.34667
1.2179
1.74794
2.35283
2.19
1.69512
1.06661
0.474195
0.100475
0.0125408
0.0379826
0.0593174
0.0598934
0.0582548
0.0564116
0.0544168
0.052372
0.0504035
0.0486733
0.0471798
0.0458745
0.0447523
0.0438677
0.0432145
0.0427108
0.0423039
0.041976
0.0416967
0.0414934
0.0413903
0.0412988
0.0409644
0.0397493
0.0357551
0.0263596
0.0184553
0.0253366
0.0574327
0.126379
0.236238
0.382489
0.557645
0.754869
0.968694
1.1944
1.42699
1.66103
1.88897
2.10137
2.28601
2.42727
2.50865
0.17918
2.1145
2.7867
3.17114
3.63373
4.32893
3.44598
2.13751
1.17623
1.18041
1.75631
2.28813
2.08748
1.53771
0.872546
0.296593
0.0332826
0.0169529
0.0532966
0.0571811
0.0561841
0.054745
0.0531417
0.0514988
0.0498312
0.0482129
0.0467923
0.0455338
0.0443995
0.0434226
0.0426568
0.042082
0.0416182
0.0412385
0.040938
0.0406919
0.0405225
0.04045
0.0404267
0.0404355
0.0405069
0.0406217
0.0406144
0.0399495
0.0367503
0.027591
0.0202288
0.0327309
0.0826426
0.185354
0.339286
0.531686
0.749025
0.97989
1.21429
1.44181
1.65031
1.82473
1.94535
1.98746
0.206287
2.31477
2.97414
3.35133
3.75359
4.29624
3.17688
1.87903
1.02757
1.15241
1.76689
2.21492
1.97095
1.38015
0.693245
0.164544
0.0120573
0.036118
0.0538162
0.0542592
0.0531062
0.0518349
0.0505228
0.0491535
0.0477426
0.046383
0.0451903
0.044113
0.043146
0.0423149
0.0416567
0.0411479
0.0407202
0.0403717
0.0400949
0.0398664
0.03971
0.0396441
0.0396267
0.0396467
0.0397258
0.0398582
0.0400364
0.0402721
0.0405422
0.0406145
0.0394413
0.0335253
0.0238419
0.0312265
0.0809507
0.193884
0.363681
0.567931
0.785763
0.999954
1.19371
1.3473
1.43335
1.40148
0.239925
2.56515
3.22402
3.59308
4.03462
4.25106
2.87716
1.60555
0.908027
1.13288
1.78355
2.14424
1.83126
1.21207
0.525277
0.0778297
0.0102944
0.0468157
0.0518564
0.0516198
0.0506246
0.0494628
0.0483067
0.0471585
0.0459771
0.0448384
0.043831
0.0429139
0.0420989
0.0413889
0.0408166
0.0403651
0.0399768
0.0396528
0.0393948
0.039191
0.0390582
0.0389984
0.0389776
0.0389917
0.0390589
0.0391766
0.0393419
0.0395653
0.0398595
0.0402355
0.0406812
0.041009
0.0402138
0.0347376
0.0262735
0.0393391
0.103661
0.231763
0.401855
0.583497
0.749992
0.874493
0.921266
0.82379
0.296196
2.87393
3.54469
3.8861
4.35748
4.13086
2.5153
1.32879
0.822792
1.12255
1.80478
2.05987
1.67524
1.03621
0.370652
0.0307932
0.0207322
0.0488576
0.0500046
0.0494228
0.0484319
0.04739
0.0463974
0.0454512
0.0444779
0.0435357
0.0426805
0.0419001
0.0412134
0.0406041
0.0401049
0.0397052
0.0393506
0.0390516
0.038819
0.0386388
0.0385203
0.0384627
0.038442
0.038457
0.038516
0.0386154
0.0387569
0.0389508
0.0392063
0.0395397
0.0399724
0.040519
0.0411807
0.0417237
0.0408188
0.0346088
0.0289944
0.0508695
0.121808
0.233771
0.352826
0.441354
0.458506
0.347209
0.312948
3.25147
3.90757
4.28929
4.87887
3.69875
2.15182
1.08249
0.769047
1.12274
1.82281
1.95946
1.51742
0.863452
0.237798
0.0119081
0.0357248
0.0482519
0.0483819
0.0477456
0.0467081
0.0457033
0.0448332
0.0440431
0.0432188
0.0424175
0.0416873
0.0410245
0.0404421
0.0399198
0.0394876
0.0391347
0.0388152
0.0385467
0.0383414
0.0381822
0.0380721
0.038015
0.0379981
0.0380138
0.0380621
0.0381452
0.0382687
0.0384352
0.0386518
0.0389338
0.0392957
0.0397631
0.0403779
0.0411675
0.0421445
0.0430374
0.0423966
0.0368678
0.0322519
0.0466767
0.0825246
0.117872
0.118758
0.0647827
0.308707
3.39944
4.14635
4.63702
4.93978
3.31033
1.82748
0.869261
0.73712
1.13479
1.80444
1.85169
1.36652
0.700711
0.134266
0.0085719
0.0435352
0.0470957
0.0468813
0.0462876
0.0453283
0.0443808
0.0435877
0.0428953
0.0421644
0.0414542
0.0408175
0.0402468
0.039755
0.0393205
0.0389551
0.0386426
0.0383549
0.038118
0.0379388
0.0377982
0.0376986
0.0376472
0.0376322
0.0376421
0.0376799
0.0377521
0.037859
0.0379998
0.0381832
0.0384194
0.0387183
0.0391017
0.0395963
0.0402405
0.0410902
0.0421866
0.0435644
0.0450332
0.0459158
0.0447805
0.0413933
0.0386023
0.0377107
0.0393181
0.302299
3.28654
4.24455
4.67911
4.43326
2.77024
1.41401
0.678162
0.724138
1.16022
1.77717
1.71871
1.20553
0.542957
0.0627186
0.0163756
0.0455166
0.0460218
0.045618
0.044999
0.0440912
0.0432264
0.0425235
0.041918
0.0412691
0.0406442
0.0400942
0.0396047
0.0391892
0.0388235
0.0385025
0.0382156
0.0379596
0.0377567
0.0376009
0.0374762
0.0373888
0.0373442
0.0373284
0.0373319
0.0373622
0.0374232
0.0375127
0.0376319
0.0377871
0.0379839
0.0382303
0.0385409
0.0389343
0.0394391
0.0400885
0.0409322
0.0420109
0.043338
0.0448928
0.0464567
0.0476381
0.0478793
0.0465165
0.0425797
0.277162
3.07147
4.09476
4.32634
3.47349
2.05696
0.95113
0.548161
0.732261
1.19866
1.75741
1.55839
1.02411
0.386631
0.0228861
0.0312453
0.0453179
0.0449988
0.0445415
0.0438918
0.0430197
0.0422088
0.0415701
0.0410381
0.0404796
0.0399491
0.0394837
0.0390675
0.0387119
0.0383968
0.0381077
0.0378495
0.0376318
0.0374588
0.0373191
0.0372079
0.0371312
0.0370897
0.0370722
0.0370727
0.0370968
0.0371464
0.0372206
0.0373209
0.0374509
0.0376141
0.0378161
0.0380668
0.0383792
0.0387699
0.0392647
0.039892
0.0406741
0.0416361
0.0427528
0.0439026
0.044809
0.0449894
0.0438533
0.0407569
0.247942
2.74341
3.62038
3.56766
2.47162
1.3063
0.591876
0.50172
0.759028
1.24696
1.68816
1.39549
0.837345
0.242433
0.00861635
0.0407923
0.0445924
0.0440473
0.0435768
0.0429212
0.0421027
0.041357
0.0407717
0.0402872
0.0397998
0.0393439
0.0389408
0.0385812
0.0382774
0.0380123
0.0377625
0.0375392
0.0373559
0.0372056
0.0370791
0.0369803
0.0369139
0.0368752
0.0368551
0.0368525
0.0368715
0.036912
0.0369731
0.0370566
0.0371645
0.0372989
0.0374633
0.0376646
0.0379108
0.0382136
0.0385882
0.0390506
0.0396185
0.0402984
0.0410767
0.0418922
0.0425579
0.0427069
0.041846
0.0394565
0.220874
2.30071
2.9375
2.60877
1.54597
0.730053
0.408056
0.517713
0.800359
1.30284
1.57114
1.22723
0.6502
0.124574
0.0106184
0.0435761
0.0438167
0.0431987
0.0426767
0.0420478
0.0413191
0.0406545
0.0401255
0.0396813
0.0392536
0.0388547
0.0384969
0.0381824
0.0379211
0.0376929
0.0374725
0.0372767
0.0371183
0.036984
0.0368708
0.0367864
0.0367304
0.0366934
0.036671
0.0366659
0.0366803
0.0367126
0.0367623
0.0368308
0.0369194
0.037029
0.0371618
0.0373222
0.0375149
0.0377471
0.038029
0.038371
0.038779
0.0392562
0.0398
0.0403737
0.0408598
0.0409996
0.0403869
0.0385358
0.204041
1.83352
2.18195
1.5959
0.827548
0.398375
0.37105
0.561827
0.853253
1.37708
1.43671
1.03151
0.461128
0.0467772
0.025044
0.0436084
0.0428943
0.0422749
0.0417527
0.0411623
0.0405374
0.039977
0.0395195
0.0391314
0.0387738
0.0384361
0.0381278
0.0378595
0.0376353
0.0374336
0.0372366
0.0370645
0.0369241
0.0368023
0.036701
0.0366285
0.0365784
0.0365398
0.0365141
0.0365074
0.036518
0.0365428
0.0365819
0.0366371
0.0367088
0.0367969
0.036903
0.0370295
0.037179
0.0373562
0.0375666
0.0378151
0.0381056
0.03844
0.0388148
0.0392111
0.0395667
0.0397132
0.0393165
0.0378865
0.228508
1.52534
1.50254
0.809383
0.385289
0.286022
0.428189
0.612145
0.918685
1.38196
1.29364
0.832685
0.286887
0.013154
0.0368636
0.043045
0.0420797
0.0413864
0.0408337
0.0402934
0.0397564
0.0392803
0.0388862
0.0385536
0.0382591
0.0379836
0.0377313
0.0375127
0.0373254
0.0371544
0.0369952
0.0368579
0.0367415
0.0366382
0.0365516
0.0364894
0.0364441
0.0364053
0.0363788
0.0363707
0.0363777
0.036396
0.0364262
0.0364697
0.0365268
0.0365966
0.0366801
0.0367784
0.0368928
0.037026
0.0371811
0.0373607
0.0375658
0.037796
0.0380501
0.0383199
0.038576
0.0387179
0.0384868
0.037392
0.329188
1.11977
0.628649
0.310142
0.234295
0.349154
0.503226
0.665879
1.00357
1.32618
1.11063
0.628823
0.146438
0.0065276
0.0400935
0.0425919
0.0415035
0.0407432
0.0401385
0.0396096
0.0391302
0.0387055
0.0383428
0.0380389
0.0377801
0.0375478
0.0373395
0.0371617
0.0370063
0.0368658
0.0367443
0.0366375
0.0365415
0.0364583
0.0363897
0.0363397
0.036303
0.0362719
0.0362505
0.0362434
0.0362484
0.0362629
0.0362868
0.0363213
0.0363662
0.0364207
0.0364854
0.0365606
0.0366466
0.0367449
0.0368571
0.036984
0.0371255
0.0372809
0.037449
0.0376263
0.0378027
0.037929
0.0378225
0.0370052
0.21229
0.276497
0.204399
0.231088
0.352842
0.471635
0.551172
0.731693
1.09263
1.20114
0.918173
0.435759
0.0599433
0.00759113
0.0406273
0.0421314
0.040998
0.0401904
0.0395811
0.0390791
0.0386502
0.0382799
0.0379617
0.0376915
0.0374637
0.0372654
0.03709
0.0369397
0.0368064
0.0366857
0.0365804
0.0364856
0.0363995
0.0363273
0.0362691
0.0362241
0.0361899
0.0361627
0.0361439
0.0361358
0.0361376
0.0361478
0.0361656
0.0361916
0.0362254
0.0362665
0.0363151
0.0363709
0.0364336
0.036504
0.0365826
0.0366696
0.0367643
0.0368659
0.0369732
0.0370852
0.0372013
0.0373062
0.0372881
0.0367008
0.0366795
0.0404578
0.0446015
0.0495868
0.055709
0.0632445
0.0725662
0.0841131
0.0983609
0.11582
0.137077
0.162912
0.194546
0.234141
0.285647
0.355471
0.449935
0.561092
0.624804
0.462161
0.0364712
0.039815
0.0435194
0.0480732
0.0537834
0.060946
0.0699602
0.0813143
0.0955781
0.113412
0.135601
0.163157
0.197568
0.241326
0.298951
0.378061
0.48695
0.618046
0.703789
0.589393
0.0362603
0.0391476
0.0423846
0.0464583
0.0516789
0.0583513
0.06688
0.0777689
0.0916399
0.109265
0.131602
0.15988
0.1958
0.242004
0.30299
0.386007
0.498198
0.631098
0.729505
0.653258
0.036055
0.0384821
0.0412419
0.0448067
0.0494822
0.0555732
0.0634723
0.0736628
0.0867595
0.10357
0.125151
0.152873
0.188559
0.234804
0.295593
0.376772
0.483376
0.608374
0.712667
0.717608
0.0358623
0.0378435
0.0401363
0.043186
0.0472869
0.0527368
0.059906
0.0692319
0.0812662
0.0967597
0.116745
0.142609
0.176175
0.21986
0.276976
0.351845
0.447818
0.560218
0.666031
0.724365
0.035688
0.0372532
0.039107
0.041658
0.0451827
0.0499666
0.0563535
0.0647262
0.0755422
0.0894181
0.107234
0.130231
0.160074
0.19891
0.249428
0.314759
0.397214
0.494436
0.594536
0.675487
0.0355363
0.0367278
0.0381843
0.0402722
0.0432455
0.0473728
0.0529704
0.0603725
0.0699435
0.0821378
0.0975981
0.117269
0.142483
0.174989
0.21691
0.270558
0.337699
0.417658
0.504901
0.588473
0.0354094
0.0362776
0.0373881
0.0390622
0.0415309
0.0450414
0.0498822
0.0563493
0.0647395
0.0753729
0.0886544
0.105172
0.125793
0.151724
0.18447
0.225686
0.276767
0.337979
0.407277
0.479828
0.0353087
0.0359078
0.0367265
0.0380436
0.040069
0.0430273
0.0471767
0.0527822
0.0600999
0.0693737
0.0808514
0.0948328
0.111741
0.13218
0.156952
0.186999
0.22324
0.266218
0.315571
0.369616
0.0352342
0.0356177
0.0361956
0.0372134
0.0388649
0.0413521
0.0449027
0.0497513
0.0561256
0.064238
0.0742786
0.0864203
0.100829
0.117669
0.137105
0.159339
0.184654
0.213383
0.245719
0.281329
0.0351853
0.0353986
0.0357787
0.0365575
0.0379083
0.040012
0.0430691
0.0472826
0.0528494
0.0599557
0.0687763
0.0794855
0.0922367
0.107033
0.123599
0.141483
0.160282
0.17986
0.19979
0.216541
0.0350743
0.0352049
0.0353391
0.0357594
0.0366013
0.0380348
0.0402187
0.0433037
0.0474197
0.0526451
0.0589969
0.0664859
0.0749476
0.083251
0.0897686
0.0903626
0.0834976
0.0699526
0.0554412
0.0468007
0.0147738
0.0214495
0.0164105
0.0141839
0.0131313
0.0125927
0.0122835
0.0120068
0.011283
0.0101903
0.00929616
0.00957522
0.0119839
0.0167754
0.0242084
0.0345244
0.0479935
0.0658235
0.0867856
0.111128
0.0115967
0.0111195
0.0144416
0.0172054
0.0201653
0.023682
0.0280508
0.0336468
0.0407849
0.0499161
0.0614337
0.0709399
0.0790964
0.0919008
0.110288
0.13623
0.169046
0.19896
0.211556
0.260589
0.00793946
0.0107801
0.0127864
0.0174557
0.0236832
0.0309469
0.0388125
0.0468455
0.0544232
0.0604761
0.0668351
0.0949145
0.113753
0.11673
0.118785
0.118319
0.111584
0.0920744
0.0852865
0.113931
0.0116921
0.0139576
0.0164588
0.0178073
0.0144773
0.0113056
0.00930785
0.00810567
0.00733829
0.00689204
0.00675878
0.00788788
0.0178215
0.0277362
0.0308116
0.0285379
0.0226442
0.0156973
0.011214
0.00973795
0.0127968
0.0147749
0.0171215
0.0285555
0.0330719
0.0333259
0.0327277
0.0320842
0.0314938
0.0310768
0.0311044
0.0300478
0.022697
0.0181318
0.0179788
0.0201656
0.0242766
0.0298449
0.0343763
0.0382031
0.0144073
0.0155726
0.0170291
0.0286797
0.034267
0.0354325
0.0356795
0.0358176
0.0359098
0.0359761
0.0361442
0.0365401
0.0372269
0.037996
0.0390118
0.040516
0.0421118
0.0430789
0.0431155
0.0434357
0.0150554
0.0163699
0.0180226
0.0293562
0.0343449
0.0352868
0.0355416
0.0357572
0.0359632
0.0361515
0.0363715
0.0367554
0.0374202
0.0383148
0.0393518
0.0403669
0.0411416
0.0415387
0.0416622
0.0418006
0.0156201
0.0170124
0.0198731
0.0308475
0.0346656
0.0352155
0.0353848
0.0355727
0.0357778
0.0359925
0.0362396
0.0365708
0.0370384
0.0376391
0.0383241
0.0389994
0.0395605
0.0399499
0.0401968
0.0403788
0.0157766
0.0175556
0.0227743
0.0327117
0.035019
0.0352303
0.0353241
0.0354629
0.0356291
0.0358162
0.0360352
0.0363074
0.0366519
0.0370692
0.0375335
0.0379979
0.0384107
0.0387395
0.0389844
0.0391668
0.0143904
0.0181978
0.026807
0.0343213
0.0352399
0.0352532
0.0352957
0.0353849
0.0355019
0.0356418
0.0358093
0.036013
0.0362603
0.0365493
0.0368656
0.0371841
0.0374776
0.0377266
0.0379255
0.0380788
0.0144877
0.0199171
0.0314991
0.0352142
0.0353005
0.0352495
0.0352618
0.0353097
0.03538
0.0354694
0.0355793
0.035713
0.0358728
0.0360568
0.0362566
0.0364588
0.0366487
0.0368149
0.0369521
0.0370605
0.0173286
0.0257573
0.0348676
0.0353549
0.0352474
0.03521
0.0352099
0.0352281
0.0352586
0.0352997
0.0353517
0.0354154
0.0354915
0.0355787
0.0356732
0.035769
0.0358598
0.0359403
0.0360077
0.0360617
0.062038
0.0807292