/*--------------------------------*- C++ -*----------------------------------*\
| =========                 |                                                 |
| \\      /  F ield         | OpenFOAM: The Open Source CFD Toolbox           |
|  \\    /   O peration     | Version:  v1912                                 |
|   \\  /    A nd           | Website:  www.openfoam.com                      |
|    \\/     M anipulation  |                                                 |
\*---------------------------------------------------------------------------*/
FoamFile
{
    version     2.0;
    format      ascii;
    class       volScalarField;
    location    "50";
    object      p;
}
// * * * * * * * * * * * * * * * * * * * * * * * * * * * * * * * * * * * * * //

dimensions      [1 -1 -2 0 0 0 0];


internalField   nonuniform List<scalar> 
20320
(
418983
429237
429263
429315
429386
429474
429576
429691
429815
429945
430078
430212
430343
430467
430582
430686
430776
430850
430905
430937
399060
408972
409007
409061
409133
409222
409325
409440
409564
409695
409829
409963
410093
410217
410332
410435
410522
410592
410642
410673
379735
389336
389371
389426
389499
389588
389691
389806
389930
390061
390194
390327
390457
390580
390694
390795
390881
390949
390999
391031
361010
370312
370346
370400
370472
370561
370663
370778
370901
371030
371163
371294
371422
371543
371655
371754
371839
371907
371958
371993
342871
351882
351915
351968
352039
352126
352227
352340
352462
352589
352719
352849
352975
353093
353202
353299
353383
353450
353502
353540
325307
334031
334064
334116
334185
334270
334368
334478
334597
334722
334849
334976
335099
335215
335321
335415
335495
335561
335613
335654
308303
316748
316779
316829
316896
316977
317072
317178
317293
317413
317536
317659
317778
317889
317991
318081
318158
318222
318272
318315
291847
300019
300049
300096
300159
300236
300326
300427
300535
300650
300766
300882
300995
301100
301196
301281
301353
301412
301460
301504
275928
283832
283860
283903
283961
284033
284116
284209
284309
284415
284522
284629
284732
284828
284915
284991
285056
285109
285154
285197
260534
268176
268201
268240
268292
268356
268430
268513
268602
268695
268789
268882
268971
269054
269127
269191
269244
269288
269326
269367
245655
253039
253060
253094
253138
253192
253255
253324
253398
253475
253551
253625
253694
253756
253810
253854
253889
253918
253947
253982
231282
238413
238430
238456
238491
238534
238582
238634
238689
238743
238795
238842
238883
238916
238939
238954
238962
238969
238981
239003
217402
224285
224297
224316
224340
224368
224399
224430
224460
224486
224506
224518
224519
224509
224489
224459
224426
224396
224381
224379
204007
210646
210652
210662
210673
210685
210696
210702
210703
210694
210672
210637
210584
210515
210430
210334
210235
210146
210086
210044
191087
197488
197488
197487
197485
197479
197466
197444
197410
197358
197287
197191
197068
196917
196739
196542
196339
196154
196016
195900
178633
184799
184793
184782
184765
184739
184701
184648
184574
184474
184343
184173
183960
183700
183392
183045
182678
182328
182050
181804
166633
172571
172558
172536
172504
172458
172394
172307
172191
172038
171839
171583
171260
170860
170377
169811
169184
168549
168004
167501
155077
160791
160772
160740
160692
160626
160536
160416
160257
160048
159777
159427
158978
158411
157701
156833
155808
154675
153590
152530
143952
149450
149425
149383
149321
149236
149122
148969
148769
148506
148163
147717
147136
146383
145409
144155
142560
140595
138377
135905
133248
138535
138504
138453
138379
138277
138140
137959
137721
137410
137002
136466
135761
134826
133579
131897
129597
126412
121976
115598
146528
148820
149418
150736
153113
157336
164149
174903
189085
203353
210270
206126
193765
176227
156424
136664
118656
103289
90854.2
80145.4
71444
64472.4
61039.5
58324.7
55659.1
53113.5
51173
49591.4
47871.7
46213.1
45398.9
44430.7
43152.2
41481
38351.7
36945
37504.1
33634
25506.2
24633.9
24614
24609.1
24477.3
28263.1
38284.2
35668.3
33458.7
32673.1
30836.2
30725
31008.6
31225.9
31569.8
31864.8
33661.2
33683.7
33973.9
34762.4
35614.4
34595
141799
144340
144941
146001
147877
150842
156206
164923
176843
189353
195919
193523
183114
167413
149081
130197
112755
97774.8
85295.2
74688
66507.6
58852.8
55205.5
53000.4
50383.2
47835.5
45867.6
44411.2
42961.6
41032.9
40195
39106.7
37548.2
35923
35653.2
34716.7
31607.1
27175.8
24620.8
24602.1
24603.1
24598.3
24565.4
26554.1
29832.9
28546.7
26985.9
25902.4
25842.1
26332.7
26811.6
27503.1
28389.9
29083.9
28917
29713.9
30349.6
30357.1
30643.5
31540.5
136476
139210
139615
140338
141614
143810
147987
154955
165382
177752
185699
185018
176284
161304
143472
125068
107816
92614.5
80285.7
69785.5
61080.9
54713.2
51508
48755.8
45142.9
42399.5
40439.3
39247.5
37998.2
35581
35223.7
34828.1
33105.8
31167.5
30248.4
28770.5
27002.7
24763.6
24422.6
24578.8
24597
24589.2
24547
22895.6
22960.3
21984.8
20897.2
20207.8
20254.9
20835
21472
22275.5
23092.2
23755.9
23955.3
24555.7
25107.8
25370
25791.8
26313.1
130959
133807
134062
134395
135081
136606
139357
144352
151885
172491
190470
188726
179282
163745
144666
125425
107979
92454.4
79396.1
68793.1
60176.1
54996.2
51160.1
44611.1
41348.6
38438.8
36301.3
34566
33685.1
32267.8
30774.4
30667.3
28513.1
26466.3
25009.9
23566.5
22909.9
21013
23735.6
24567
24500.9
22615.1
19353.3
17227
16460.9
15473.2
14648.3
14300
14549.9
15249.5
16028.9
16901.9
17706
18330.7
18754.6
19304.6
19776.6
20089
20477.8
20903.3
125332
128074
128168
128287
128596
129134
130528
133029
139823
173113
184138
178081
164946
149250
131396
113358
97016.2
82941.6
71311.5
61781.3
54314.6
49335
45406.6
40489.2
37832.6
35917
34171.7
32220.8
30534.7
29989.6
28661.8
26104
24882.5
24700.4
24128.3
22741.1
19407
17960.9
19892.2
19789.4
17488.9
15436.5
13196.7
11296.3
10108.6
8946.62
8215.84
8142.93
8619.12
9531.9
10440.8
11434.7
12224.4
12829.3
13376.2
13952.8
14374
14676.8
15013.4
15395.8
119668
122345
122249
122135
122000
121989
122044
121221
136951
163226
167033
161572
150522
135295
117857
100421
84740
71510.6
60799.5
52275.7
45740.9
41048.2
37585.7
33963
31484.3
29683.4
28181.1
26645.9
25192.4
24821.9
23300
21305.4
20380.5
19944.4
19060
17802.5
15297.9
13585.8
13097.7
12311.1
10885.6
8837.57
6710.35
5104.65
3655.41
1751.89
1409.94
1633.7
2266.65
3654.47
4689.71
5926.46
6666.52
7193.88
7865.91
8547.83
8901.44
9138.57
9410.21
9744.48
113981
116590
116347
116143
115971
115344
113968
111523
126488
147886
151483
146393
135279
119849
102424
85430.9
70564.2
58445.8
48963.7
41672.2
36198.3
32216.4
29316
26657.3
24656
23157.7
21920.4
20724.5
19621
18917.1
17800.3
16380.8
15370.2
14626.4
13650.9
12407.7
10591.2
8904.02
7746.63
6335.94
4305.53
2121
740.294
183.836
-21.3283
-19.6861
-27.2402
-27.049
-28.6989
-19.1282
127.888
1003.7
1421.41
1588.12
2269.2
3229.02
3398.25
3494.37
3672.86
3877.76
108578
110875
110426
110192
109690
108699
106925
107724
114591
137513
135658
129854
118206
102192
84445.8
67819.5
53990.4
43336.6
35476.6
29745.2
25601.4
22635.9
20521.7
18759
17375.9
16310.5
15417.8
14554.6
13719.1
13033.8
12155.1
11047.3
10121.7
9289.47
8194.61
6911.65
5513.13
3922.45
2536.74
1075.05
89.4339
-50.8986
-27.462
-22.7411
-27.5583
-29.831
-33.8427
-36.511
-41.4531
-47.5364
-51.9663
-52.3342
-55.9238
-55.5725
-28.7642
38.8622
72.3632
76.1199
78.7745
33.8365
103271
105279
104392
103953
103381
102524
101614
96571.5
109905
121217
119538
112428
99596
82349.7
63803.3
47491.5
35000.9
26133.7
20293
16461.7
13938.2
12247.6
11118.6
10273.7
9606.58
9074.14
8594.22
8084.52
7528.62
6965.8
6285.54
5380.12
4627.68
3881.11
2734.68
1372.47
797.029
242.162
61.9078
-61.1659
-29.26
-35.3595
-35.629
-32.1509
-33.9225
-36.6463
-40.0647
-43.1991
-47.3821
-52.1812
-55.3378
-57.5023
-62.3463
-63.6135
-62.038
-62.1048
-62.3838
-62.5545
-62.957
-63.934
97990.3
99881.4
99285.3
98128.2
97243.6
96347.3
94219.7
94246.4
103873
108991
103657
94545.4
79731
60455.9
40553.2
23813.9
12441.5
5891.76
3071.76
2021.22
1671.1
1566.82
1572.08
1646.38
1710.3
1760.12
1752.25
1655.31
1483.68
1214.98
924.513
571.864
456.192
305.123
40.3368
-60.5504
-61.3203
-38.6004
-38.5733
-44.1409
-41.0783
-42.4313
-42.2406
-40.3045
-41.2099
-43.625
-46.6335
-49.884
-53.7378
-57.9143
-61.2941
-63.8371
-67.065
-68.9324
-68.821
-68.8469
-69.1057
-69.3252
-69.5888
-69.9374
92553.8
94500.9
94148.4
93345.5
91601.1
90055.6
92166.5
93577.3
94848.8
96224.5
88340.8
76681.7
59141.7
36988.6
13490.9
1288.24
6.58225
-15.9309
-30.7869
-40.3252
-47.4113
-53.0252
-57.6242
-60.4972
-61.8386
-62.4496
-62.7855
-62.6522
-62.7579
-64.3039
-64.9404
-43.188
-50.1411
-53.8416
-53.8848
-43.9195
-50.1486
-47.3007
-48.9579
-49.9036
-48.4352
-48.3351
-48.4315
-47.7596
-48.475
-50.5144
-53.2753
-56.4551
-60.03
-63.7872
-67.0346
-69.696
-72.3831
-74.1708
-74.5982
-74.7285
-74.8742
-74.9625
-74.96
-74.7472
87143.8
88857.3
88275.3
87651
86170.7
83331.6
82832.4
89652.2
86529.8
83272.5
73779.9
59393.1
38837.2
11329.5
-17.7762
-7.26451
-18.897
-31.5807
-41.411
-49.1356
-54.8783
-58.9466
-61.7956
-63.6299
-64.6065
-64.9378
-64.8765
-64.5463
-64.0903
-63.7374
-63.3377
-58.9957
-58.7014
-60.4455
-60.4343
-55.9844
-56.9972
-55.3359
-55.6443
-55.665
-55.1132
-54.8709
-54.9314
-54.8687
-55.6648
-57.4623
-60.0172
-63.023
-66.3357
-69.7468
-72.8256
-75.4648
-77.8577
-79.5439
-80.2694
-80.5345
-80.6312
-80.5866
-80.3121
-79.6384
81753.9
83260.8
82522.1
81641.1
80023.5
77691.3
78279.9
83842.7
85225.2
72627.1
60490.1
43449.7
18750.5
105.919
-17.5662
-24.1561
-38.0051
-48.8491
-56.9012
-62.899
-67.151
-70.0858
-72.0663
-73.2145
-73.6365
-73.5346
-73.1121
-72.5007
-71.8435
-71.3247
-70.7994
-68.1249
-66.0708
-66.3352
-66.2873
-63.9773
-63.5956
-62.7265
-62.5027
-62.2328
-61.8253
-61.5755
-61.6723
-61.934
-62.8034
-64.4755
-66.8418
-69.6329
-72.6809
-75.7873
-78.6766
-81.2229
-83.4309
-85.0445
-85.9239
-86.2998
-86.3895
-86.2328
-85.7238
-84.6963
76377.6
77695.2
76971.9
76015.7
74050.2
74668.7
77439.2
79814.9
76198.3
63358.1
48699.5
29267.7
2138.6
-34.5492
-34.0524
-47.0723
-57.543
-65.4139
-71.4228
-75.7767
-78.6675
-80.5469
-81.6851
-82.1707
-82.0957
-81.616
-80.8836
-80.0164
-79.1426
-78.4015
-77.6855
-75.9352
-73.8506
-73.152
-72.8215
-71.518
-70.7496
-69.9697
-69.4657
-69.0611
-68.6489
-68.4669
-68.5983
-69.007
-69.9407
-71.5433
-73.7256
-76.2819
-79.0616
-81.9018
-84.6031
-87.0273
-89.0922
-90.6513
-91.6092
-92.0659
-92.1681
-91.9333
-91.2595
-90.0024
70976.4
72242.9
72102.1
70772.4
70016.4
71865.6
67593.7
76021.4
66230.1
54499.1
38445.9
16210.1
70.1784
-47.5041
-56.1416
-66.6028
-74.3699
-80.2508
-84.6881
-87.6932
-89.5202
-90.5949
-91.0704
-91.011
-90.5135
-89.7079
-88.7174
-87.637
-86.5855
-85.6618
-84.7803
-83.3646
-81.5527
-80.4371
-79.7655
-78.8184
-77.9548
-77.1515
-76.5502
-76.0293
-75.6208
-75.4846
-75.6449
-76.1573
-77.1439
-78.6681
-80.6571
-82.9755
-85.5029
-88.1036
-90.6175
-92.9031
-94.8553
-96.3641
-97.3564
-97.8742
-98
-97.7259
-96.9633
-95.5897
65456.7
67130.7
66720.5
65946.7
66602.4
65066.9
63237.3
72424.4
60252.7
46574.2
29715.7
5148.23
-50.4872
-64.5766
-74.0915
-82.2548
-88.2001
-92.8711
-96.2485
-98.2936
-99.4355
-99.9805
-99.9934
-99.5382
-98.7259
-97.6759
-96.4847
-95.2418
-94.0473
-92.9675
-91.9382
-90.6554
-89.1117
-87.8497
-86.9545
-86.0706
-85.1748
-84.365
-83.6861
-83.1133
-82.7437
-82.6559
-82.8732
-83.4437
-84.4221
-85.8344
-87.6329
-89.7311
-92.0306
-94.4179
-96.752
-98.8945
-100.74
-102.195
-103.198
-103.761
-103.917
-103.641
-102.858
-101.459
59752.2
61750.6
61199.4
60650.9
60371.2
58400.2
65779.8
63913.4
53757.6
39522.1
22232.7
601.606
-74.2476
-79.0807
-88.3794
-94.4329
-99.407
-103.384
-105.996
-107.508
-108.324
-108.589
-108.338
-107.656
-106.658
-105.454
-104.134
-102.783
-101.479
-100.278
-99.1462
-97.9196
-96.5388
-95.2717
-94.2643
-93.3419
-92.4381
-91.6181
-90.9177
-90.3743
-90.0592
-90.0113
-90.2562
-90.8257
-91.7531
-93.0491
-94.681
-96.5861
-98.6839
-100.874
-103.031
-105.028
-106.764
-108.159
-109.158
-109.755
-109.949
-109.703
-108.951
-107.594
53805.2
56027.2
55393.2
55094.6
55282.9
53186.9
61126.7
54857.2
46125.4
33079.7
15342.8
46.3187
-80.8389
-92.6209
-99.3547
-104.419
-108.754
-111.995
-114.117
-115.455
-116.201
-116.389
-116.06
-115.31
-114.252
-112.989
-111.614
-110.209
-108.846
-107.573
-106.379
-105.169
-103.895
-102.682
-101.631
-100.676
-99.7765
-98.9723
-98.3028
-97.8037
-97.5201
-97.4889
-97.7344
-98.2787
-99.1438
-100.336
-101.826
-103.565
-105.482
-107.487
-109.471
-111.319
-112.943
-114.272
-115.259
-115.882
-116.117
-115.924
-115.24
-113.971
47531.2
49734.4
49290.1
49227.3
49814
46756.8
50230
51252.6
39932.1
27381.9
9604.34
-57.574
-97.0833
-103.155
-108.662
-112.984
-116.498
-119.117
-121.031
-122.39
-123.204
-123.455
-123.188
-122.494
-121.48
-120.246
-118.889
-117.491
-116.124
-114.829
-113.613
-112.427
-111.235
-110.086
-109.038
-108.082
-107.206
-106.437
-105.809
-105.348
-105.087
-105.065
-105.302
-105.813
-106.619
-107.72
-109.088
-110.676
-112.424
-114.253
-116.068
-117.77
-119.282
-120.545
-121.512
-122.155
-122.436
-122.311
-121.715
-120.562
40456.8
43212.8
42789.8
43122.9
43784.8
42203.2
41299.3
45142.5
34590.9
22343
4757.32
-73.3616
-105.703
-112.186
-116.937
-120.392
-123.15
-125.382
-127.219
-128.641
-129.56
-129.937
-129.806
-129.244
-128.349
-127.217
-125.944
-124.614
-123.295
-122.032
-120.839
-119.694
-118.574
-117.492
-116.479
-115.553
-114.721
-114.001
-113.418
-112.993
-112.758
-112.744
-112.972
-113.454
-114.204
-115.219
-116.471
-117.916
-119.503
-121.164
-122.816
-124.378
-125.783
-126.978
-127.921
-128.578
-128.907
-128.856
-128.363
-127.341
33330.5
36524.3
36657.7
36736.7
36808.6
38111
36109.6
37867.7
29317.8
17910.4
1471.26
-112.286
-114.208
-120.824
-124.485
-127.169
-129.381
-131.357
-133.12
-134.554
-135.539
-136.028
-136.041
-135.641
-134.907
-133.927
-132.793
-131.584
-130.365
-129.181
-128.052
-126.973
-125.929
-124.921
-123.97
-123.102
-122.328
-121.666
-121.133
-120.75
-120.542
-120.542
-120.763
-121.215
-121.91
-122.841
-123.978
-125.285
-126.718
-128.219
-129.718
-131.146
-132.445
-133.571
-134.486
-135.154
-135.528
-135.555
-135.168
-134.284
27942.2
30487.3
30776.5
30336
29295.6
35695.6
34200.3
28507.3
23910.7
13927.3
450.671
-130.393
-124.361
-128.931
-131.702
-133.82
-135.669
-137.443
-139.087
-140.45
-141.419
-141.959
-142.081
-141.829
-141.264
-140.46
-139.498
-138.449
-137.37
-136.304
-135.274
-134.282
-133.325
-132.404
-131.534
-130.741
-130.037
-129.439
-128.962
-128.623
-128.447
-128.459
-128.673
-129.095
-129.734
-130.581
-131.608
-132.784
-134.073
-135.423
-136.776
-138.076
-139.273
-140.328
-141.21
-141.881
-142.294
-142.394
-142.113
-141.369
22788.2
24910.3
24380.5
24189.2
23106.6
24166.3
33329.1
23272.3
19004.8
10421.9
131.166
-128.677
-133.584
-136.742
-138.944
-140.668
-142.267
-143.862
-145.352
-146.596
-147.508
-148.059
-148.258
-148.133
-147.727
-147.096
-146.307
-145.42
-144.485
-143.539
-142.61
-141.708
-140.834
-139.996
-139.208
-138.492
-137.861
-137.328
-136.907
-136.614
-136.467
-136.492
-136.697
-137.087
-137.671
-138.437
-139.361
-140.415
-141.568
-142.778
-143.995
-145.174
-146.269
-147.252
-148.093
-148.757
-149.199
-149.364
-149.185
-148.584
15843.4
18837.8
17793.7
18063.9
17796.7
15809.5
24249.6
20399.4
15047.6
7437.79
-32.3091
-132.318
-141.962
-144.678
-146.412
-147.83
-149.228
-150.643
-151.958
-153.056
-153.895
-154.454
-154.718
-154.704
-154.44
-153.968
-153.341
-152.604
-151.803
-150.974
-150.143
-149.325
-148.528
-147.762
-147.041
-146.388
-145.815
-145.335
-144.963
-144.709
-144.591
-144.626
-144.822
-145.183
-145.713
-146.404
-147.231
-148.172
-149.202
-150.283
-151.375
-152.438
-153.435
-154.342
-155.134
-155.779
-156.236
-156.452
-156.371
-155.917
8816.91
12034.4
12463.3
11707
12898.1
9097.07
14175.7
15798.5
11505.7
4995.87
-125.395
-140.471
-150.677
-152.766
-154.098
-155.28
-156.489
-157.702
-158.834
-159.803
-160.585
-161.137
-161.445
-161.515
-161.363
-161.021
-160.53
-159.925
-159.248
-158.529
-157.795
-157.065
-156.348
-155.658
-155.008
-154.42
-153.902
-153.469
-153.134
-152.908
-152.806
-152.844
-153.03
-153.363
-153.847
-154.47
-155.211
-156.051
-156.968
-157.933
-158.91
-159.866
-160.768
-161.596
-162.331
-162.944
-163.397
-163.649
-163.656
-163.362
4127.47
6910.66
6792.31
5590.95
8198.53
3164.68
5363.47
10267.7
8075.6
3029.27
-160.903
-156.237
-159.809
-160.947
-161.962
-162.97
-163.991
-165.031
-165.999
-166.865
-167.577
-168.106
-168.433
-168.559
-168.491
-168.254
-167.876
-167.387
-166.82
-166.203
-165.563
-164.917
-164.277
-163.659
-163.077
-162.55
-162.087
-161.7
-161.402
-161.203
-161.114
-161.151
-161.319
-161.621
-162.057
-162.617
-163.282
-164.036
-164.858
-165.721
-166.595
-167.451
-168.263
-169.011
-169.682
-170.249
-170.682
-170.947
-171.025
-170.904
-785.241
913.196
-623.117
-768.802
14.32
2739
722.691
5627.96
4884.45
1485.52
-169.465
-171.027
-168.695
-169.27
-170.044
-170.89
-171.744
-172.623
-173.451
-174.207
-174.847
-175.342
-175.671
-175.832
-175.826
-175.673
-175.39
-174.999
-174.53
-174.006
-173.453
-172.886
-172.32
-171.771
-171.253
-170.784
-170.371
-170.026
-169.763
-169.587
-169.51
-169.544
-169.697
-169.967
-170.356
-170.854
-171.447
-172.12
-172.855
-173.629
-174.415
-175.184
-175.911
-176.582
-177.185
-177.696
-178.092
-178.347
-178.455
-178.498
-8029.67
-5515.24
-6024.82
-5497.44
-8838.29
5618.22
-5317.19
1103.92
2217.84
356.056
-179.959
-178.405
-177.481
-177.859
-178.407
-179.043
-179.746
-180.463
-181.165
-181.815
-182.381
-182.833
-183.153
-183.333
-183.373
-183.283
-183.076
-182.77
-182.386
-181.946
-181.472
-180.979
-180.483
-179.998
-179.54
-179.126
-178.76
-178.454
-178.222
-178.068
-178
-178.033
-178.17
-178.411
-178.756
-179.198
-179.723
-180.319
-180.973
-181.663
-182.365
-183.055
-183.708
-184.308
-184.842
-185.294
-185.642
-185.864
-185.943
-185.886
-15143.1
-12546.5
-11654.1
-11490.4
-16138.9
-4980.15
-1501.89
-1351.82
372.46
-289.007
-186.475
-185.906
-186.412
-186.683
-187.011
-187.423
-187.968
-188.538
-189.117
-189.668
-190.16
-190.568
-190.871
-191.058
-191.128
-191.088
-190.942
-190.705
-190.396
-190.03
-189.628
-189.203
-188.77
-188.345
-187.943
-187.579
-187.257
-186.988
-186.785
-186.65
-186.591
-186.622
-186.745
-186.958
-187.263
-187.655
-188.119
-188.647
-189.225
-189.836
-190.46
-191.074
-191.654
-192.186
-192.658
-193.051
-193.35
-193.535
-193.577
-193.438
-18772.6
-18642.2
-18185.5
-17899.1
-17636.2
-16213.6
-3668.2
-2670.53
-1058.12
-439.949
-195.876
-194.982
-195.499
-195.618
-195.77
-196.01
-196.393
-196.832
-197.296
-197.754
-198.174
-198.536
-198.814
-199.001
-199.092
-199.087
-198.988
-198.811
-198.564
-198.263
-197.926
-197.562
-197.188
-196.819
-196.469
-196.15
-195.867
-195.632
-195.456
-195.338
-195.288
-195.317
-195.427
-195.616
-195.885
-196.23
-196.64
-197.106
-197.617
-198.159
-198.711
-199.253
-199.767
-200.235
-200.645
-200.984
-201.24
-201.398
-201.439
-201.367
-18821.2
-18845.7
-18806.6
-18727.8
-18343.4
-17868.1
-10777.1
-4594.52
-2246.41
-195.74
-218.217
-205.374
-204.69
-204.6
-204.633
-204.762
-205.002
-205.321
-205.685
-206.057
-206.412
-206.726
-206.978
-207.16
-207.26
-207.279
-207.218
-207.088
-206.895
-206.651
-206.37
-206.062
-205.742
-205.424
-205.121
-204.844
-204.597
-204.392
-204.239
-204.137
-204.096
-204.124
-204.222
-204.39
-204.627
-204.93
-205.291
-205.703
-206.154
-206.633
-207.121
-207.599
-208.051
-208.464
-208.825
-209.12
-209.341
-209.483
-209.542
-209.535
-18868.5
-18859.7
-18842.3
-18788.9
-18672
-19155
-13315.7
-6486.64
-3161.9
-46.8206
-223.47
-214.675
-213.844
-213.638
-213.589
-213.64
-213.778
-213.999
-214.274
-214.57
-214.865
-215.133
-215.359
-215.528
-215.631
-215.666
-215.635
-215.543
-215.394
-215.199
-214.968
-214.709
-214.438
-214.166
-213.907
-213.667
-213.453
-213.276
-213.143
-213.055
-213.021
-213.048
-213.136
-213.284
-213.495
-213.763
-214.08
-214.443
-214.84
-215.263
-215.694
-216.114
-216.512
-216.876
-217.195
-217.458
-217.658
-217.791
-217.855
-217.864
-18912.7
-18893.6
-18882.2
-18851.8
-18670.7
-20308.4
-13475.1
-7387.43
-3636.03
-143.747
-220.658
-223.604
-222.99
-222.786
-222.654
-222.641
-222.711
-222.854
-223.054
-223.285
-223.524
-223.75
-223.948
-224.1
-224.201
-224.247
-224.237
-224.176
-224.063
-223.91
-223.721
-223.505
-223.278
-223.048
-222.827
-222.622
-222.438
-222.287
-222.173
-222.097
-222.069
-222.094
-222.173
-222.304
-222.491
-222.728
-223.008
-223.327
-223.677
-224.049
-224.428
-224.796
-225.147
-225.469
-225.753
-225.988
-226.17
-226.295
-226.363
-226.381
-18931
-18921.8
-18915.6
-18917.7
-19006.3
-19158.6
-12809.6
-7397.3
-3466.66
-237.038
-226.289
-232.747
-232.25
-232.038
-231.854
-231.785
-231.795
-231.879
-232.018
-232.193
-232.383
-232.571
-232.738
-232.873
-232.971
-233.021
-233.028
-232.989
-232.908
-232.79
-232.636
-232.458
-232.269
-232.077
-231.89
-231.714
-231.557
-231.43
-231.333
-231.269
-231.248
-231.271
-231.341
-231.457
-231.623
-231.832
-232.078
-232.359
-232.668
-232.996
-233.327
-233.65
-233.959
-234.244
-234.497
-234.709
-234.875
-234.991
-235.058
-235.081
-18941
-18935.7
-18935.2
-18931.2
-19227
-17356.4
-11657.2
-6927.26
-2972.19
-258.811
-244.127
-242.166
-241.563
-241.366
-241.175
-241.065
-241.033
-241.069
-241.16
-241.289
-241.436
-241.588
-241.727
-241.847
-241.936
-241.988
-242.007
-241.986
-241.93
-241.839
-241.716
-241.573
-241.416
-241.256
-241.1
-240.951
-240.818
-240.711
-240.628
-240.575
-240.56
-240.583
-240.645
-240.75
-240.896
-241.08
-241.295
-241.542
-241.814
-242.103
-242.394
-242.677
-242.948
-243.2
-243.426
-243.618
-243.769
-243.877
-243.94
-243.965
-18946.8
-18944.7
-18935.3
-18882.3
-20184.3
-15237
-10310.7
-6073.14
-2122.74
-253.89
-253.245
-251.272
-250.962
-250.772
-250.595
-250.473
-250.416
-250.42
-250.475
-250.565
-250.677
-250.797
-250.913
-251.017
-251.095
-251.149
-251.175
-251.167
-251.129
-251.062
-250.965
-250.85
-250.722
-250.59
-250.461
-250.336
-250.226
-250.136
-250.066
-250.023
-250.013
-250.035
-250.092
-250.186
-250.316
-250.477
-250.665
-250.881
-251.12
-251.374
-251.629
-251.878
-252.117
-252.34
-252.54
-252.712
-252.849
-252.949
-253.01
-253.036
-18963.8
-18956.8
-18937.2
-19135
-18028.2
-13243.5
-8839.23
-5137.98
-517.167
-276.419
-261.455
-260.741
-260.457
-260.273
-260.127
-260.009
-259.938
-259.924
-259.954
-260.016
-260.101
-260.195
-260.29
-260.378
-260.449
-260.502
-260.529
-260.531
-260.509
-260.459
-260.384
-260.294
-260.19
-260.083
-259.976
-259.873
-259.783
-259.708
-259.649
-259.616
-259.611
-259.632
-259.683
-259.768
-259.885
-260.026
-260.19
-260.379
-260.587
-260.809
-261.033
-261.253
-261.465
-261.662
-261.838
-261.99
-262.114
-262.206
-262.265
-262.292
-18989
-18968.3
-18953.8
-19503
-15470.6
-11243.5
-7297.59
-4040.69
-150.182
-270.861
-270.809
-270.188
-270.02
-269.896
-269.779
-269.671
-269.604
-269.584
-269.601
-269.646
-269.709
-269.782
-269.86
-269.933
-269.996
-270.045
-270.073
-270.084
-270.072
-270.036
-269.981
-269.911
-269.826
-269.74
-269.653
-269.57
-269.497
-269.434
-269.386
-269.362
-269.362
-269.381
-269.428
-269.505
-269.607
-269.731
-269.875
-270.041
-270.223
-270.415
-270.611
-270.805
-270.993
-271.168
-271.323
-271.458
-271.568
-271.651
-271.707
-271.735
-19060.6
-18987.4
-19585.7
-16703.7
-12906.6
-9133.57
-5766.64
-2773.03
-279.151
-281.398
-280.618
-279.874
-279.727
-279.645
-279.552
-279.466
-279.415
-279.402
-279.416
-279.449
-279.497
-279.556
-279.618
-279.679
-279.734
-279.777
-279.807
-279.822
-279.817
-279.795
-279.757
-279.701
-279.634
-279.566
-279.496
-279.428
-279.369
-279.317
-279.279
-279.263
-279.266
-279.286
-279.33
-279.399
-279.489
-279.596
-279.721
-279.867
-280.027
-280.195
-280.367
-280.537
-280.702
-280.856
-280.994
-281.113
-281.211
-281.286
-281.338
-281.364
-22358
-19734.9
-16247.4
-13264.4
-9923.74
-6758.46
-4172.63
-1134.68
-300.325
-291.087
-290.254
-289.813
-289.628
-289.551
-289.476
-289.417
-289.391
-289.39
-289.404
-289.43
-289.468
-289.514
-289.564
-289.615
-289.662
-289.701
-289.729
-289.746
-289.749
-289.739
-289.711
-289.668
-289.618
-289.564
-289.508
-289.455
-289.406
-289.363
-289.335
-289.325
-289.33
-289.35
-289.392
-289.455
-289.533
-289.625
-289.735
-289.863
-290.003
-290.151
-290.302
-290.45
-290.594
-290.729
-290.851
-290.957
-291.045
-291.112
-291.157
-291.179
122953
128034
127999
127940
127855
127738
127582
127377
127108
126756
126294
125686
124878
123795
122317
120260
117296
112795
105283
91365.2
112780
117846
117807
117742
117647
117519
117348
117123
116830
116448
115947
115288
114413
113233
111617
109346
106035
100922
92441.4
77257.2
102635
107686
107643
107573
107471
107333
107150
106911
106601
106199
105676
104990
104084
102872
101227
98950.1
95719.4
90995.3
83890.1
72900.5
92521
97555
97509.5
97435.3
97328.6
97183.9
96993.1
96745.4
96426
96014.6
95483.6
94794.6
93894.2
92707.3
91126.4
88997.2
86094.6
82086.6
76494
68735.9
82438.6
87455.8
87408.6
87331.8
87221.7
87072.9
86877.8
86626.1
86304
85892.8
85367.3
84693.8
83826.6
82703.7
81241.9
79329.5
76818.4
73514.2
69180.9
63635.6
72389
77389.4
77341.2
77263
77151.3
77000.9
76804.7
76553.3
76234.1
75830.3
75320.2
74675
73857.2
72818.3
71496.4
69813.7
67676.3
64974.7
61597.1
57477
62372.9
67356.4
67308
67229.5
67117.7
66967.8
66773.3
66525.5
66213.3
65822.2
65333.5
64723.4
63962.1
63012.3
61829
60359.3
58544.1
56321.5
53637
50464.8
52390
57357.1
57309.1
57231.4
57120.9
56973.1
56782.3
56540.6
56238.3
55862.9
55398.6
54826.1
54121.3
53256.2
52198.2
50911.7
49359.8
47507
45325.3
42804.3
42439.9
47391.1
47344.4
47268.4
47160.2
47015.9
46830.1
46596.2
46305.5
45947.3
45508.3
44972.4
44320.4
43530.3
42578.9
41442.6
40099.5
38529.8
36718
34657.1
32521.3
37458
37413.2
37340
37235
37094.9
36915.2
36689.9
36411.6
36071
35656.9
35155.4
34550.1
33823.2
32957.4
31939.1
30758.3
29406.5
27873.9
26149.5
22631.8
27556.4
27515.4
27445.7
27344.4
27209
27035.7
26819.3
26553.4
26230.3
25840.4
25371.2
24807
24130.2
23327.8
22396.3
21339.6
20161.8
18855.1
17398.5
12763
17685.9
17651.6
17585.3
17487.5
17356.8
17189.7
16981.9
16727.9
16421.8
16055.9
15619.8
15095
14457.1
13697.1
12828.8
11879.3
10867.9
9783.08
8581.66
2877.39
7847.17
7820.88
7757.31
7664.16
7538.09
7376.91
7177.78
6935.18
6644.53
6304.07
5912.75
5441.96
4829.74
4083.26
3272.93
2514.85
1865.85
1330.74
813.01
-429.738
38.3498
25.8278
-5.03727
-44.1605
-90.6821
-142.227
-198.223
-257.645
-318.092
-375.86
-418.069
-427.832
-425.999
-425.815
-425.905
-425.853
-424.643
-423.145
-423.236
-439.29
-434.028
-434.092
-434.098
-434.087
-434.08
-434.082
-434.091
-434.105
-434.114
-434.096
-434.145
-434.123
-434.408
-434.505
-434.529
-434.464
-434.329
-434.226
-434.132
-448.935
-443.857
-443.901
-443.91
-443.904
-443.9
-443.902
-443.91
-443.922
-443.917
-443.895
-443.86
-443.902
-443.974
-444.022
-444.055
-444.076
-444.09
-444.079
-444.071
-458.682
-453.73
-453.726
-453.729
-453.727
-453.726
-453.726
-453.731
-453.738
-453.744
-453.745
-453.738
-453.749
-453.779
-453.811
-453.84
-453.866
-453.889
-453.896
-453.902
-468.475
-463.557
-463.551
-463.549
-463.548
-463.547
-463.548
-463.551
-463.556
-463.561
-463.565
-463.568
-463.576
-463.594
-463.616
-463.639
-463.662
-463.683
-463.701
-463.719
-478.282
-473.373
-473.37
-473.368
-473.367
-473.367
-473.368
-473.371
-473.375
-473.379
-473.384
-473.39
-473.398
-473.412
-473.428
-473.447
-473.467
-473.488
-473.508
-473.529
-488.095
-483.187
-483.185
-483.184
-483.184
-483.185
-483.187
-483.19
-483.194
-483.198
-483.203
-483.21
-483.219
-483.23
-483.244
-483.26
-483.278
-483.297
-483.317
-483.337
-497.91
-493.001
-493
-493
-493.001
-493.003
-493.005
-493.008
-493.012
-493.017
-493.022
-493.029
-493.037
-493.047
-493.06
-493.074
-493.09
-493.108
-493.126
-493.146
-507.724
-502.815
-502.815
-502.816
-502.818
-502.82
-502.823
-502.827
-502.831
-502.835
-502.84
-502.847
-502.854
-502.864
-502.875
-502.888
-502.903
-502.919
-502.936
-502.955
-517.528
-512.626
-512.628
-512.631
-512.634
-512.637
-512.64
-512.644
-512.648
-512.652
-512.657
-512.663
-512.671
-512.679
-512.69
-512.702
-512.715
-512.73
-512.746
-512.764
-527.313
-522.434
-522.442
-522.447
-522.45
-522.454
-522.457
-522.461
-522.465
-522.469
-522.474
-522.479
-522.486
-522.494
-522.504
-522.515
-522.527
-522.541
-522.556
-522.573
37855.9
36760
35871
36510.8
40422.4
46607.3
53854.4
60842.4
66423.6
69796.5
70448
68057.6
62104
51157.5
30664.1
47270.2
30923.4
26123.8
26295.7
29679.5
35244.6
41944.2
48465.1
53666.5
56753.3
57242.8
54845
49199.1
39665.4
25739.9
56875
37642.9
26538.1
22675.4
23817
28069.1
33697.4
39259.2
43613.3
46048.8
46210.1
43951.2
39204.8
32008.7
22830.1
58977.3
46678.3
36493.2
30228.7
27929.3
28673.6
31285.8
34275.6
36601.8
37648.3
37104.2
34861.3
30947.8
25556.6
19169.8
56806.7
48737.9
41324.1
35667.1
32163
30623.7
30497.5
30932.7
31214.3
30855.8
29563.4
27208.6
23809.8
19546.7
14792.7
52530.6
46737.6
41134.9
36337.8
32658.5
30137.8
28495.2
27338.3
26238.9
24854.6
22956.5
20435.8
17306.5
13696.2
9825.99
46741.8
42368.4
37970.2
33898
30381.2
27489.4
25120.7
23084.3
21143.4
19086.3
16761.3
14083.8
11036.1
7683.39
4221.08
39888
36451.4
32894
29413.9
26175.7
23233.3
20570
18101.8
15710.3
13268.4
10642.3
7740.89
4602.65
1636.76
-201.703
32292.3
29495.2
26538.8
23544.5
20604.5
17782.2
15093
12493
9878.4
7134.76
4232.71
1533.77
-221.405
-378.373
-373.863
24175.5
21827.7
19325.7
16738
14121.8
11514.7
8886.06
6202.24
3416.78
1262.36
-346.574
-385.001
-383.729
-386.696
-385.954
15732.1
13751.7
11626.9
9345.61
6971.26
4436.42
2095.91
480.506
-405.562
-388.543
-395.566
-396.526
-395.694
-395.775
-395.809
7138.6
5344.37
3475.28
1745.96
509.172
-400.965
-408.733
-402.686
-406.01
-405.711
-405.388
-405.487
-405.542
-405.582
-405.606
141.349
-392.053
-426.22
-412.544
-412.502
-414.472
-415.785
-414.943
-415.108
-415.18
-415.236
-415.281
-415.317
-415.357
-415.392
-423.39
-424.585
-425.32
-424.94
-424.562
-424.739
-424.838
-424.873
-424.931
-424.969
-425.011
-425.059
-425.099
-425.137
-425.175
-434.17
-434.327
-434.418
-434.473
-434.511
-434.572
-434.615
-434.657
-434.707
-434.751
-434.794
-434.838
-434.879
-434.918
-434.957
-444.105
-444.163
-444.206
-444.261
-444.312
-444.353
-444.401
-444.445
-444.489
-444.533
-444.575
-444.617
-444.659
-444.7
-444.74
-453.922
-453.965
-454.011
-454.056