/*--------------------------------*- C++ -*----------------------------------*\
| =========                 |                                                 |
| \\      /  F ield         | OpenFOAM: The Open Source CFD Toolbox           |
|  \\    /   O peration     | Version:  v1912                                 |
|   \\  /    A nd           | Website:  www.openfoam.com                      |
|    \\/     M anipulation  |                                                 |
\*---------------------------------------------------------------------------*/
FoamFile
{
    version     2.0;
    format      ascii;
    class       volScalarField;
    location    "50";
    object      p_rgh;
}
// * * * * * * * * * * * * * * * * * * * * * * * * * * * * * * * * * * * * * //

dimensions      [1 -1 -2 0 0 0 0];


internalField   nonuniform List<scalar> 
20320
(
434251
434326
434352
434404
434475
434563
434665
434780
434904
435034
435168
435301
435432
435556
435672
435775
435865
435939
435994
436026
434138
434236
434271
434324
434396
434485
434588
434704
434828
434959
435092
435226
435357
435481
435596
435698
435786
435855
435905
435937
433913
434052
434087
434141
434214
434303
434406
434521
434646
434776
434909
435043
435172
435295
435409
435510
435596
435665
435714
435746
433603
433782
433817
433871
433943
434031
434134
434248
434371
434501
434633
434764
434892
435013
435125
435224
435309
435378
435428
435463
433221
433435
433469
433522
433592
433679
433780
433893
434015
434142
434273
434402
434528
434647
434756
434853
434936
435004
435055
435093
432776
433020
433053
433104
433173
433258
433357
433467
433586
433710
433838
433964
434087
434203
434309
434403
434484
434550
434601
434642
432279
432547
432579
432628
432695
432776
432871
432977
433092
433213
433336
433458
433577
433688
433790
433880
433957
434021
434071
434114
431739
432026
432056
432103
432166
432243
432333
432434
432543
432657
432774
432890
433002
433107
433203
433288
433360
433419
433468
433511
431165
431467
431495
431538
431596
431668
431751
431844
431944
432050
432157
432264
432367
432463
432550
432626
432691
432744
432789
432832
430567
430879
430904
430943
430995
431059
431133
431216
431304
431397
431492
431585
431674
431757
431830
431894
431946
431990
432029
432070
429954
430271
430292
430325
430370
430424
430487
430556
430630
430706
430782
430856
430925
430988
431041
431085
431120
431150
431179
431213
429334
429651
429668
429695
429730
429772
429820
429873
429927
429982
430033
430081
430122
430154
430178
430192
430201
430207
430220
430241
428716
429029
429041
429060
429084
429112
429143
429174
429204
429230
429250
429262
429263
429253
429233
429203
429170
429140
429125
429123
428108
428413
428419
428429
428440
428452
428463
428469
428469
428460
428439
428403
428351
428282
428197
428101
428001
427913
427853
427810
427517
427810
427810
427810
427807
427801
427788
427766
427732
427681
427609
427513
427390
427239
427062
426864
426662
426476
426338
426222
426949
427227
427221
427210
427193
427167
427129
427076
427002
426902
426770
426601
426387
426127
425820
425473
425106
424755
424478
424231
426410
426670
426657
426636
426603
426557
426493
426407
426291
426138
425938
425682
425360
424960
424476
423911
423284
422649
422104
421601
425904
426145
426125
426093
426046
425980
425890
425770
425611
425402
425131
424780
424332
423764
423055
422187
421161
420029
418943
417884
425435
425654
425629
425587
425525
425440
425326
425173
424973
424710
424367
423921
423340
422587
421613
420359
418764
416799
414581
412109
425003
425201
425170
425119
425045
424943
424806
424625
424387
424076
423668
423132
422427
421492
420245
418562
416263
413078
408642
402264
150243
150058
150619
151938
154158
158381
165346
176178
190360
204627
211544
207400
195039
177501
157694
137926
119915
104484
92128.3
81417.6
72665.8
65694.2
62261.4
59546.8
56933.3
54387.6
52447.2
50865.5
49145.7
47487.2
46672.9
45704.8
44426.3
42755.2
38721.3
37440.8
38778.2
34908.1
25849.7
24635.1
24615.2
24610.4
24478.6
29335.2
39558.3
36942.4
34732.8
33913.7
31153.7
31041.3
31254.6
31311.1
31652.2
32123.5
34642.1
34123.2
34413.3
36028.7
36888.5
35527.3
150621
150407
151037
152290
154250
157233
162597
171314
183215
195670
202252
199024
188655
172958
155213
136589
119146
104166
91686.8
81079.6
72899.2
65244.4
61438.6
58571.9
56774.9
54227.1
52256.8
50798.1
49353.1
47424.5
46586.6
45421.9
43894.4
40878.8
39518.5
41099.6
37998.6
33567.4
24634.1
24608.5
24609.6
24604.8
24571.8
31532.3
36224.6
34938.3
33377.4
32294
32233.8
32724.3
33203.2
33894.8
34781.5
35475.5
35308.6
36105.6
36741.2
36748.7
35928.7
37029.4
150377
150350
150353
151185
153214
155298
159264
166529
176773
189246
197300
196573
187550
172509
154638
135888
118120
102693
90432.3
79868.1
69782.6
56791.4
62483.2
60356.8
56743.8
54000.4
52040.3
50848.4
49599.1
44640.9
44161.5
44315.7
44706.7
42768.4
41849.3
40371.5
38603.6
36364.5
24434.2
24590.5
24608.6
24600.8
29359.2
34496.5
34561.2
33585.7
32498.1
31808.7
31855.8
32435.9
33073
33876.4
34693.1
35356.9
35556.2
36156.6
36706.9
36968.1
37392.6
37914
150550
150507
150962
151299
151129
152637
156261
161187
168472
187247
195407
191811
182457
167467
148704
129734
112412
96598.5
83189.3
72555.6
64331.1
58140.1
62604.7
49772.4
46498.4
43345.3
44586.2
44963
40775.9
40788
44774.1
47353.6
44683.9
41581.3
38465.4
36453.8
38927.8
28141.9
23752.5
24583.9
24841.2
37236.5
36256.9
34130.6
33364.5
32376.8
31551.9
31203.6
31453.5
32153.1
32932.5
33805.5
34609.6
35234.3
35658.2
36208.2
36680.2
36992.6
37380.9
37806.3
150258
150201
150463
149589
150298
151435
151615
155197
160079
175185
201118
200383
187248
171551
153698
135660
119317
105243
93612.7
84082.6
76615.9
71636.3
67707.8
62790.6
60133.9
58097.1
55445
53730.1
48449.2
40146.2
49985.8
33837.4
26934.3
27982.6
28976.5
28917.1
24953.8
24588.2
40163.8
42090.6
39790.2
37737.8
35498
33597.6
32409.9
31247.9
30517.2
30444.2
30920.4
31833.2
32742.1
33736
34525.7
35130.6
35677.5
36254.1
36675.3
36978.1
37314.7
37697
150230
149742
149878
149900
147681
146304
149757
148856
136979
187158
194829
189368
178317
163091
145653
128217
112536
99306.4
88595.4
80071.5
73536.7
68844.1
65381.5
61758.9
59280.1
57479.3
55977
54441.8
52988.3
52617.8
51095.9
49101.3
48176.3
47740.3
46855.8
45598.4
43093.7
41381.7
40893.5
40106.9
38681.4
36633.4
34506.2
32900.5
31260.1
25572.5
21957.6
23453.7
27909.7
31395.9
32485.6
33722.3
34462.4
34989.7
35661.8
36343.7
36697.3
36934.4
37206
37540.3
149077
149979
149713
145735
146108
147790
145907
127384
126522
181275
184872
179781
168668
153238
135813
118820
103953
91834.8
82352.6
75061.1
69587.2
65605.3
62705
60046.2
58045
56546.7
55309.4
54113.5
53009.9
52306.1
51189.2
49769.8
48759.2
48015.3
47039.9
45796.6
43980.1
42293
41135.6
39724.9
37694.5
35509.9
31847.8
3301.01
12.0607
13.7028
6.14872
6.33996
18.6712
363.584
3717.83
28800.4
32038.6
33185.8
35459.3
36618
36787.2
36883.3
37061.8
37266.7
148092
149957
149470
149275
148772
144161
145478
112053
114630
176595
174740
168937
157288
141274
123528
106902
93072.7
82418.8
74558.9
68827.5
64683.7
61718.2
59604
57841.3
56458.2
55392.8
54500
53636.9
52801.4
52116.1
51237.4
50129.6
49204
48371.8
47276.9
45994
44595.4
43004.8
41619
39921.7
31475
11.9966
11.6203
16.3412
11.5239
9.25128
5.23958
2.57131
-2.37084
-8.4541
-12.884
-13.252
6.89627
305.399
1388.28
4116.07
5805.02
6157.64
6265.91
4392.68
148290
150157
148100
148830
148149
141838
145068
96616.4
124702
166095
164416
157305
144474
127228
108681
92369.3
79878.7
71011.6
65170.9
61339.4
58816.1
57125.4
55996.4
55151.4
54484.4
53952
53472.1
52962.3
52406.4
51843.6
51163.4
50257.9
49505.5
48758.9
47612.5
46250.3
45590.1
40455.1
12438.9
-16.2881
15.6178
9.51837
9.24882
12.7269
10.9553
8.23151
4.81317
1.6787
-2.5043
-7.30333
-10.46
-12.6245
-17.4684
-18.7356
-17.1601
-17.227
-17.5059
-17.6766
-18.0793
-19.0563
151323
142825
137142
136615
147586
147124
126239
94297.1
136278
159768
154434
145323
130508
111233
91330.4
74591.1
63218.7
55068.4
48244.3
43677.4
41763.3
41993.3
43413.2
45550.5
47351.8
48604.8
49504.3
49734.1
49469.3
48852.7
47769.9
45029.8
39153
29637.2
13330.5
-9.77321
-10.5431
12.1768
12.2039
6.63627
9.69884
8.34593
8.53655
10.4727
9.56732
7.15214
4.14364
0.893151
-2.96068
-7.13709
-10.517
-13.06
-16.2878
-18.1553
-18.0438
-18.0698
-18.3286
-18.548
-18.8116
-19.1602
152379
151283
150747
135679
138922
146838
106605
93634.1
144388
153007
145123
133464
115924
93770.9
70273.2
25711.5
63.3646
40.8514
25.9954
16.4572
9.37102
3.75723
-0.841916
-3.71492
-5.05628
-5.66729
-6.00318
-5.86984
-5.97555
-7.52164
-8.1581
13.5944
6.64126
2.94069
2.89753
12.8628
6.63371
9.48158
7.82445
6.87875
8.34711
8.4472
8.35079
9.02276
8.30733
6.26796
3.50704
0.327286
-3.24772
-7.00489
-10.2522
-12.9137
-15.6008
-17.3885
-17.8159
-17.9463
-18.0918
-18.1801
-18.1777
-17.9649
153135
151747
151165
150521
148922
146227
99541.8
89715.1
148306
146168
136675
122288
101732
72391.5
45.119
55.6307
43.9983
31.3145
21.4842
13.7596
8.01688
3.94864
1.09957
-0.734686
-1.71127
-2.0426
-1.98133
-1.65111
-1.19513
-0.84224
-0.442476
3.89947
4.19381
2.44971
2.46092
6.91078
5.89799
7.55927
7.25085
7.23029
7.78206
8.02437
7.96385
8.02646
7.23036
5.43286
2.87798
-0.127777
-3.44043
-6.85154
-9.93036
-12.5696
-14.9626
-16.6487
-17.3742
-17.6393
-17.7359
-17.6914
-17.4169
-16.7432
153951
152374
151640
150729
149141
112371
106130
83911.9
154343
141745
129608
112567
87868.2
1332.45
51.5515
44.9615
31.1126
20.2686
12.2165
6.21867
1.96667
-0.968075
-2.94863
-4.09684
-4.51878
-4.41696
-3.99432
-3.38294
-2.72575
-2.20705
-1.6817
0.992843
3.04695
2.78247
2.83046
5.14039
5.52214
6.39116
6.615
6.88486
7.29242
7.54218
7.44535
7.18369
6.31426
4.64221
2.27588
-0.515238
-3.56317
-6.66952
-9.55887
-12.1052
-14.3132
-15.9268
-16.8061
-17.1821
-17.2719
-17.1151
-16.6061
-15.5785
154916
152668
140053
151467
144642
91606.4
78400.3
81484
151650
138810
124151
104719
34906.8
40.9027
41.3994
28.3794
17.9088
10.0378
4.02889
-0.324955
-3.21566
-5.09523
-6.23335
-6.71888
-6.64401
-6.16432
-5.43183
-4.56468
-3.69093
-2.9497
-2.23377
-0.483524
1.6011
2.29975
2.63029
3.93371
4.70218
5.48199
5.98607
6.39072
6.80278
6.98483
6.85344
6.44482
5.511
3.9085
1.72618
-0.830159
-3.60988
-6.45001
-9.15137
-11.5755
-13.6404
-15.1996
-16.1575
-16.6142
-16.7164
-16.4815
-15.8077
-14.5506
156071
142839
144360
148391
88506.7
131497
71700.1
105940
148129
136399
120345
98109.5
676.882
34.3952
25.7578
15.2966
7.52947
1.64863
-2.78869
-5.79382
-7.62084
-8.69546
-9.17095
-9.11161
-8.61408
-7.80852
-6.81798
-5.73757
-4.68609
-3.76243
-2.88092
-1.46519
0.346611
1.46237
2.13385
3.08104
3.94455
4.74788
5.34923
5.87011
6.27859
6.41485
6.25447
5.74212
4.75545
3.23133
1.24235
-1.07606
-3.60347
-6.20425
-8.71813
-11.0036
-12.9559
-14.4647
-15.457
-15.9748
-16.1007
-15.8264
-15.0639
-13.6903
157167
136123
155183
142858
147090
153530
64349
129284
148715
135037
118178
87760.9
37.9755
23.886
14.3712
6.20774
0.262511
-4.40837
-7.78583
-9.83091
-10.9729
-11.5178
-11.5307
-11.0755
-10.2633
-9.21332
-8.022
-6.77925
-5.58463
-4.50477
-3.47554
-2.19276
-0.649017
0.612936
1.50813
2.39209
3.28781
4.09757
4.77655
5.34933
5.71895
5.80683
5.58943
5.01892
4.04053
2.62823
0.829721
-1.2684
-3.56799
-5.95531
-8.28931
-10.4319
-12.2777
-13.7323
-14.735
-15.2982
-15.4544
-15.1783
-14.3952
-12.9961
157515
135953
156337
155795
155515
146955
65874.9
143824
148901
134666
117376
31259.6
20.896
16.0629
6.76417
0.710712
-4.26339
-8.24031
-10.8524
-12.3642
-13.1803
-13.4454
-13.1947
-12.5121
-11.5147
-10.3107
-8.99037
-7.6389
-6.33578
-5.13436
-4.00257
-2.77595
-1.39518
-0.128046
0.879312
1.80175
2.70551
3.52551
4.22589
4.76935
5.08445
5.13228
4.8875
4.31793
3.39049
2.09452
0.46262
-1.44245
-3.54025
-5.73066
-7.88772
-9.88421
-11.6207
-13.0151
-14.0145
-14.6118
-14.805
-14.5589
-13.8071
-12.4504
151289
153903
157336
157038
157227
125045
61228.6
152244
148070
135024
117287
6565.27
21.1054
9.32349
2.58962
-2.47466
-6.81015
-10.0503
-12.1722
-13.5108
-14.2571
-14.4451
-14.1158
-13.3653
-12.3073
-11.0446
-9.66964
-8.26486
-6.90216
-5.62868
-4.43452
-3.22514
-1.95112
-0.737755
0.313084
1.26801
2.16786
2.97199
3.64152
4.1407
4.42419
4.45549
4.20996
3.6657
2.80054
1.60874
0.117899
-1.62034
-3.53722
-5.54256
-7.52626
-9.3749
-10.9986
-12.3276
-13.315
-13.9378
-14.173
-13.98
-13.2956
-12.0264
159459
158601
158152
158068
157726
97618.3
50338.8
159535
148799
136249
118472
121.429
11.784
5.71246
0.205135
-4.11713
-7.63116
-10.2502
-12.1636
-13.5225
-14.3362
-14.588
-14.3208
-13.6264
-12.6123
-11.3791
-10.0218
-8.62411
-7.25627
-5.96211
-4.74564
-3.55974
-2.3681
-1.21872
-0.171135
0.785049
1.66121
2.42978
3.05825
3.5194
3.77979
3.80187
3.56561
3.0538
2.2483
1.14758
-0.220371
-1.80855
-3.55702
-5.38595
-7.20028
-8.90268
-10.4149
-11.6774
-12.6452
-13.2873
-13.5688
-13.4434
-12.8482
-11.6951
159918
159053
158703
153835
159503
101110
41415.2
161056
150505
138257
120671
42.5522
10.2105
3.7279
-1.02315
-4.4782
-7.23589
-9.46833
-11.3051
-12.727
-13.6457
-14.0231
-13.8918
-13.3303
-12.4354
-11.3036
-10.0304
-8.69999
-7.38101
-6.11782
-4.92491
-3.78021
-2.66018
-1.57793
-0.565686
0.360412
1.19321
1.91321
2.49585
2.92035
3.15627
3.16941
2.94201
2.4601
1.70976
0.694417
-0.556982
-2.00192
-3.58936
-5.24967
-6.90218
-8.46427
-9.86886
-11.0637
-12.007
-12.664
-12.993
-12.9427
-12.4491
-11.4272
109167
159603
127040
159824
159896
107926
36232.7
160955
152405
140998
91577.7
10.8017
8.87951
2.26308
-1.39808
-4.08119
-6.29396
-8.26916
-10.0329
-11.4665
-12.4511
-12.9403
-12.9537
-12.5535
-11.8198
-10.84
-9.70566
-8.49653
-7.27768
-6.09328
-4.96468
-3.8853
-2.84108
-1.83349
-0.883026
-0.0141494
0.759301
1.42177
1.95407
2.3376
2.54531
2.54582
2.32477
1.87201
1.17717
0.246726
-0.890605
-2.19758
-3.63108
-5.13138
-6.6303
-8.05838
-9.35799
-10.484
-11.3991
-12.0663
-12.4407
-12.4675
-12.0802
-11.1961
106148
158488
141312
160725
159685
61904.6
41543
158896
154300
144316
63797.1
-0.00364275
6.02753
1.45778
-1.31253
-3.43083
-5.27972
-7.05369
-8.6981
-10.0608
-11.0299
-11.57
-11.6923
-11.4395
-10.875
-10.0713
-9.10931
-8.0596
-6.98113
-5.91478
-4.88464
-3.89342
-2.93637
-2.01483
-1.1451
-0.351471
0.351712
0.950095
1.42712
1.76566
1.94231
1.92968
1.71594
1.29386
0.655008
-0.191802
-1.21923
-2.39526
-3.68367
-5.03351
-6.38696
-7.68694
-8.88364
-9.93918
-10.8209
-11.4914
-11.9052
-12.0052
-11.7238
-10.9801
134853
161198
162065
162008
160929
26611.9
76981.5
161094
156827
148244
39355.1
9.14522
4.23834
1.07966
-1.12192
-2.84615
-4.44453
-6.04009
-7.53027
-8.77419
-9.68557
-10.2372
-10.4363
-10.3111
-9.90475
-9.27391
-8.48531
-7.59798
-6.66277
-5.71721
-4.78821
-3.88543
-3.01226
-2.1742
-1.38563
-0.669533
-0.038503
0.494537
0.915119
1.20852
1.35473
1.33018
1.12521
0.734625
0.151129
-0.615186
-1.53901
-2.59263
-3.74597
-4.95593
-6.17326
-7.35143
-8.44737
-9.42966
-10.2708
-10.9349
-11.3773
-11.542
-11.3632
-10.7618
165065
164226
101017
163432
162642
16707.8
96282.5
165787
160436
152826
19254.1
13.0696
3.42634
0.710265
-1.02369
-2.44175
-3.84033
-5.25473
-6.56952
-7.66809
-8.50693
-9.06561
-9.32978
-9.31606
-9.05212
-8.58025
-7.95261
-7.2161
-6.41542
-5.58562
-4.75461
-3.9365
-3.13969
-2.37347
-1.65262
-0.999925
-0.426584
0.0531909
0.425568
0.67915
0.797539
0.762025
0.565641
0.205233
-0.325322
-1.01544
-1.84276
-2.7839
-3.81342
-4.89486
-5.98657
-7.04971
-8.04733
-8.95349
-9.74577
-10.391
-10.8475
-11.0641
-10.9825
-10.5294
144235
150473
89602
164777
88106.8
10814
111264
168888
164596
158086
7754.09
12.6187
2.41323
0.324208
-1.00825
-2.18974
-3.39868
-4.61182
-5.74362
-6.71353
-7.49524
-8.04716
-8.3551
-8.42534
-8.27284
-7.9312
-7.43986
-6.83553
-6.15791
-5.43855
-4.70537
-3.97501
-3.25822
-2.5679
-1.91829
-1.32991
-0.812445
-0.378991
-0.0440487
0.182031
0.284322
0.245795
0.0602742
-0.2728
-0.756975
-1.37984
-2.12066
-2.96064
-3.87845
-4.84348
-5.82037
-6.77596
-7.67835
-8.50602
-9.24107
-9.85382
-10.3073
-10.5591
-10.5661
-10.2722
87222.1
111146
144842
166509
102073
11377
127469
171197
169005
163959
2300.85
4.69221
1.12052
-0.0174842
-1.03264
-2.04039
-3.06125
-4.10143
-5.06911
-5.93536
-6.64709
-7.17593
-7.50368
-7.62914
-7.56113
-7.32441
-6.94686
-6.45771
-5.89072
-5.27335
-4.63329
-3.9875
-3.34778
-2.72954
-2.14754
-1.6208
-1.15752
-0.769897
-0.472497
-0.273189
-0.184204
-0.220936
-0.38982
-0.690997
-1.1272
-1.68706
-2.3524
-3.10638
-3.92809
-4.79106
-5.66492
-6.52152
-7.33293
-8.08124
-8.75204
-9.31926
-9.75191
-10.0178
-10.0953
-9.97487
159687
169823
168286
61972.1
168924
7422.59
150292
174538
173794
170395
235.104
-2.117
0.214519
-0.360481
-1.13465
-1.98009
-2.83475
-3.71339
-4.54102
-5.29702
-5.93753
-6.43227
-6.76168
-6.9225
-6.9169
-6.76317
-6.48008
-6.08979
-5.62033
-5.09622
-4.54311
-3.97681
-3.41074
-2.86096
-2.34295
-1.87447
-1.46135
-1.11614
-0.852954
-0.677247
-0.599942
-0.63489
-0.787864
-1.05762
-1.44605
-1.94449
-2.53773
-3.2107
-3.94539
-4.71981
-5.50539
-6.27446
-7.00176
-7.67259
-8.2751
-8.78687
-9.18258
-9.43739
-9.54581
-9.58826
173111
161230
43281.4
43808.8
162633
5795.26
166609
178137
179251
177389
-2.92607
-1.37153
-0.447651
-0.826227
-1.37372
-2.01003
-2.71289
-3.42934
-4.13192
-4.78187
-5.3477
-5.79958
-6.11945
-6.3
-6.33927
-6.25024
-6.04316
-5.7366
-5.35285
-4.91261
-4.43889
-3.94611
-3.4493
-2.96433
-2.50657
-2.09256
-1.72648
-1.42085
-1.18907
-1.03439
-0.966857
-0.999407
-1.13693
-1.37736
-1.72237
-2.1647
-2.6901
-3.28629
-3.9393
-4.6296
-5.33174
-6.02168
-6.67475
-7.27434
-7.80894
-8.26036
-8.60868
-8.83057
-8.90954
-8.85283
166789
172747
173638
172247
154169
-4794.84
183616
183951
185675
185014
-1.17224
-0.603779
-1.10981
-1.38026
-1.70866
-2.11998
-2.66519
-3.23547
-3.81432
-4.36582
-4.8577
-5.2651
-5.56807
-5.75528
-5.82552
-5.78532
-5.63897
-5.40283
-5.09297
-4.72696
-4.32519
-3.89995
-3.46714
-3.04253
-2.64074
-2.27679
-1.9543
-1.68553
-1.48265
-1.34732
-1.28881
-1.31915
-1.44211
-1.65531
-1.96062
-2.35186
-2.81659
-3.34425
-3.92186
-4.53305
-5.15722
-5.77108
-6.35112
-6.88354
-7.35521
-7.74837
-8.04781
-8.23215
-8.274
-8.13509
-18574.7
-6852.22
41031.2
59653.9
-17442.5
-16019.9
190052
191050
192662
175691
-2.15619
-1.26139
-1.77848
-1.89735
-2.04943
-2.28969
-2.67235
-3.11179
-3.57555
-4.03341
-4.45421
-4.81565
-5.09426
-5.28104
-5.37202
-5.36661
-5.26826
-5.0904
-4.84344
-4.54308
-4.20552
-3.84187
-3.46791
-3.09887
-2.7487
-2.43027
-2.14727
-1.91214
-1.73546
-1.61774
-1.56821
-1.59718
-1.70709
-1.89582
-2.16507
-2.5097
-2.91976
-3.38634
-3.89724
-4.43852
-4.99066
-5.53283
-6.04635
-6.51513
-6.92487
-7.26348
-7.52019
-7.67798
-7.71864
-7.6464
-18350.8
-18643.4
-18604.4
-18525.5
-18141.1
-8598.03
191511
197694
200042
138588
-15.9284
-3.08544
-2.40141
-2.31195
-2.34426
-2.47372
-2.71387
-3.03293
-3.39668
-3.76882
-4.12405
-4.4375
-4.68981
-4.87135
-4.97211
-4.9908
-4.93002
-4.79989
-4.6064
-4.36313
-4.08201
-3.77386
-3.45393
-3.13607
-2.83328
-2.55608
-2.30881
-2.10414
-1.95057
-1.84862
-1.80743
-1.83557
-1.93398
-2.10123
-2.3388
-2.64224
-3.00322
-3.41465
-3.866
-4.34514
-4.83326
-5.31105
-5.76308
-6.17589
-6.53718
-6.83214
-7.05312
-7.19506
-7.25343
-7.24717
-17894.4
-18648.6
-18631.2
-18577.9
-18461
86277.3
197695
204524
207849
97957.7
-12.4591
-3.66419
-2.83314
-2.62716
-2.57765
-2.62866
-2.76749
-2.98831
-3.26341
-3.55896
-3.8542
-4.12181
-4.34825
-4.51759
-4.6198
-4.65514
-4.62382
-4.53227
-4.38286
-4.18842
-3.95685
-3.69777
-3.42677
-3.15564
-2.896
-2.65643
-2.44194
-2.26526
-2.13233
-2.04411
-2.01021
-2.037
-2.12506
-2.27345
-2.48383
-2.75175
-3.06944
-3.43165
-3.8294
-4.25226
-4.6828
-5.10317
-5.5013
-5.86525
-6.18426
-6.44666
-6.64687
-6.78024
-6.8446
-6.85274
-18646.1
-18673.6
-18662.2
-18629.1
-18450.8
165555
206414
212502
216253
55201.4
-0.768941
-3.71543
-3.10107
-2.89722
-2.76464
-2.75238
-2.82166
-2.96539
-3.16501
-3.39645
-3.63531
-3.86119
-4.05934
-4.21061
-4.31188
-4.35828
-4.34841
-4.28662
-4.17418
-4.02148
-3.83218
-3.61614
-3.38884
-3.15947
-2.93834
-2.73288
-2.54871
-2.3978
-2.28377
-2.20795
-2.18057
-2.20556
-2.28383
-2.41541
-2.602
-2.83893
-3.1188
-3.43802
-3.78812
-4.16034
-4.53864
-4.90747
-5.25832
-5.58027
-5.86362
-6.09903
-6.28104
-6.40628
-6.47365
-6.49196
-18697.5
-18692.8
-18647.9
-18605.7
-18777.4
209643
216117
221529
225460
18219.7
2.63741
-3.82068
-3.32401
-3.11209
-2.92741
-2.85876
-2.86844
-2.95244
-3.09156
-3.26704
-3.4569
-3.64431
-3.81175
-3.94684
-4.04425
-4.09498
-4.10108
-4.06273
-3.98157
-3.86321
-3.70938
-3.53194
-3.34282
-3.15018
-2.96318
-2.78791
-2.63095
-2.50332
-2.40617
-2.34221
-2.32123
-2.34482
-2.41424
-2.53097
-2.69629
-2.90516
-3.15135
-3.43287
-3.74138
-4.06907
-4.40081
-4.72367
-5.03234
-5.31732
-5.57017
-5.78274
-5.94864
-6.06498
-6.13146
-6.15476
-18698.2
-18697.5
-18560.8
-18682.7
10519.8
220770
226469
231199
235154
1655.78
-6.00058
-4.03992
-3.43673
-3.23981
-3.04868
-2.93859
-2.9064
-2.94297
-3.03369
-3.16288
-3.30961
-3.46137
-3.6008
-3.72062
-3.80961
-3.86189
-3.88018
-3.85984
-3.80337
-3.7127
-3.58956
-3.44623
-3.29
-3.12967
-2.97315
-2.8246
-2.69207
-2.58458
-2.5018
-2.44874
-2.43408
-2.45684
-2.51916
-2.62351
-2.77011
-2.95335
-3.1688
-3.41617
-3.68817
-3.97682
-4.26805
-4.55093
-4.82213
-5.07397
-5.29939
-5.49133
-5.64276
-5.75037
-5.8141
-5.83913
-18694.6
-18697.2
-18672.6
-18634.8
191021
232254
237181
241418
245369
-6.39853
-5.75322
-3.78045
-3.47026
-3.28008
-3.10308
-2.98203
-2.92456
-2.92827
-2.98335
-3.0732
-3.18502
-3.30577
-3.42134
-3.52515
-3.60405
-3.65785
-3.68322
-3.67512
-3.63797
-3.57019
-3.4733
-3.3587
-3.23095
-3.0991
-2.96935
-2.84501
-2.73493
-2.64461
-2.57427
-2.53116
-2.52199
-2.54378
-2.60036
-2.69455
-2.82498
-2.98573
-3.17355
-3.38973
-3.62865
-3.8821
-4.13804
-4.38698
-4.62601
-4.84842
-5.04819
-5.22015
-5.35783
-5.45742
-5.51849
-5.54444
-18230.1
-18570.9
-18680.1
-18878
238995
243780
248184
251885
181512
-19.3953
-4.4318
-3.71809
-3.43388
-3.24933
-3.10329
-2.98523
-2.91498
-2.90022
-2.93058
-2.9929
-3.07778
-3.17155
-3.26693
-3.35469
-3.42559
-3.47846
-3.50547
-3.5076
-3.48577
-3.43532
-3.36074
-3.2706
-3.16677
-3.0593
-2.95272
-2.85013
-2.76019
-2.68489
-2.62607
-2.59264
-2.58803
-2.60846
-2.65976
-2.74505
-2.86127
-3.00266
-3.16662
-3.35548
-3.56416
-3.78521
-4.00972
-4.22959
-4.44145
-4.63839
-4.81456
-4.96685
-5.09061
-5.18243
-5.24133
-5.26844
-18286.3
-18684.6
-18687
213447
251257
255484
259430
262687
68238.4
-4.13383
-4.08143
-3.46026
-3.2928
-3.16811
-3.05132
-2.94314
-2.87624
-2.85645
-2.87385
-2.91817
-2.98128
-3.0549
-3.13274
-3.20592
-3.26898
-3.31727
-3.34542
-3.35638
-3.34434
-3.30812
-3.2539
-3.18335
-3.09911
-3.01258
-2.92564
-2.84206
-2.76905
-2.70635
-2.6585
-2.63464
-2.63414
-2.65358
-2.70048
-2.77734
-2.87999
-3.00377
-3.14745
-3.3133
-3.49546
-3.68771
-3.88404
-4.07772
-4.26564
-4.44044
-4.59596
-4.73012
-4.8401
-4.92377
-4.97988
-5.00755
-18775.4
-18706.9
97513
259901
263699
267471
270838
273832
2310.06
-4.79293
-4.01253
-3.26832
-3.12156
-3.04002
-2.94724
-2.86116
-2.81018
-2.79727
-2.811
-2.84408
-2.89222
-2.95039
-3.01311
-3.07399
-3.1286
-3.17177
-3.20139
-3.21652
-3.21134
-3.18989
-3.15198
-3.09574
-3.02936
-2.96115
-2.89045
-2.82317
-2.76381
-2.71145
-2.67382
-2.65829
-2.66113
-2.68045
-2.72459
-2.79384
-2.88335
-2.99042
-3.11621
-3.26231
-3.42201
-3.59023
-3.76198
-3.93151
-4.09685
-4.25126
-4.38909
-4.50807
-4.60585
-4.68104
-4.73245
-4.75862
53622.4
83219.4
270412
273395
276736
279901
282487
267808
-13.665
-4.42749
-3.59417
-3.15372
-2.96808
-2.89123
-2.81643
-2.75725
-2.73136
-2.73011
-2.74421
-2.77079
-2.80861
-2.85428
-2.905
-2.95565
-3.00251
-3.04118
-3.06995
-3.08618
-3.08918
-3.07981
-3.05166
-3.00845
-2.9588
-2.90495
-2.84818
-2.79523
-2.74662
-2.70346
-2.67538
-2.66598
-2.67034
-2.69011
-2.73275
-2.79543
-2.87309
-2.96514
-3.07506
-3.20339
-3.3434
-3.49147
-3.64238
-3.7905
-3.93437
-4.06928
-4.1913
-4.29777
-4.38566
-4.45272
-4.49751
-4.51974
424611
424787
424751
424692
424607
424491
424335
424129
423860
423508
423047
422439
421631
420547
419070
417012
414049
409547
402035
388118
424248
424409
424369
424304
424210
424081
423910
423685
423392
423010
422510
421851
420975
419796
418180
415909
412597
407484
399004
383820
423913
424058
424015
423945
423844
423706
423523
423284
422974
422572
422048
421363
420457
419245
417600
415323
412092
407368
400263
389273
423608
423738
423692
423618
423511
423366
423176
422928
422608
422197
421666
420977
420077
418890
417309
415180
412277
408269
402677
394918
423336
423448
423401
423324
423214
423065
422870
422619
422297
421885
421360
420686
419819
418696
417234
415322
412811
409507
405173
399628
423097
423192
423144
423066
422954
422803
422607
422356
422037
421633
421123
420477
419660
418621
417299
415616
413479
410777
407400
403279
422890
422969
422920
422842
422730
422580
422386
422138
421826
421435
420946
420336
419575
418625
417441
415972
414157
411934
409249
406077
422717
422780
422732
422654
422543
422396
422205
421963
421661
421285
420821
420249
419544
418679
417621
416334
414782
412930
410748
408227
422577
422624
422577
422501
422393
422248
422063
421829
421538
421180
420741
420205
419553
418763
417811
416675
415332
413762
411951
409890
422469
422500
422456
422382
422277
422137
421958
421732
421454
421114
420699
420198
419593
418866
418000
416982
415801
414449
412916
411192
422389
422409
422368
422298
422197
422062
421888
421672
421406
421083
420693
420224
419659
418983
418180
417249
416192
415014
413708
412251
422330
422348
422314
422248
422150
422019
421852
421644
421390
421084
420718
420282
419757
419120
418360
417491
416542
415530
414446
413244
422255
422320
422293
422230
422137
422011
421849
421650
421408
421117
420777
420385
419914
419281
415640
403846
381557
346988
298089
215063
-0.550922
80823.9
78660.3
73240.2
66429.1
58336.7
49390.3
39686.1
29391.3
18943.4
8963.24
6.21371
-3.54937
-1.71692
-1.53227
-1.62208
-1.57057
-0.360824
1.13789
1.04647
-0.292816
0.0641995
0.00081802
-0.00558227
0.00570409
0.0121622
0.0104739
0.00102352
-0.0129305
-0.0217983
-0.00359544
-0.0528032
-0.0307936
-0.315045
-0.41285
-0.436774
-0.371672
-0.236991
-0.133765
-0.0393489
-0.127284
0.0451322
0.00145091
-0.00702284
-0.00154197
0.00220039
0.00031168
-0.00759956
-0.0191579
-0.0141089
0.00728305
0.0425719
0.000261607
-0.0718722
-0.119545
-0.1523
-0.173071
-0.187963
-0.17645
-0.168179
-0.0640607
-0.0172504
-0.013609
-0.0162744
-0.0147552
-0.0130046
-0.0139033
-0.0180077
-0.0252286
-0.031622
-0.0320727
-0.0250666
-0.0361039
-0.0669863
-0.0980556
-0.127262
-0.153853
-0.176383
-0.183582
-0.189634
-0.0475513
-0.0340852
-0.0289786
-0.0267365
-0.0254036
-0.0246682
-0.0258249
-0.028888
-0.0333045
-0.0382553
-0.0425311
-0.0451817
-0.0537349
-0.0715605
-0.0934036
-0.116313
-0.139019
-0.160397
-0.178534
-0.196675
-0.0445904
-0.0402301
-0.0372048
-0.035058
-0.0341932
-0.0342451
-0.0356187
-0.038298
-0.0420139
-0.0464381
-0.0513675
-0.0571698
-0.0659321
-0.0790767
-0.0956592
-0.114493
-0.134638
-0.155184
-0.175488
-0.196359
-0.04733
-0.0441158
-0.0425813
-0.041827
-0.0419369
-0.0428236
-0.0446201
-0.0473605
-0.0510288
-0.0555688
-0.060964
-0.0675381
-0.0761741
-0.0875763
-0.101645
-0.117913
-0.135841
-0.154792
-0.174393
-0.194985
-0.0525145
-0.0484603
-0.0476724
-0.0479085
-0.0488422
-0.0505193
-0.0529078
-0.0559708
-0.0597698
-0.0644006
-0.0699362
-0.0765512
-0.0846973
-0.09488
-0.107275
-0.121743
-0.137947
-0.155402
-0.173836
-0.193489
-0.056061
-0.0525197
-0.0523216
-0.053328
-0.0550463
-0.0574949
-0.060564
-0.0641015
-0.0680539
-0.072562
-0.0778851
-0.084254
-0.0918984
-0.101154
-0.112328
-0.125433
-0.140187
-0.15628
-0.173574
-0.192212
-0.0500926
-0.0538833
-0.0559417
-0.0583626
-0.0610514
-0.0641518
-0.0677005
-0.071583
-0.0756238
-0.0799138
-0.0848748
-0.0909144
-0.0981739
-0.106785
-0.117056
-0.129081
-0.142598
-0.15743
-0.173626
-0.191268
-0.0256303
-0.0518497
-0.0594179
-0.0640372
-0.067676
-0.0710565
-0.07455
-0.0782727
-0.0821806
-0.0863609
-0.0911538
-0.0969279
-0.103819
-0.111888
-0.121361
-0.132375
-0.14479
-0.158539
-0.173738
-0.190443
334608
333512
332623
333263
337175
343360
350607
357595
363176
366549
367201
364810
358857
347910
327417
353833
337486
332686
332858
336242
341807
348507
355028
360229
363316
363805
361407
355762
346228
332302
373248
354015
342911
339048
340190
344442
350070
355632
359986
362421
362583
360324
355577
348381
339203
385160
372861
362676
356411
354112
354856
357468
360458
362784
363831
363287
361044
357130
351739
345352
392799
384730
377317
371660
368155
366616
366490
366925
367207
366848
365556
363201
359802
355539
350785
398333
392540
386937
382140
378461
375940
374298
373141
372041
370657
368759
366238
363109
359499
355628
402354
397981
393583
389511
385994
383102
380733
378697
376756
374699
372374
369696
366649
363296
359834
405310
401874
398316
394836
391598
388656
385992
383524
381133
378691
376065
373163
370025
324086
35551.4
407525
404728
401771
398777
395837
393015
390326
387725
385111
382367
379465
322522
33205.7
-3.14032
1.36986
409218
406870
404368
401780
399164
396557
393929
391245
388459
291053
8284.97
0.0412119
1.31309
-1.65388
-0.911966
410585
408604
406479
404198
401824
399289
364081
173736
-10.7094
6.30991
-0.713408
-1.67367
-0.841683
-0.92243
-0.956317
411801
410007
403911
342190
173386
3.69751
-4.07006
1.97663
-1.34798
-1.04858
-0.725717
-0.824474
-0.879418
-0.919081
-0.943809
104130
2509.33
-11.7475
1.9286
1.97037
0.000741708
-1.31263
-0.470655
-0.635587
-0.707754
-0.763147
-0.808318
-0.844057
-0.884449
-0.919519
0.892694
-0.302243
-1.03719
-0.657866
-0.279991
-0.456077
-0.55526
-0.590911
-0.648262
-0.686229
-0.728827
-0.776256
-0.816062
-0.854946
-0.892686
-0.0779857
-0.234798
-0.325615
-0.38018
-0.418965
-0.479153
-0.5229
-0.564183
-0.614191
-0.658203
-0.701252
-0.745021
-0.786313
-0.825777
-0.864866
-0.202406
-0.260411
-0.30305
-0.358398
-0.409077
-0.450992
-0.498809
-0.542633
-0.586867
-0.630021
-0.672337
-0.714818
-0.756731
-0.797482
-0.837612
-0.209157
-0.252359
-0.298544
-0.343015
-0.389704
-0.432659
-0.476392
-0.519293
-0.561548
-0.603556
-0.645075
-0.686785
-0.728756
-0.770267
-0.811148
-0.219764
-0.253307
-0.29159
-0.331131
-0.372551
-0.414085
-0.455586
-0.49713
-0.538412
-0.579556
-0.620456
-0.661404
-0.702757
-0.744168
-0.785361
-0.220069
-0.24994
-0.283723
-0.319991
-0.357845
-0.396671
-0.436259