/*--------------------------------*- C++ -*----------------------------------*\
| =========                 |                                                 |
| \\      /  F ield         | OpenFOAM: The Open Source CFD Toolbox           |
|  \\    /   O peration     | Version:  v1912                                 |
|   \\  /    A nd           | Website:  www.openfoam.com                      |
|    \\/     M anipulation  |                                                 |
\*---------------------------------------------------------------------------*/
FoamFile
{
    version     2.0;
    format      ascii;
    class       surfaceScalarField;
    location    "50";
    object      phi;
}
// * * * * * * * * * * * * * * * * * * * * * * * * * * * * * * * * * * * * * //

dimensions      [0 3 -1 0 0 0 0];
oriented        oriented;


internalField   nonuniform List<scalar> 
40282
(
0.00276322
0.00264333
1.92104
-1.92761
1.92196
0.00564821
-1.91289
1.90071
0.0121753
-1.88559
1.86751
0.0180775
-1.84653
1.82264
0.0238844
-1.79596
1.76652
0.0294413
-1.73444
1.69975
0.0346822
-1.66257
1.6229
0.039664
-1.58083
1.53637
0.0444624
-1.4896
1.44059
0.0490131
-1.38945
1.33623
0.0532233
-1.281
1.22382
0.0571778
-1.16475
1.10393
0.0608183
-1.04143
0.977361
0.064069
-0.911704
0.844625
0.0670786
-0.775976
0.706013
0.0699631
-0.634304
0.561225
0.0730793
-0.4859
0.409067
0.0768327
-0.328539
0.246469
0.08207
-0.157509
0.0705908
0.0869185
-0.00423914
0.00560926
1.85606
-1.85153
1.84455
-0.0141029
0.0210791
-1.83486
1.82242
-0.0256639
0.0381008
-1.80723
1.78929
-0.03699
0.0549276
-1.76862
1.74523
-0.0480326
0.0714182
-1.71918
1.6905
-0.0588087
0.087483
-1.65926
1.6255
-0.0692801
0.103037
-1.58927
1.55062
-0.0793563
0.11801
-1.50959
1.46623
-0.0889793
0.132335
-1.42061
1.37278
-0.0981355
0.145964
-1.3228
1.27072
-0.106776
0.158853
-1.21661
1.16051
-0.114851
0.170947
-1.10249
1.04261
-0.122323
0.182208
-0.980915
0.917482
-0.129121
0.192554
-0.852396
0.785741
-0.135215
0.201869
-0.71764
0.648192
-0.140633
0.210081
-0.57756
0.505863
-0.145527
0.217224
-0.433366
0.360311
-0.150565
0.22362
-0.287081
0.214044
-0.157214
0.230251
-0.141601
0.0756913
-0.170549
0.236459
-0.00701584
0.00836878
1.78953
-1.78536
1.77855
-0.0282182
0.0350288
-1.76908
1.75696
-0.0507503
0.0628695
-1.7422
1.72481
-0.0729982
0.0903848
-1.70483
1.68227
-0.0948374
0.117393
-1.65717
1.62955
-0.116146
0.143765
-1.59944
1.56688
-0.136795
0.16936
-1.5319
1.49456
-0.156674
0.194017
-1.4549
1.413
-0.175695
0.217595
-1.36892
1.32271
-0.193773
0.239984
-1.27444
1.2242
-0.210853
0.261095
-1.17205
1.11807
-0.226911
0.280894
-1.06232
1.00486
-0.241909
0.299364
-0.94576
0.885061
-0.255774
0.316474
-0.822813
0.759065
-0.268352
0.3321
-0.693872
0.627298
-0.279377
0.345952
-0.55942
0.490335
-0.288529
0.357614
-0.420181
0.349153
-0.295716
0.366744
-0.277533
0.205774
-0.301742
0.373501
-0.134395
0.0652292
-0.308655
0.377821
-0.00965666
0.0109325
1.72546
-1.72159
1.71517
-0.0417654
0.0481877
-1.70618
1.69464
-0.0749004
0.0864431
-1.68056
1.66395
-0.107656
0.124258
-1.64485
1.62327
-0.139879
0.161459
-1.59923
1.57276
-0.171358
0.197833
-1.54387
1.51261
-0.201912
0.233174
-1.47901
1.44309
-0.231368
0.267279
-1.40492
1.36453
-0.259551
0.29994
-1.32198
1.27733
-0.286302
0.330953
-1.23064
1.182
-0.311485
0.360132
-1.13147
1.07915
-0.335022
0.387341
-1.02513
0.969506
-0.356895
0.412521
-0.912366
0.853796
-0.37711
0.43568
-0.793872
0.732655
-0.395617
0.456834
-0.670195
0.606531
-0.412152
0.475816
-0.541699
0.475734
-0.42612
0.492084
-0.40868
0.340603
-0.436684
0.504761
-0.271631
0.20203
-0.44354
0.513141
-0.132159
0.0635209
-0.447691
0.516329
-0.0121541
0.0133618
1.66366
-1.66
1.65391
-0.0545707
0.0606663
-1.64538
1.63444
-0.0979041
0.108846
-1.62109
1.60534
-0.14074
0.156492
-1.5872
1.56669
-0.182901
0.203413
-1.54382
1.51861
-0.22416
0.249364
-1.4911
1.46129
-0.264284
0.294092
-1.42922
1.39492
-0.303042
0.337342
-1.35842
1.31977
-0.340201
0.378853
-1.279
1.23617
-0.375515
0.418347
-1.19133
1.14453
-0.408754
0.455551
-1.09585
1.04535
-0.439719
0.490212
-0.993137
0.939286
-0.468285
0.522135
-0.883906
0.827101
-0.494423
0.551228
-0.768977
0.709633
-0.518175
0.577519
-0.649152
0.5876
-0.539473
0.601025
-0.525022
0.461444
-0.55782
0.621399
-0.396879
0.331335
-0.572105
0.637649
-0.264836
0.197465
-0.581019
0.64839
-0.129308
0.0620227
-0.584427
0.651712
-0.0145094
0.0156374
1.60419
-1.60059
1.59486
-0.0666893
0.0724135
-1.58686
1.57657
-0.119664
0.129949
-1.56401
1.54919
-0.172074
0.186899
-1.5321
1.51276
-0.223722
0.243064
-1.49117
1.46735
-0.274344
0.298164
-1.44132
1.41307
-0.323668
0.351909
-1.38265
1.35007
-0.371416
0.404
-1.31535
1.27852
-0.4173
0.454123
-1.23963
1.1987
-0.461009
0.501936
-1.15579
1.11093
-0.50223
0.547086
-1.06419
1.01562
-0.54066
0.589226
-0.965303
0.91331
-0.576038
0.62803
-0.859734
0.804675
-0.608191
0.66325
-0.748244
0.690554
-0.637104
0.694794
-0.631717
0.571834
-0.662825
0.722708
-0.510987
0.449237
-0.685112
0.746863
-0.386619
0.32315
-0.702935
0.766404
-0.258829
0.19365
-0.714432
0.779611
-0.127486
0.0622677
-0.718324
0.783543
-0.0167026
0.0177417
1.54654
-1.54351
1.5382
-0.07804
0.083353
-1.53076
1.5212
-0.140063
0.149619
-1.50953
1.49573
-0.201491
0.215291
-1.4798
1.46175
-0.262124
0.280176
-1.44157
1.41927
-0.321671
0.343973
-1.39484
1.36831
-0.379824
0.406361
-1.33966
1.30892
-0.436267
0.467006
-1.2761
1.24122
-0.490657
0.525542
-1.20429
1.16535
-0.542622
0.581562
-1.12443
1.08156
-0.591768
0.634636
-1.03679
0.990174
-0.637702
0.684322
-0.941761
0.891621
-0.680039
0.730179
-0.839831
0.786479
-0.718452
0.771803
-0.731667
0.675508
-0.75276
0.808919
-0.618123
0.559631
-0.782973
0.841465
-0.500144
0.439754
-0.809023
0.869414
-0.378527
0.316503
-0.830103
0.892127
-0.253686
0.190028
-0.84415
0.907807
-0.125222
0.0620207
-0.849197
0.912399
-0.0187146
0.0196539
1.49131
-1.48855
1.48369
-0.0885356
0.0933886
-1.4769
1.46816
-0.158947
0.16769
-1.45746
1.4448
-0.22878
0.241439
-1.43017
1.41355
-0.297849
0.314469
-1.39493
1.37431
-0.365851
0.386476
-1.35166
1.327
-0.432454
0.45712
-1.3003
1.27157
-0.497308
0.526039
-1.24081
1.20801
-0.560024
0.592822
-1.17319
1.13635
-0.620161
0.656996
-1.09752
1.05672
-0.677248
0.718049
-1.01398
0.969333
-0.730795
0.77544
-0.922829
0.874521
-0.780302
0.828611
-0.824471
0.772758
-0.825287
0.877
-0.719472
0.664719
-0.865377
0.92013
-0.608621
0.55131
-0.900422
0.957733
-0.492923
0.433586
-0.930395
0.989731
-0.373415
0.312499
-0.954711
1.01563
-0.250888
0.188554
-0.97132
1.03365
-0.12496
0.0639829
-0.977968
1.03895
-0.0205228
0.0213501
1.43795
-1.4353
1.43097
-0.0980753
0.102412
-1.42489
1.41706
-0.176141
0.183971
-1.40746
1.39608
-0.253698
0.265078
-1.3829
1.36788
-0.330601
0.345619
-1.35101
1.33226
-0.406552
0.425303
-1.3116
1.28902
-0.481207
0.503791
-1.26448
1.23797
-0.554196
0.580706
-1.20947
1.17896
-0.625087
0.655598
-1.14643
1.11187
-0.693374
0.72793
-1.07529
1.03668
-0.758501
0.797105
-0.996072
0.953475
-0.819876
0.862474
-0.90892
0.862448
-0.876874
0.923347
-0.814108
0.763964
-0.928856
0.979001
-0.712094
0.658593
-0.975237
1.02874
-0.603579
0.547185
-1.01563
1.07203
-0.489559
0.430854
-1.04991
1.10861
-0.371214
0.310773
-1.07761
1.13805
-0.249621
0.187756
-1.09678
1.15865
-0.124381
0.0652365
-1.10529
1.16443
-0.022103
0.0228059
1.38664
-1.38434
1.38057
-0.106543
0.110305
-1.37529
1.36848
-0.191442
0.198256
-1.36011
1.35016
-0.275962
0.285916
-1.33858
1.32535
-0.360028
0.373258
-1.31043
1.29376
-0.443366
0.460028
-1.27532
1.25506
-0.525644
0.545908
-1.23293
1.20889
-0.606482
0.630521
-1.1829
1.15492
-0.685417
0.713396
-1.12492
1.09286
-0.761884
0.79394
-1.05873
1.0225
-0.835239
0.871466
-0.984173
0.943738
-0.904776
0.945212
-0.901208
0.856603
-0.969734
1.01434
-0.809956
0.761314
-1.0293
1.07794
-0.710741
0.658321
-1.08266
1.13508
-0.604164
0.548404
-1.12914
1.1849
-0.491204
0.432744
-1.16837
1.22683
-0.373215
0.312813
-1.19992
1.26033
-0.251702
0.189961
-1.22194
1.28368
-0.126416
0.0691641
-1.23263
1.28988
-0.0234303
0.0239964
1.33702
-1.33509
1.33196
-0.11382
0.116946
-1.32757
1.32188
-0.204636
0.210325
-1.31487
1.30649
-0.295269
0.303642
-1.29671
1.28547
-0.385745
0.396985
-1.27272
1.25839
-0.475842
0.490168
-1.24243
1.22477
-0.565258
0.582918
-1.20535
1.18409
-0.653631
0.674888
-1.16093
1.13581
-0.740483
0.765606
-1.10866
1.07942
-0.8252
0.854439
-1.04804
1.01447
-0.907051
0.940619
-0.978676
0.940624
-0.985216
1.02327
-0.900296
0.857685
-1.05878
1.10139
-0.8128
0.765663
-1.12672
1.17386
-0.716319
0.664834
-1.18798
1.23947
-0.611305
0.555865
-1.24154
1.29698
-0.498686
0.439978
-1.28667
1.34538
-0.379988
0.318997
-1.32281
1.3838
-0.257291
0.195127
-1.34822
1.41038
-0.130581
0.0752106
-1.36131
1.41668
-0.0244809
0.0248995
1.28926
-1.28756
1.28512
-0.119784
0.122218
-1.28169
1.27723
-0.215505
0.219966
-1.2717
1.26507
-0.311304
0.317942
-1.25726
1.24821
-0.40734
0.416384
-1.23786
1.22613
-0.503472
0.515203
-1.21294
1.1982
-0.599461
0.614204
-1.18181
1.1637
-0.694989
0.713106
-1.14375
1.12188
-0.789595
0.811468
-1.09798
1.07197
-0.882636
0.908648
-1.04375
1.01324
-0.973312
1.00382
-0.98036
0.94504
-1.06069
1.09601
-0.907221
0.866858
-1.14369
1.18405
-0.823921
0.778399
-1.22107
1.26659
-0.730303
0.679671
-1.29148
1.34211
-0.626579
0.571147
-1.35346
1.4089
-0.51355
0.454029
-1.40583
1.46535
-0.392893
0.330544
-1.4477
1.51005
-0.26744
0.204183
-1.4774
1.54065
-0.137267
0.0849738
-1.4938
1.54609
-0.025235
0.0254983
1.24337
-1.2421
1.24041
-0.124326
0.126023
-1.238
1.23485
-0.22385
0.226997
-1.23092
1.22615
-0.323768
0.328538
-1.22047
1.21381
-0.424405
0.431065
-1.20609
1.1972
-0.525733
0.534617
-1.18706
1.17556
-0.627613
0.639118
-1.16258
1.148
-0.729812
0.744393
-1.13169
1.11353
-0.83192
0.850081
-1.09338
1.07111
-0.933311
0.955582
-1.04658
1.01967
-1.03315
1.06007
-0.990235
0.958163
-1.13041
1.16249
-0.923337
0.885658
-1.22387
1.26155
-0.845038
0.801411
-1.31205
1.35568
-0.754733
0.704996
-1.39325
1.44299
-0.652231
0.596525
-1.46553
1.52124
-0.538044
0.477044
-1.52703
1.58803
-0.413897
0.34914
-1.57631
1.64107
-0.283464
0.21796
-1.61161
1.67712
-0.14599
0.0983643
-1.63328
1.6809
-0.0256789
0.0257832
1.19878
-1.19816
1.19723
-0.127363
0.128292
-1.19589
1.19412
-0.229508
0.231281
-1.19187
1.18906
-0.332405
0.335206
-1.18565
1.18153
-0.436572
0.440691
-1.17662
1.17081
-0.542126
0.547932
-1.16399
1.15605
-0.649063
0.65701
-1.14683
1.13621
-0.757284
0.767909
-1.12402
1.1101
-0.866489
0.880407
-1.09429
1.07639
-0.976126
0.994019
-1.05624
1.03364
-1.08539
1.10799
-1.0084
0.980345
-1.19323
1.22129
-0.949274
0.915013
-1.29831
1.33257
-0.877393
0.836263
-1.39895
1.44008
-0.791492
0.742984
-1.4931
1.54161
-0.690691
0.63463
-1.57823
1.63429
-0.57492
0.511809
-1.65159
1.7147
-0.445731
0.3774
-1.71084
1.77917
-0.307851
0.23887
-1.75381
1.82279
-0.159573
0.116758
-1.78233
1.82514
-0.0258075
0.025754
1.15605
-1.15589
1.15574
-0.128843
0.128996
-1.15549
1.15511
-0.232376
0.232752
-1.15456
1.15378
-0.337033
0.337815
-1.1527
1.15122
-0.44355
0.445027
-1.14925
1.1467
-0.552208
0.554765
-1.14343
1.13931
-0.663183
0.667299
-1.1342
1.12793
-0.776559
0.782825
-1.12034
1.11121
-0.89221
0.901332
-1.10037
1.08757
-1.00974
1.02254
-1.0726
1.05521
-1.12848
1.14587
-1.03514
1.01213
-1.24745
1.27046
-0.985899
0.956167
-1.36533
1.39506
-0.922654
0.885081
-1.48034
1.51791
-0.843184
0.796722
-1.59013
1.63659
-0.745497
0.689383
-1.69155
1.74766
-0.628369
0.562628
-1.78075
1.8465
-0.492598
0.41919
-1.85398
1.92738
-0.343918
0.269631
-1.90827
1.98256
-0.181434
0.144095
-1.94664
1.98398
-0.0256259
0.0254212
1.1148
-1.11491
1.11551
-0.128762
0.128157
-1.11633
1.11733
-0.232429
0.23143
-1.11847
1.1197
-0.337581
0.336354
-1.12094
1.12213
-0.445174
0.443988
-1.12316
1.12394
-0.555674
0.554894
-1.12435
1.12425
-0.669462
0.66956
-1.1235
1.12193
-0.786855
0.788431
-1.11934
1.11554
-0.907974
0.911775
-1.1103
1.10337
-1.03268
1.03961
-1.09447
1.08332
-1.16054
1.17169
-1.0696
1.05296
-1.29084
1.30748
-1.03303
1.00941
-1.42246
1.44608
-0.981689
0.94941
-1.55376
1.58604
-0.912121
0.869356
-1.68232
1.72508
-0.820669
0.765661
-1.80452
1.85953
-0.704041
0.635722
-1.91527
1.98359
-0.560973
0.480753
-2.00866
2.08888
-0.397043
0.313892
-2.07977
2.16292
-0.213814
0.179922
-2.13235
2.16624
-0.0251499
0.0248059
1.07501
-1.07575
1.07707
-0.127169
0.125848
-1.07889
1.08119
-0.229736
0.227431
-1.08395
1.0871
-0.334107
0.330951
-1.0906
1.09438
-0.441444
0.437665
-1.09836
1.10245
-0.552403
0.548313
-1.10655
1.11053
-0.66758
0.663599
-1.11426
1.11757
-0.78756
0.784245
-1.1203
1.12222
-0.91277
0.910841
-1.12313
1.12275
-1.04341
1.04379
-1.12081
1.11697
-1.17946
1.1833
-1.11088
1.10213
-1.32062
1.32937
-1.09027
1.0748
-1.46628
1.48175
-1.05516
1.03071
-1.61531
1.63976
-1.00077
0.964566
-1.76577
1.80197
-0.92129
0.870091
-1.91414
1.96534
-0.810153
0.740814
-2.05442
2.12376
-0.661782
0.573657
-2.17809
2.26621
-0.478539
0.381817
-2.27626
2.37298
-0.265879
0.234106
-2.35339
2.38516
-0.0244055
0.0239387
1.03652
-1.03764
1.03961
-0.124163
0.122195
-1.04235
1.04584
-0.224461
0.220967
-1.05007
1.055
-0.32681
0.32188
-1.06059
1.06679
-0.432555
0.426353
-1.07355
1.08079
-0.542514
0.535273
-1.08843
1.09639
-0.657497
0.649544
-1.10454
1.11275
-0.77836
0.770147
-1.12087
1.12873
-0.905865
0.898009
-1.13612
1.14279
-1.04063
1.03395
-1.14848
1.15288
-1.18311
1.17871
-1.15563
1.1563
-1.33366
1.33299
-1.15442
1.14944
-1.49247
1.49745
-1.14069
1.12741
-1.65944
1.67272
-1.1087
1.08351
-1.83391
1.8591
-1.05059
1.0085
-2.01374
2.05583
-0.955638
0.890274
-2.19358
2.25894
-0.810824
0.71647
-2.36307
2.45742
-0.608091
0.491341
-2.50708
2.62383
-0.352222
0.31354
-2.6286
2.66728
-0.023427
0.022857
0.999487
-1.00114
1.00367
-0.119892
0.117363
-1.0072
1.01173
-0.21686
0.212329
-1.01725
1.02374
-0.316034
0.309542
-1.03119
1.03955
-0.418898
0.410534
-1.0488
1.0589
-0.526398
0.516296
-1.06981
1.08145
-0.639519
0.627878
-1.09375
1.10664
-0.75936
0.746479
-1.11998
1.13367
-0.887006
0.87332
-1.14754
1.16141
-1.02348
1.00962
-1.17506
1.18824
-1.1698
1.15662
-1.20066
1.21194
-1.32701
1.31573
-1.22167
1.22934
-1.49633
1.48867
-1.23432
1.23585
-1.67916
1.67763
-1.23299
1.22456
-1.87702
1.88545
-1.20907
1.18461
-2.09101
2.11546
-1.1488
1.09864
-2.31985
2.37001
-1.03055
0.940656
-2.55633
2.64622
-0.825735
0.68701
-2.78205
2.92078
-0.518093
0.450239
-2.99617
3.06402
-0.0222543
0.0216023
0.963919
-0.965668
0.968659
-0.114539
0.111549
-0.972845
0.978232
-0.207255
0.201868
-0.984823
0.992616
-0.302234
0.294441
-1.00161
1.0118
-0.401043
0.390856
-1.02317
1.03573
-0.504702
0.492146
-1.04945
1.06432
-0.614313
0.599445
-1.0803
1.09737
-0.731156
0.714092
-1.11546
1.13452
-0.856568
0.837508
-1.15447
1.1752
-0.991925
0.971196
-1.19659
1.21849
-1.1387
1.1168
-1.24071
1.26304
-1.29861
1.27628
-1.28519
1.30684
-1.47383
1.45218
-1.32756
1.34682
-1.66731
1.64805
-1.36393
1.37799
-1.88321
1.86916
-1.38777
1.3916
-2.12732
2.12349
-1.38713
1.37105
-2.40657
2.42266
-1.33872
1.28369
-2.72699
2.78202
-1.19753
1.06807
-3.0895
3.21896
-0.897048
0.816926
-3.51587
3.59599
-0.0612609
0.0864163
-0.0251555
0.0656102
-0.100941
0.0353311
0.145879
-0.195188
0.0493089
0.245094
-0.295721
0.0506264
0.350236
-0.399533
0.0492969
0.420642
-0.420991
0.000349224
0.406541
-0.372756
-0.033785
0.325249
-0.265195
-0.0600541
0.177695
-0.0464462
-0.131249
-0.138646
0.379405
-0.24076
-0.667307
0.982251
-0.314943
-1.29432
1.5991
-0.304778
-1.89471
2.17682
-0.282114
-2.44043
2.68139
-0.24096
-2.89527
3.08506
-0.189786
-3.25126
3.39528
-0.144014
-3.51916
3.62735
-0.108183
-3.72441
3.81001
-0.0855968
-3.88637
3.95648
-0.0701068
-4.02097
4.08015
-0.0591803
-4.12921
4.15648
-0.0272737
-4.16414
4.17578
-0.0116426
-4.21253
4.26562
-0.0530909
-4.3178
4.36204
-0.0442408
-4.39825
4.42579
-0.027536
-4.44585
4.46235
-0.0165022
-4.47928
4.49825
-0.0189694
-4.51691
4.53055
-0.0136431
-4.53477
4.5292
0.00556612
-4.52133
4.52107
0.000255149
-4.53053
4.54558
-0.0150543
-4.56588
4.59912
-0.033241
-4.65182
4.72211
-0.0702958
-4.79868
4.87354
-0.074863
-4.92804
4.92024
0.00779841
-4.86282
4.87843
-0.0156046
-4.99393
5.16691
-0.172985
-5.3763
5.64099
-0.264689
-5.98275
5.94928
0.0334761
-6.33795
5.56187
0.776081
-4.45148
3.86058
0.5909
-4.13564
5.34463
-1.209
-5.96805
3.99309
1.97496
-4.63529
5.14352
-0.508222
-5.50988
5.76691
-0.257028
-5.95006
6.08301
-0.132945
-6.18351
6.26709
-0.0835868
-6.34833
6.43038
-0.0820521
-6.49614
6.52738
-0.0312377
-6.53779
6.54052
-0.00273061
-6.54412
6.54802
-0.00390304
-6.54759
6.5398
0.0077863
-6.52618
6.49735
0.028831
-6.43091
6.38185
0.0490533
-6.38626
6.40945
-0.0231976
-6.42061
6.41594
0.00466984
-6.39126
6.35233
0.0389364
-6.33093
6.3305
0.000420764
-6.33919
6.3257
0.0134846
-6.27513
6.23181
0.0433223
-0.101853
0.0988882
0.00296479
0.0523376
-0.0839971
-0.0692444
0.100904
0.119486
-0.156684
-0.0900475
0.127245
0.194199
-0.229505
-0.0884518
0.123757
0.25903
-0.284051
-0.0716577
0.096679
0.307426
-0.324087
-0.01026
0.0269207
0.332086
-0.330974
0.0447011
-0.0458128
0.314679
-0.275701
0.11026
-0.149238
0.206501
-0.094489
0.252229
-0.364241
-0.0759398
0.314271
0.476143
-0.714474
-0.608809
0.938347
0.63077
-0.960308
-1.28802
1.63798
0.632152
-0.982117
-1.97342
2.28928
0.580181
-0.896041
-2.58444
2.85727
0.496801
-0.769638
-3.10443
3.32256
0.397624
-0.61575
-3.51574
3.68748
0.302083
-0.473822
-3.83936
3.97338
0.230252
-0.364266
-4.09033
4.19171
0.175579
-0.276959
-4.28051
4.36078
0.145675
-0.225946
-4.43105
4.48939
0.117257
-0.175605
-4.54065
4.58517
0.0662806
-0.110796
-4.61551
4.6352
0.027041
-0.0467314
-4.66753
4.71611
0.0999819
-0.148571
-4.76556
4.80487
0.087319
-0.126631
-4.83198
4.85212
0.0542882
-0.0744212
-4.86782
4.88036
0.0314274
-0.0439694
-4.89211
4.90553
0.0347694
-0.0481856
-4.92101
4.93702
0.029282
-0.045286
-4.94999
4.95408
-0.00594352
0.00185304
-4.94865
4.94412
-0.00364481
0.00817302
-4.94951
4.96388
0.0298211
-0.0441882
-4.98139
5.00194
0.0566329
-0.0771821
-5.0266
5.05586
0.118856
-0.148121
-5.08614
5.10876
0.111548
-0.134162
-5.12462
5.13444
-0.0175669
0.0077482
-5.14898
5.16704
0.0525415
-0.0705979
-5.19779
5.25334
0.306695
-0.362239
-5.32611
5.40169
0.427882
-0.503462
-5.49345
5.46593
0.0749603
-0.047438
-5.32414
5.2454
-0.785093
0.863828
-5.42745
5.57712
-0.54796
0.398295
-5.55676
5.37262
0.284289
-0.100154
-5.44265
6.21992
-0.219894
-0.557372
-6.14053
6.16465
0.777157
-0.80128
-6.24811
6.33931
0.408728
-0.499923
-6.423
6.49458
0.229933
-0.301517
-6.55233
6.59592
0.147334
-0.190925
-6.62595
6.6449
0.11287
-0.131822
-6.65831
6.67197
0.0537461
-0.0674089
-6.68366
6.69138
0.0138404
-0.0215542
-6.6947
6.69527
0.00261496
-0.00318338
-6.69192
6.68652
-0.0153432
0.0207414
-6.67981
6.67634
-0.0492914
0.0527594
-6.6796
6.67735
-0.0457631
0.0480115
-6.66495
6.65142
0.0051693
0.0083641
-6.64146
6.63563
-0.0157816
0.021615
-6.63553
6.63831
-0.0369243
0.0341449
-6.63489
6.62758
-0.00797529
0.0152874
-6.61622
6.60823
-0.0284294
0.0364243
-6.61249
6.61427
-0.0489117
0.0471362
-0.100066
0.106628
-0.00656276
0.0280966
-0.0621542
-0.137217
0.171275
0.0965154
-0.13049
-0.162312
0.196286
0.164127
-0.197133
-0.158064
0.191069
0.227405
-0.255426
-0.122698
0.150719
0.283554
-0.310096
-0.0484405
0.0749824
0.332743
-0.349841
0.0377684
-0.0206698
0.358158
-0.34918
0.174096
-0.183074
0.309942
-0.22306
0.464004
-0.550887
0.0649507
0.185024
0.954617
-1.20459
-0.517394
0.90506
1.31169
-1.69936
-1.30401
1.69864
1.34341
-1.73804
-2.08002
2.43888
1.22674
-1.5856
-2.76976
3.07057
1.0538
-1.35461
-3.34327
3.58917
0.846792
-1.09269
-3.80897
4.00438
0.656082
-0.851498
-4.1768
4.32677
0.505705
-0.655676
-4.45621
4.56759
0.383987
-0.495362
-4.66101
4.73771
0.306441
-0.383141
-4.8018
4.85552
0.23244
-0.286162
-4.90389
4.95251
0.15254
-0.201154
-5.02104
5.09323
0.0812269
-0.153413
-5.13322
5.14907
0.202143
-0.217992
-5.15532
5.15647
0.145866
-0.147013
-5.15873
5.16345
0.0866799
-0.0913934
-5.16936
5.17539
0.0532144
-0.0592436
-5.18184
5.19058
0.0589262
-0.0676719
-5.20132
5.21332
0.0597793
-0.071783
-5.22627
5.23609
0.00540678
-0.0152285
-5.23601
5.23655
-0.0128699
0.0123298
-5.24563
5.26214
0.0590685
-0.0755838
-5.28259
5.29595
0.0974618
-0.110823
-5.30089
5.30067
0.160969
-0.160749
-5.30131
5.30789
0.149216
-0.155794
-5.32243
5.34348
0.0081501
-0.0292006
-5.36546
5.38486
0.0887973
-0.108194
-5.3989
5.4042
0.387744
-0.393042
-5.39543
5.37452
0.527601
-0.506692
-5.37321
5.16138
0.148066
0.0637621
-5.31924
5.64732
-0.772236
0.444159
-5.99106
6.25484
-0.176572
-0.087208
-6.50466
6.62277
0.276103
-0.394213
-6.64813
6.63275
0.687719
-0.672338
-6.58315
6.56141
0.783149
-0.761408
-6.57386
6.60507
0.55256
-0.58377
-6.64136
6.67526
0.351321
-0.385219
-6.70258
6.72162
0.220688
-0.239726
-6.73238
6.73656
0.142434
-0.146616
-6.73769
6.73919
0.0739101
-0.0754167
-6.74148
6.7435
0.0262974
-0.0283196
-6.74444
6.74459
0.00290041
-0.0030507
-6.74451
6.74502
-0.0228133
0.0223069
-6.74651
6.7494
-0.0521764
0.0492787
-6.75342
6.75424
-0.0486803
0.0478663
-6.75021
6.74464
-0.0180234
0.023588
-6.74165
6.74176
-0.0240929
0.0239895
-6.74452
6.74765
-0.0316965
0.0285641
-6.74766
6.74497
-0.0207412
0.0234306
-6.74136
6.74214
-0.0383153
0.0375275
-6.74614
6.74856
-0.0454941
0.0430694
-0.11539
0.127354
-0.0119639
0.0289485
-0.0551088
-0.200472
0.226632
0.0841209
-0.114969
-0.227996
0.258844
0.146836
-0.179425
-0.223388
0.255977
0.213307
-0.246441
-0.181252
0.214386
0.279182
-0.311703
-0.105141
0.137662
0.345952
-0.383831
-0.00597767
0.0438562
0.422949
-0.454297
0.17373
-0.142382
0.45969
-0.415416
0.618218
-0.662492
0.285089
0.0491131
1.46956
-1.80377
-0.558165
1.17141
2.14695
-2.76019
-1.81739
2.39987
2.19653
-2.77901
-2.87984
3.28204
1.98619
-2.38839
-3.62522
3.92561
1.6689
-1.96928
-4.19407
4.43821
1.34505
-1.5892
-4.65961
4.85836
1.05801
-1.25675
-5.0331
5.18387
0.808468
-0.959234
-5.31192
5.41919
0.601152
-0.708418
-5.50707
5.57947
0.446633
-0.519034
-5.64374
5.69977
0.337985
-0.394018
-5.74007
5.76915
0.295955
-0.325035
-5.78848
5.78969
0.17518
-0.176395
-5.74053
5.67481
0.18583
-0.120113
-5.63154
5.60286
0.128046
-0.0993592
-5.57895
5.55692
0.0855427
-0.0635101
-5.53969
5.53043
0.0602229
-0.0509607
-5.52602
5.52234
0.0748294
-0.0711459
-5.51876
5.51983
0.0782498
-0.0793197
-5.53477
5.55366
0.0290011
-0.0478954
-5.56164
5.56001
-0.00692223
0.00855734
-5.55833
5.56564
0.0883567
-0.0956642
-5.57388
5.57145
0.116443
-0.114015
-5.55576
5.53341
0.150527
-0.128169
-5.51723
5.51726
0.157867
-0.1579
-5.5387
5.57949
0.0564849
-0.0972747
-5.62448
5.66144
0.132614
-0.169568
-5.67265
5.65812
0.38524
-0.370717
-5.62624
5.53968
0.446571
-0.360016
-5.49149
6.02675
-0.336821
-0.198436
-6.37914
6.51669
0.0971934
-0.234749
-6.59376
6.68091
0.255021
-0.342177
-6.74105
6.7785
0.441098
-0.47855
-6.79747
6.79711
0.660184
-0.659828
-6.78248
6.77188
0.744679
-0.734073
-6.77363
6.78432
0.601927
-0.612614
-6.79756
6.80931
0.406436
-0.418183
-6.81699
6.82006
0.249742
-0.252811
-6.81857
6.81378
0.145673
-0.140887
-6.80779
6.80283
0.0731809
-0.068218
-6.79978
6.79835
0.0282685
-0.0268367
-6.79798
6.79895
0.00358747
-0.00455489
-6.80167
6.80606
-0.0197464
0.0153576
-6.8115
6.81727
-0.0447915
0.0390191
-6.82254
6.82574
-0.045801
0.0425953
-6.82697
6.82809
-0.0254587
0.0243413
-6.83092
6.83558
-0.0215254
0.0168611
-6.84135
6.84679
-0.0244211
0.0189881
-6.85049
6.85289
-0.0234373
0.0210407
-6.85508
6.85928
-0.034901
0.0306931
-6.86433
6.86908
-0.0394932
0.0347405
-0.142017
0.158911
-0.0168941
0.0327472
-0.0551254
-0.25026
0.272638
0.0817452
-0.11121
-0.288452
0.317917
0.142862
-0.176416
-0.2889
0.322454
0.210719
-0.244911
-0.247846
0.282038
0.279354
-0.317718
-0.172521
0.210885
0.363646
-0.420606
-0.0917968
0.148757
0.49266
-0.57629
0.0859801
-0.00234992
0.644442
-0.662675
0.682606
-0.664374
0.227509
0.991395
2.44621
-3.66511
-1.76133
2.14636
3.52689
-3.91193
-2.50391
2.84483
3.13799
-3.47891
-3.16815
3.47935
2.70526
-3.01646
-3.77665
4.05848
2.25068
-2.53251
-4.32027
4.56055
1.82636
-2.06663
-4.77736
4.97179
1.44961
-1.64404
-5.14511
5.29859
1.11122
-1.2647
-5.43361
5.55115
0.822714
-0.940255
-5.65287
5.73749
0.598489
-0.683109
-5.80645
5.86336
0.449645
-0.506555
-5.90762
5.93709
0.352478
-0.381943
-5.95818
5.98239
0.192178
-0.216385
-6.0042
6.0046
0.0962734
-0.0966771
-5.99477
5.98713
0.0864669
-0.078821
-5.98221
5.97874
0.0582145
-0.0547428
-5.9752
5.96957
0.0404016
-0.0347755
-5.96104
5.94914
0.0486712
-0.0367681
-5.93543
5.92362
0.0725823
-0.0607722
-5.91535
5.91878
0.0479745
-0.051407
-5.93414
5.94045
-0.00743433
0.00112342
-5.93154
5.91576
0.0842633
-0.068491
-5.90649
5.9181
0.100941
-0.112559
-5.95688
6.00506
0.0989805
-0.147155
-6.03222
6.04983
0.164849
-0.182453
-6.0722
6.09776
0.163471
-0.189039
-6.12322
6.1398
0.205515
-0.222099
-6.15894
6.18776
0.358101
-0.386927
-6.21915
6.26058
0.456301
-0.497734
-6.33434
6.42559
0.383516
-0.474763
-6.52346
6.61971
0.351596
-0.447838
-6.69861
6.76814
0.410809
-0.480346
-6.82639
6.87098
0.519754
-0.564337
-6.90069
6.915
0.667893
-0.682203
-6.91707
6.91548
0.728729
-0.727138
-6.91614
6.91829
0.61818
-0.620327
-6.9189
6.91716
0.422275
-0.420541
-6.9131
6.90719
0.250509
-0.244604
-6.89964
6.89088
0.133502
-0.124742
-6.88187
6.87423
0.0615375
-0.0539049
-6.86931
6.86695
0.0246739
-0.0223058
-6.86629
6.86791
0.0059093
-0.00752689
-6.87277
6.88012
-0.00944041
0.00209033
-6.88837
6.89619
-0.032233
0.0244155
-6.90267
6.90752
-0.0384828
0.0336289
-6.91173
6.91705
-0.0208726
0.0155526
-6.92422
6.93262
-0.0102786
0.0018805
-6.94129
6.94934
-0.0122778
0.00422891
-6.95625
6.9624
-0.0166322
0.0104835
-6.96847
6.97537
-0.0251242
0.0182233
-6.98234
6.98903
-0.029003
0.0223091
-0.176954
0.193978
-0.0170237
0.034321
-0.0546635
-0.293783
0.314126
0.0802743
-0.110464
-0.34733
0.37752
0.143171
-0.176946
-0.355486
0.38926
0.212222
-0.248673
-0.3168
0.353252
0.286995
-0.327987
-0.251383
0.292374
0.374198
-0.434061
-0.208268
0.268132
0.51644
-0.653855
-0.107176
0.24459
0.932299
-0.330851
0.461346
-1.06279
-1.2447
1.54716
4.61715
-4.91962
-1.88324
2.22288
4.25012
-4.58976
-2.56219
2.89786
3.80969
-4.14536
-3.2272
3.54691
3.32761
-3.64732
-3.85375
4.14339
2.81551
-3.10516
-4.41314
4.65947
2.30728
-2.5536
-4.88072
5.07682
1.83736
-2.03346
-5.24932
5.40046
1.41634
-1.56749
-5.53213
5.64683
1.05647
-1.17117
-5.74631
5.83094
0.768449
-0.853088
-5.90064
5.9573
0.56348
-0.620133
-6.00222
6.03549
0.413547
-0.446823
-6.06221
6.09134
0.244023
-0.273153
-6.12194
6.14263
0.109954
-0.130643
-6.15152
6.15407
0.0756647
-0.078211
-6.15374
6.1521
0.0512204
-0.0495849
-6.15013
6.148
0.0309922
-0.0288687
-6.14543
6.1414
0.0295652
-0.0255428
-6.13555
6.1292
0.0521981
-0.0458508
-6.1235
6.12345
0.0540263
-0.0539776
-6.13344
6.14674
0.00879372
-0.0220962
-6.15464
6.15868
0.0658664
-0.0699088
-6.16339
6.17379
0.12907
-0.13947
-6.1889
6.2085
0.172603
-0.192204
-6.23159
6.25655
0.206309
-0.231266
-6.28424
6.31542
0.217635
-0.248811
-6.35033
6.3847
0.25186
-0.286227
-6.41276
6.43497
0.407746
-0.429953
-6.45681
6.48749
0.53131
-0.561998
-6.5332
6.59183
0.542572
-0.601196
-6.65993
6.73243
0.529823
-0.60232
-6.80221
6.86676
0.547925
-0.612476
-6.92228
6.96741
0.609674
-0.6548
-6.99985
7.02053
0.700063
-0.720739
-7.0298
7.02958
0.727185
-0.726963
-7.02747
7.02358
0.619506
-0.61562
-7.01451
7.00355
0.41392
-0.402961
-6.99483
6.98813
0.237164
-0.230458
-6.98207
6.97566
0.11626
-0.109848
-6.96846
6.96159
0.0462356
-0.0393608
-6.95751
6.95614
0.020238
-0.0188691
-6.9555
6.95655
0.00907906
-0.0101282
-6.96226
6.97143
0.00630452
-0.0154686
-6.98163
6.99114
-0.0157835
0.00627259
-6.99881
7.0046
-0.0283243
0.0225354
-7.00994
7.01742
-0.00898291
0.0015053
-7.02745
7.03851
0.00792966
-0.0189896
-7.04936
7.05941
0.00485658
-0.0149056
-7.06857
7.07722
-0.00301156
-0.0056303
-7.08586
7.09494
-0.0102399
0.00115396
-7.10388
7.11208
-0.0148825
0.00668055
-0.20941
0.220425
-0.0110152
0.029568
-0.047663
-0.333347
0.351442
0.0727574
-0.104219
-0.408052
0.439514
0.140715
-0.179246
-0.425312
0.463843
0.216376
-0.252969
-0.389699
0.426293
0.288746
-0.324689
-0.330564
0.366508
0.367786
-0.431845
-0.328228
0.392287
0.521823
-0.546705
-0.349197
0.374079
0.378932
1.11918
2.76335
-4.26146
-1.29988
1.62214
5.32002
-5.64228
-1.95719
2.29752
4.92817
-5.2685
-2.63961
2.98061
4.48179
-4.82278
-3.31896
3.64935
3.96964
-4.30003
-3.96755
4.26699
3.39758
-3.69702
-4.54371
4.79372
2.80037
-3.05038
-5.01645
5.21157
2.2274
-2.42252
-5.37961
5.52371
1.71454
-1.85864
-5.647
5.75229
1.28063
-1.38592
-5.84226
5.91862
0.933592
-1.00994
-5.98222
6.03448
0.674778
-0.72704
-6.07689
6.11046
0.480447
-0.514016
-6.13888
6.16727
0.301961
-0.330359
-6.1965
6.22179
0.154474
-0.179764
-6.24007
6.25217
0.0859747
-0.098079
-6.25978
6.26448
0.0508831
-0.0555854
-6.26772
6.27039
0.0289176
-0.0315919
-6.27275
6.27431
0.0243484
-0.0259095
-6.2746
6.27386
0.0421347
-0.0413867
-6.27277
6.27469
0.0542498
-0.0561697
-6.28349
6.29754
0.035863
-0.0499101
-6.31162
6.32298
0.0779238
-0.0892855
-6.33246
6.34273
0.148682
-0.158954
-6.35528
6.37149
0.208979
-0.22519
-6.39193
6.41655
0.255759
-0.280377
-6.44525
6.47771
0.280528
-0.312992
-6.51324
6.54985
0.322034
-0.358639
-6.58365
6.61254
0.455427
-0.484319
-6.63861
6.66863
0.591498
-0.621517
-6.70692
6.7526
0.652174
-0.697861
-6.8052
6.86155
0.665513
-0.721862
-6.91736
6.97183
0.67163
-0.726105
-7.02034
7.0639
0.698393
-0.74196
-7.0986
7.12289
0.743442
-0.767736
-7.13946
7.13235
0.723757
-0.716644
-7.11052
7.09188
0.610229
-0.59159
-7.06509
7.03929
0.383613
-0.357815
-7.03617
7.04658
0.227183
-0.237597
-7.05619
7.06181
0.107314
-0.112939
-7.06452
7.06509
0.0347233
-0.0352972
-7.06567
7.06668
0.0193593
-0.0203643
-7.06615
7.06671
0.0102532
-0.0108132
-7.07338
7.08186
0.0245743
-0.0330599
-7.09169
7.1024
0.00382039
-0.014537
-7.11202
7.11996
-0.0161417
0.00820048
-7.12595
7.13375
0.00619895
-0.0139995
-7.14456
7.15602
0.0305925
-0.0420569
-7.16733
7.17818
0.0254316
-0.036286
-7.1886
7.19881
0.0150577
-0.0252649
-7.20908
7.21972
0.00871806
-0.0193587
-7.23024
7.23957
0.00206713
-0.011399
-0.226325
0.229197
-0.00287246
0.0168199
-0.0308576
-0.367524
0.381562
0.0532639
-0.0849408
-0.471539
0.503216
0.122967
-0.162436
-0.502098
0.541566
0.201603
-0.240608
-0.463231
0.502237
0.2792
-0.315359
-0.401422
0.437582
0.343744
-0.374701
-0.448227
0.479184
0.492188
-1.21499
-0.482971
1.20577
-0.16328