/*--------------------------------*- C++ -*----------------------------------*\
| =========                 |                                                 |
| \\      /  F ield         | OpenFOAM: The Open Source CFD Toolbox           |
|  \\    /   O peration     | Version:  v1912                                 |
|   \\  /    A nd           | Website:  www.openfoam.com                      |
|    \\/     M anipulation  |                                                 |
\*---------------------------------------------------------------------------*/
FoamFile
{
    version     2.0;
    format      ascii;
    class       volVectorField;
    location    "50";
    object      U;
}
// * * * * * * * * * * * * * * * * * * * * * * * * * * * * * * * * * * * * * //

dimensions      [0 1 -1 0 0 0 0];


internalField   nonuniform List<vector> 
20320
(
(1.85654 0.00630711 0)
(1.85509 -0.00520332 0)
(1.83989 0.00413266 0)
(1.81024 0.0116425 0)
(1.76945 0.0193136 0)
(1.71801 0.026504 0)
(1.65625 0.0329323 0)
(1.58458 0.0388792 0)
(1.50347 0.0446516 0)
(1.41328 0.0500861 0)
(1.31467 0.0549406 0)
(1.20818 0.059666 0)
(1.09425 0.0640802 0)
(0.973728 0.0679569 0)
(0.847123 0.0717825 0)
(0.714784 0.0757072 0)
(0.576719 0.0799113 0)
(0.43193 0.0856256 0)
(0.277694 0.0936015 0)
(0.107495 0.087529 0)
(1.85667 0.0112816 0)
(1.84805 0.0356807 0)
(1.82868 0.0667872 0)
(1.79847 0.0980181 0)
(1.75723 0.128588 0)
(1.70517 0.158433 0)
(1.64272 0.187475 0)
(1.57032 0.215503 0)
(1.48831 0.242323 0)
(1.3971 0.267894 0)
(1.29717 0.292124 0)
(1.18897 0.314833 0)
(1.07297 0.335953 0)
(0.94961 0.355306 0)
(0.819453 0.372659 0)
(0.683248 0.387962 0)
(0.541945 0.401436 0)
(0.396878 0.414183 0)
(0.250487 0.429198 0)
(0.106204 0.460192 0)
(1.85666 0.0170697 0)
(1.84819 0.0699939 0)
(1.82867 0.125756 0)
(1.79811 0.180896 0)
(1.7567 0.234957 0)
(1.7047 0.287817 0)
(1.64229 0.339214 0)
(1.56978 0.388766 0)
(1.48756 0.436192 0)
(1.39613 0.481276 0)
(1.29604 0.523847 0)
(1.18788 0.563839 0)
(1.07226 0.601192 0)
(0.949699 0.635782 0)
(0.820613 0.667284 0)
(0.685411 0.695046 0)
(0.544625 0.718181 0)
(0.399076 0.736056 0)
(0.2501 0.750135 0)
(0.101042 0.784538 0)
(1.85666 0.0228644 0)
(1.84842 0.0999234 0)
(1.82926 0.179322 0)
(1.79904 0.257776 0)
(1.75799 0.334918 0)
(1.70632 0.410316 0)
(1.64423 0.483545 0)
(1.57197 0.554178 0)
(1.48987 0.621781 0)
(1.39835 0.685945 0)
(1.29793 0.746309 0)
(1.18923 0.80264 0)
(1.07302 0.854869 0)
(0.950109 0.903038 0)
(0.821218 0.947127 0)
(0.686881 0.986651 0)
(0.54743 1.02032 0)
(0.403136 1.04617 0)
(0.254342 1.06367 0)
(0.10324 1.0983 0)
(1.85666 0.0283346 0)
(1.84855 0.127991 0)
(1.82968 0.22969 0)
(1.79997 0.330253 0)
(1.75954 0.429258 0)
(1.70856 0.526182 0)
(1.6472 0.620482 0)
(1.57569 0.711619 0)
(1.49429 0.79904 0)
(1.40335 0.882165 0)
(1.3033 0.960427 0)
(1.19469 1.03332 0)
(1.07817 1.1005 0)
(0.954607 1.16182 0)
(0.824931 1.2174 0)
(0.690013 1.26719 0)
(0.550423 1.31024 0)
(0.406337 1.34417 0)
(0.257541 1.36679 0)
(0.104573 1.40371 0)
(1.85666 0.0334749 0)
(1.84877 0.154496 0)
(1.83037 0.277314 0)
(1.80138 0.398862 0)
(1.76188 0.518691 0)
(1.71196 0.636197 0)
(1.65175 0.750748 0)
(1.58138 0.861705 0)
(1.50106 0.968394 0)
(1.41107 1.07009 0)
(1.31177 1.16605 0)
(1.20361 1.25555 0)
(1.08716 1.33793 0)
(0.963167 1.41274 0)
(0.832572 1.47985 0)
(0.69643 1.53941 0)
(0.555651 1.59101 0)
(0.410713 1.63256 0)
(0.261457 1.66092 0)
(0.106949 1.7009 0)
(1.85666 0.0382446 0)
(1.84906 0.17925 0)
(1.83135 0.321833 0)
(1.80338 0.463104 0)
(1.76519 0.602617 0)
(1.7168 0.739712 0)
(1.65823 0.873686 0)
(1.58952 1.00381 0)
(1.51078 1.12931 0)
(1.42218 1.24929 0)
(1.32398 1.36286 0)
(1.21655 1.46908 0)
(1.10036 1.56703 0)
(0.976054 1.6559 0)
(0.844496 1.73518 0)
(0.706777 1.80485 0)
(0.564033 1.8648 0)
(0.417057 1.91342 0)
(0.26588 1.94726 0)
(0.108415 1.98981 0)
(1.85667 0.0425989 0)
(1.84947 0.202051 0)
(1.83267 0.362894 0)
(1.8061 0.522491 0)
(1.76971 0.680442 0)
(1.72341 0.836065 0)
(1.66709 0.98861 0)
(1.60068 1.13728 0)
(1.52413 1.28119 0)
(1.43748 1.41932 0)
(1.34086 1.55057 0)
(1.23449 1.6738 0)
(1.11875 1.78784 0)
(0.994172 1.89152 0)
(0.861532 1.9839 0)
(0.721903 2.06453 0)
(0.576594 2.13331 0)
(0.426789 2.18905 0)
(0.273027 2.22821 0)
(0.11191 2.27256 0)
(1.85667 0.0464869 0)
(1.85 0.222666 0)
(1.83441 0.400093 0)
(1.80969 0.576462 0)
(1.77567 0.751477 0)
(1.73214 0.924475 0)
(1.67884 1.09469 0)
(1.61553 1.2613 0)
(1.54197 1.4233 0)
(1.45801 1.57955 0)
(1.36358 1.72876 0)
(1.25874 1.86955 0)
(1.14372 2.00045 0)
(1.01892 2.11996 0)
(0.884988 2.22665 0)
(0.742945 2.31952 0)
(0.594177 2.39814 0)
(0.440153 2.46151 0)
(0.281835 2.50612 0)
(0.113963 2.55125 0)
(1.85667 0.0498545 0)
(1.85068 0.240836 0)
(1.83664 0.432971 0)
(1.81427 0.624375 0)
(1.78331 0.814921 0)
(1.74337 1.00401 0)
(1.69402 1.19093 0)
(1.6348 1.37481 0)
(1.56523 1.55464 0)
(1.48492 1.7291 0)
(1.39355 1.89673 0)
(1.29094 2.05589 0)
(1.17708 2.20479 0)
(1.05218 2.34154 0)
(0.916763 2.46419 0)
(0.771745 2.57104 0)
(0.618597 2.66109 0)
(0.459148 2.73316 0)
(0.295034 2.78361 0)
(0.118382 2.82874 0)
(1.85667 0.0526467 0)
(1.85153 0.256293 0)
(1.8394 0.461048 0)
(1.81997 0.665547 0)
(1.79283 0.869901 0)
(1.75743 1.07364 0)
(1.71314 1.27613 0)
(1.65921 1.47658 0)
(1.59492 1.67392 0)
(1.51953 1.86677 0)
(1.4324 2.05345 0)
(1.33301 2.23209 0)
(1.22103 2.40053 0)
(1.09638 2.55643 0)
(0.959334 2.69724 0)
(0.810667 2.82046 0)
(0.651876 2.9242 0)
(0.485207 3.00679 0)
(0.313081 3.06421 0)
(0.124403 3.10693 0)
(1.85667 0.054813 0)
(1.85254 0.268772 0)
(1.84273 0.483847 0)
(1.82684 0.699279 0)
(1.80437 0.915493 0)
(1.77458 1.13222 0)
(1.73659 1.34898 0)
(1.68941 1.56509 0)
(1.63197 1.77955 0)
(1.56314 1.99093 0)
(1.48187 2.19742 0)
(1.38715 2.39688 0)
(1.27821 2.58683 0)
(1.15453 2.76439 0)
(1.01597 2.92633 0)
(0.863008 3.06919 0)
(0.69709 3.18986 0)
(0.520908 3.28571 0)
(0.337727 3.35194 0)
(0.130684 3.38923 0)
(1.85668 0.056313 0)
(1.85372 0.278045 0)
(1.84661 0.500941 0)
(1.83489 0.724925 0)
(1.81795 0.950807 0)
(1.79489 1.17859 0)
(1.76461 1.40802 0)
(1.72584 1.63864 0)
(1.67714 1.8696 0)
(1.61695 2.09951 0)
(1.54368 2.32653 0)
(1.45575 2.54836 0)
(1.35171 2.76217 0)
(1.23035 2.96458 0)
(1.09088 3.1516 0)
(0.933227 3.31857 0)
(0.758516 3.4608 0)
(0.569807 3.57403 0)
(0.371103 3.65212 0)
(0.134415 3.6846 0)
(1.85668 0.0571209 0)
(1.85505 0.28394 0)
(1.85099 0.511998 0)
(1.84402 0.741952 0)
(1.83345 0.975058 0)
(1.81825 1.21165 0)
(1.79716 1.45181 0)
(1.76862 1.69539 0)
(1.73086 1.94183 0)
(1.68185 2.18994 0)
(1.61939 2.43799 0)
(1.54118 2.68367 0)
(1.44488 2.92397 0)
(1.32828 3.1551 0)
(1.18952 3.37226 0)
(1.02744 3.56948 0)
(0.842404 3.73993 0)
(0.637599 3.8768 0)
(0.418325 3.97126 0)
(0.141863 4.00034 0)
(1.85668 0.0572311 0)
(1.8565 0.286368 0)
(1.85577 0.516825 0)
(1.85404 0.750009 0)
(1.85057 0.987656 0)
(1.84429 1.23049 0)
(1.8338 1.479 0)
(1.81739 1.73348 0)
(1.79297 1.99378 0)
(1.7581 2.25915 0)
(1.70997 2.52816 0)
(1.64545 2.79878 0)
(1.5611 3.06813 0)
(1.45334 3.33225 0)
(1.31861 3.58583 0)
(1.1539 3.82153 0)
(0.957757 4.02993 0)
(0.732638 4.20049 0)
(0.485509 4.32013 0)
(0.159053 4.34915 0)
(1.85669 0.056661 0)
(1.85802 0.28535 0)
(1.86082 0.51542 0)
(1.86466 0.749003 0)
(1.86884 0.98832 0)
(1.87232 1.23451 0)
(1.8737 1.48854 0)
(1.87121 1.75123 0)
(1.8626 2.02303 0)
(1.84512 2.30378 0)
(1.81546 2.59271 0)
(1.76967 2.88842 0)
(1.70316 3.18864 0)
(1.61063 3.48989 0)
(1.48616 3.78695 0)
(1.32365 4.07164 0)
(1.11803 4.33185 0)
(0.868678 4.55168 0)
(0.582884 4.71039 0)
(0.189638 4.74604 0)
(1.85669 0.0554516 0)
(1.85957 0.28102 0)
(1.86595 0.507987 0)
(1.87551 0.739139 0)
(1.88765 0.977153 0)
(1.90144 1.22358 0)
(1.91563 1.47985 0)
(1.92854 1.74743 0)
(1.93798 2.02743 0)
(1.94111 2.32052 0)
(1.93438 2.62687 0)
(1.91329 2.94616 0)
(1.87224 3.27738 0)
(1.8042 3.61851 0)
(1.70047 3.96569 0)
(1.5505 4.31157 0)
(1.34283 4.64261 0)
(1.06905 4.93706 0)
(0.732143 5.16192 0)
(0.247331 5.22295 0)
(1.8567 0.0536654 0)
(1.86107 0.273627 0)
(1.87098 0.494942 0)
(1.88619 0.720943 0)
(1.90628 0.954693 0)
(1.93055 1.19809 0)
(1.95801 1.45303 0)
(1.98727 1.72157 0)
(2.01643 2.00557 0)
(2.04294 2.30663 0)
(2.06338 2.62608 0)
(2.07322 2.96504 0)
(2.06648 3.32446 0)
(2.03502 3.70488 0)
(1.96774 4.1058 0)
(1.84925 4.52384 0)
(1.65884 4.94835 0)
(1.37248 5.35537 0)
(0.974704 5.69678 0)
(0.356418 5.83008 0)
(1.8567 0.0513818 0)
(1.86249 0.263521 0)
(1.87572 0.476894 0)
(1.89631 0.695244 0)
(1.92403 0.921915 0)
(1.95849 1.15906 0)
(1.99908 1.40895 0)
(2.04489 1.67414 0)
(2.09458 1.9572 0)
(2.14621 2.26062 0)
(2.19704 2.5869 0)
(2.24327 2.9388 0)
(2.27953 3.31954 0)
(2.29811 3.7331 0)
(2.28748 4.18426 0)
(2.22966 4.67779 0)
(2.09572 5.21437 0)
(1.84011 5.78173 0)
(1.40154 6.3327 0)
(0.602277 6.66519 0)
(1.8567 0.0486911 0)
(1.86377 0.251123 0)
(1.88002 0.454595 0)
(1.9055 0.66311 0)
(1.94024 0.880173 0)
(1.98418 1.10807 0)
(2.03717 1.34929 0)
(2.09888 1.60676 0)
(2.16874 1.88354 0)
(2.24575 2.18285 0)
(2.32836 2.50817 0)
(2.41421 2.8636 0)
(2.49985 3.25441 0)
(2.58002 3.68786 0)
(2.64637 4.17448 0)
(2.68456 4.7296 0)
(2.66782 5.3736 0)
(2.54349 6.12896 0)
(2.19907 7.01026 0)
(1.33443 7.84985 0)
(-0.0943835 0.15033 0)
(-0.330171 0.0378291 0)
(-0.68611 0.0586194 0)
(-1.07394 0.0639665 -9.09583e-21)
(-1.52208 0.0719433 0)
(-1.62813 -0.0102644 0)
(-1.48705 -0.0677177 0)
(-1.11135 -0.0929696 0)
(-0.393786 -0.18804 0)
(1.11328 -0.336581 -2.14007e-20)
(3.34073 -0.436598 0)
(5.74098 -0.425496 0)
(7.99554 -0.394369 -4.4243e-20)
(10.0038 -0.340193 -5.19547e-20)
(11.6252 -0.252904 0)
(12.8797 -0.187403 5.03728e-20)
(13.8186 -0.139256 -4.38235e-20)
(14.5717 -0.118919 7.53805e-20)
(15.1326 -0.0945185 0)
(15.6375 -0.093235 2.48797e-20)
(15.9907 -0.036253 -2.07353e-20)
(16.0595 -0.0230512 -2.84508e-20)
(16.3446 -0.0817055 7.31935e-21)
(16.7425 -0.0608578 -7.5514e-21)
(17.0116 -0.0400478 0)
(17.1648 -0.028474 -5.83365e-21)
(17.2918 -0.0321179 0)
(17.4243 -0.0193802 4.07958e-21)
(17.4415 0.0055154 8.92897e-21)
(17.3787 -0.0050255 0)
(17.4377 -0.0211732 1.97801e-21)
(17.583 -0.0535352 -3.0063e-21)
(17.9674 -0.0984459 1.90528e-21)
(18.5188 -0.200609 -3.3533e-21)
(19.0085 -0.178677 0)
(18.4568 0.15798 0)
(19.0716 -0.159553 -1.51788e-21)
(20.1597 -0.717496 0)
(21.6694 -3.59506 2.67575e-20)
(25.8165 -1.5608 0)
(15.24 0.689002 0)
(17.8029 -4.49904 1.68954e-20)
(16.4584 14.5585 0)
(19.0955 -0.633709 0)
(21.8297 -0.414436 -1.5867e-21)
(23.2266 -0.21912 -3.26609e-21)
(23.9922 -0.157381 0)
(24.6208 -0.289611 8.54793e-22)
(25.1517 -0.114994 -2.75427e-21)
(25.1814 -0.00515279 -8.1279e-22)
(25.2057 -0.0376783 0)
(25.2142 -0.00262061 3.62199e-21)
(25.0888 0.046344 0)
(24.5986 0.267652 -1.4308e-21)
(24.617 -0.113937 0)
(24.7102 -0.0203186 0)
(24.491 0.171265 5.29227e-24)
(24.3361 0.0326352 -1.31514e-24)
(24.4183 -0.0400684 0)
(24.0792 0.13298 0)
(-0.0154237 0.198196 0)
(-0.339271 0.17098 0)
(-0.627412 0.218971 3.18505e-21)
(-0.906419 0.212271 0)
(-1.10898 0.164635 0)
(-1.21705 0.0338518 -1.38155e-20)
(-1.22458 -0.093507 2.24506e-20)
(-1.02337 -0.263583 0)
(-0.347404 -0.615686 -9.28313e-23)
(1.17666 -1.17473 -1.176e-20)
(3.55141 -1.56514 -9.13666e-23)
(6.19544 -1.60873 5.66201e-20)
(8.66741 -1.47716 -4.25062e-20)
(10.807 -1.26732 0)
(12.5673 -1.01258 0)
(13.9344 -0.778601 -4.30769e-20)
(15.0121 -0.598842 0)
(15.8441 -0.455756 0)
(16.4844 -0.373727 8.65561e-24)
(16.984 -0.294171 0)
(17.3292 -0.175289 0)
(17.5194 -0.0760424 0)
(17.8237 -0.249435 5.86521e-21)
(18.1871 -0.219059 -6.13309e-21)
(18.3609 -0.130215 6.02109e-21)
(18.4638 -0.0759004 5.37072e-21)
(18.5556 -0.0834349 0)
(18.6696 -0.0747862 0)
(18.7413 0.00950198 3.79787e-21)
(18.7049 0.0114618 -2.56045e-24)
(18.7669 -0.0735816 0)
(18.9131 -0.133914 6.30441e-25)
(19.1299 -0.271051 -3.79873e-21)
(19.3494 -0.258218 0)
(19.4064 0.0168032 0)
(19.5329 -0.120848 -6.69785e-21)
(19.9084 -0.671158 0)
(20.3969 -0.961144 0)
(20.4847 0.124635 0)
(19.5951 1.06258 7.32179e-21)
(20.7146 0.926987 -1.07704e-20)
(20.0516 -0.267782 9.46337e-20)
(23.8046 -0.0501582 5.26075e-20)
(23.4326 -1.58649 0)
(23.9277 -0.919133 9.08819e-22)
(24.5124 -0.537818 0)
(24.9235 -0.342257 -1.81238e-21)
(25.1397 -0.261378 3.79675e-22)
(25.2293 -0.131737 -2.42435e-22)
(25.3076 -0.0389111 2.14461e-22)
(25.3324 -0.0116776 -3.20266e-22)
(25.3079 0.0361252 -4.80982e-22)
(25.2527 0.101908 8.55228e-22)
(25.2669 0.112427 0)
(25.1897 -0.0018231 0)
(25.1078 0.0345499 0)
(25.1033 0.0801936 0)
(25.0897 0.0334037 -8.43897e-24)
(25.0079 0.0643216 1.97681e-22)
(25.0297 0.0970049 0)
(-0.0980403 0.203 0)
(-0.316237 0.305431 1.19303e-23)
(-0.59277 0.355152 0)
(-0.837041 0.346006 2.51991e-21)
(-1.02415 0.269475 3.33685e-21)
(-1.16096 0.119798 7.53156e-21)
(-1.24714 -0.0623302 0)
(-1.17603 -0.361266 2.30052e-20)
(-0.606835 -1.00895 0)
(1.04386 -2.15228 0)
(3.86737 -3.00781 0)
(6.8207 -3.03037 0)
(9.51065 -2.74156 0)
(11.7955 -2.35517 0)
(13.6302 -1.90043 0)
(15.0883 -1.47096 0)
(16.2358 -1.13358 0)
(17.093 -0.864404 -3.0882e-20)
(17.7207 -0.6816 0)
(18.1246 -0.509472 0)
(18.4302 -0.385149 0)
(18.8941 -0.203633 0)
(19.2606 -0.422737 0)
(19.2509 -0.301053 0)
(19.2349 -0.182268 0)
(19.2565 -0.115646 0)
(19.3107 -0.128246 0)
(19.3889 -0.131699 0)
(19.45 -0.0169661 4.25201e-21)
(19.4541 0.0222946 0)
(19.554 -0.134877 1.52217e-22)
(19.7162 -0.206734 0)
(19.7763 -0.324492 0)
(19.7778 -0.305093 0)
(19.8237 -0.0349224 0)
(20.021 -0.193858 0)
(20.2433 -0.775852 -1.55878e-21)
(20.2456 -1.00408 0)
(20.1041 -0.262501 0)
(19.9979 1.31873 0)
(22.764 0.276928 -4.52608e-21)
(24.658 -0.765636 -9.47305e-22)
(24.9303 -1.36564 2.48813e-21)
(24.6099 -1.53082 0)
(24.6276 -1.13314 8.83871e-22)
(24.841 -0.736549 0)
(25.007 -0.461167 0)
(25.0649 -0.288721 0)
(25.0585 -0.149595 0)
(25.0649 -0.0550834 2.95072e-22)
(25.068 -0.00596629 0)
(25.0641 0.0457419 8.88075e-22)
(25.0718 0.101422 0)
(25.1 0.0956318 0)
(25.0754 0.043467 1.11411e-22)
(25.0515 0.0490474 -1.55128e-22)
(25.0719 0.0596257 2.14045e-22)
(25.074 0.0446785 -3.08642e-23)
(25.05 0.0760691 0)
(25.0775 0.0883582 -7.14593e-24)
(-0.138858 0.236671 0)
(-0.356708 0.422809 0)
(-0.59359 0.480429 0)
(-0.818303 0.472206 0)
(-1.02091 0.389221 -5.54879e-22)
(-1.18718 0.238294 0)
(-1.34914 0.0438788 0)
(-1.47017 -0.322724 -1.37482e-22)
(-1.12208 -1.29046 0)
(0.75482 -3.12984 -2.28461e-22)
(4.99664 -4.51207 1.20535e-19)
(9.81655 -4.90637 0)
(13.0623 -4.41687 0)
(15.2384 -3.67007 -1.59762e-22)
(16.8998 -2.95136 1.32214e-22)
(18.2656 -2.33428 -1.12045e-22)
(19.3224 -1.78786 -1.16108e-19)
(20.0811 -1.3216 0)
(20.5769 -0.959634 9.36101e-20)
(20.9845 -0.732889 0)
(21.2104 -0.634139 2.14437e-23)
(21.3238 -0.355928 9.55977e-24)
(20.8693 -0.296512 2.86346e-23)
(20.5753 -0.221626 2.35962e-20)
(20.3681 -0.140501 -1.66411e-20)
(20.2336 -0.107956 0)
(20.2119 -0.140232 0)
(20.1839 -0.171949 4.29498e-24)
(20.2674 -0.0710634 -7.43318e-24)
(20.3045 0.0162678 0)
(20.3535 -0.186058 2.25156e-22)
(20.4101 -0.224348 0)
(20.3 -0.269046 0)
(20.1961 -0.307621 0)
(20.3113 -0.138663 -8.79747e-21)
(20.6878 -0.295595 0)
(20.843 -0.736189 0)
(20.542 -0.831776 -1.43838e-21)
(21.0802 -0.0444919 -9.69336e-19)
(23.6996 -0.552445 1.36662e-21)
(24.3486 -0.729948 -2.49432e-20)
(24.8344 -0.930126 0)
(25.0287 -1.29528 -6.35982e-21)
(24.9386 -1.45461 0)
(24.9022 -1.20017 -1.09372e-21)
(24.9427 -0.817144 1.19222e-21)
(24.9565 -0.498399 0)
(24.9189 -0.284101 8.89206e-23)
(24.8592 -0.140471 0)
(24.8279 -0.0548419 3.51581e-22)
(24.8211 -0.00784271 3.95678e-22)
(24.8378 0.0353336 -4.21742e-22)
(24.8746 0.0830805 3.51441e-22)
(24.9127 0.087686 2.31196e-22)
(24.9248 0.0502793 0)
(24.9459 0.0387635 -1.28489e-22)
(24.988 0.0434418 -9.19664e-23)
(25.0158 0.044907 3.74151e-23)
(25.0327 0.0653461 0)
(25.0686 0.073714 0)
(-0.187202 0.293522 -8.88432e-22)
(-0.404626 0.513533 1.12665e-21)
(-0.630332 0.59518 0)
(-0.854745 0.600351 -1.54964e-21)
(-1.05908 0.520044 2.39459e-21)
(-1.23733 0.374172 0)
(-1.49761 0.232746 0)
(-1.87156 -0.1022 -1.39826e-22)
(-1.88491 -1.31421 4.02192e-23)
(3.71911 -6.07279 -8.9028e-19)
(10.0798 -7.44285 3.17506e-20)
(12.2657 -6.55894 3.07332e-22)
(14.1675 -5.61607 -4.29117e-20)
(15.8891 -4.67978 0)
(17.3964 -3.80521 1.1438e-22)
(18.6304 -3.02296 -8.86285e-20)
(19.5931 -2.32246 0)
(20.329 -1.72447 -3.29211e-20)
(20.8779 -1.25442 -2.7249e-20)
(21.2586 -0.937531 0)
(21.4915 -0.720318 1.66196e-20)
(21.5485 -0.402053 -3.12258e-23)
(21.6017 -0.181932 0)
(21.5369 -0.159427 0)
(21.4828 -0.110506 6.2336e-21)
(21.4468 -0.0761733 4.52265e-24)
(21.3842 -0.084157 0)
(21.3065 -0.133844 0)
(21.2337 -0.105736 5.55307e-24)
(21.3077 0.0182378 0)
(21.2838 -0.153452 -8.52576e-21)
(21.2277 -0.220742 -5.71256e-23)
(21.5423 -0.218713 2.78522e-21)
(21.7422 -0.346673 -5.24658e-21)
(21.9085 -0.378095 5.78473e-21)
(22.0795 -0.4442 2.93449e-20)
(22.2721 -0.718388 0)
(22.5434 -0.935651 -1.54731e-23)
(23.0326 -0.878547 0)
(23.7183 -0.808686 2.93556e-21)
(24.3032 -0.863616 2.69656e-21)
(24.7436 -1.06022 2.52118e-21)
(24.9856 -1.32263 2.29357e-21)
(25.0066 -1.42725 -1.49764e-21)
(24.97 -1.21598 1.31983e-21)
(24.917 -0.827238 1.18416e-21)
(24.8423 -0.485517 -1.18911e-21)
(24.7595 -0.252409 7.03407e-24)
(24.6794 -0.112819 -2.93324e-22)
(24.637 -0.0460374 4.20097e-22)
(24.6294 -0.0131137 -4.32279e-22)
(24.662 0.0118863 0)
(24.7184 0.0560611 -3.16073e-22)
(24.7644 0.0710974 2.4803e-22)
(24.7973 0.0364607 0)
(24.8497 0.0126742 -1.16486e-22)
(24.9118 0.016762 -8.00074e-23)
(24.9614 0.0273282 2.51707e-26)
(25.0051 0.0431101 0)
(25.054 0.0507741 2.38455e-23)
(-0.222653 0.361702 -8.77932e-22)
(-0.442838 0.594514 0)
(-0.673347 0.708004 -8.54017e-24)
(-0.907252 0.726894 0)
(-1.11473 0.653827 0)
(-1.32188 0.532001 -5.15852e-21)
(-1.61482 0.465551 0)
(-2.19307 0.331514 -1.21315e-23)
(-4.53451 -0.00608419 3.55672e-18)
(8.81732 -9.30549 -7.58772e-20)
(10.8072 -8.6259 -3.77788e-20)
(12.7785 -7.76448 -5.47084e-20)
(14.6527 -6.81 1.4722e-19)
(16.3564 -5.78116 4.29625e-20)
(17.8145 -4.7476 0)
(18.9741 -3.78167 8.48755e-20)
(19.8432 -2.91635 0)
(20.4856 -2.17791 0)
(20.9619 -1.5853 5.03528e-20)
(21.2957 -1.15686 0)
(21.4962 -0.83991 0)
(21.5738 -0.504531 -1.04639e-20)
(21.6915 -0.23278 -2.03826e-20)
(21.7302 -0.147821 0)
(21.7111 -0.0973046 -5.26097e-21)
(21.6847 -0.0573647 0)
(21.6639 -0.0522931 3.6478e-21)
(21.6351 -0.094407 0)
(21.5978 -0.104738 3.8095e-21)
(21.6454 -0.0292045 0)
(21.7263 -0.128634 -4.03838e-21)
(21.7947 -0.259652 2.44562e-21)
(21.9227 -0.354732 0)
(22.0949 -0.424903 -1.36406e-21)
(22.2925 -0.451409 2.15478e-21)
(22.5473 -0.521342 -3.8226e-21)
(22.8006 -0.813535 1.17231e-23)
(22.9976 -1.06533 6.55646e-22)
(23.3168 -1.11721 -6.16474e-22)
(23.7873 -1.10838 3.65031e-24)
(24.2759 -1.13655 0)
(24.6753 -1.23677 -2.32286e-21)
(24.9181 -1.38896 -1.92531e-21)
(24.9756 -1.42068 0)
(24.9158 -1.21254 -6.72194e-24)
(24.7986 -0.821336 -1.78931e-21)
(24.689 -0.470085 4.8626e-22)
(24.6163 -0.228953 -8.6116e-23)
(24.5504 -0.0879141 7.20392e-22)
(24.516 -0.0379574 5.32937e-22)
(24.5099 -0.0192139 -4.79046e-22)
(24.5488 -0.021929 -4.58985e-22)
(24.6178 0.0214074 2.60021e-22)
(24.6706 0.0497229 0)
(24.7116 0.0105517 -3.38789e-22)
(24.7831 -0.0260221 0)
(24.8591 -0.0190063 -6.02906e-23)
(24.9232 -0.00209105 0)
(24.9838 0.0116056 0)
(25.0454 0.0214599 0)
(-0.232806 0.419486 8.70967e-22)
(-0.454495 0.666479 0)
(-0.69831 0.824036 0)
(-0.961232 0.864514 1.9846e-21)
(-1.18186 0.794525 0)
(-1.36982 0.678852 0)
(-1.67314 0.699167 0)
(-2.38331 0.734895 0)
(6.40972 -7.90244 0)
(9.54342 -10.6621 0)
(11.4705 -9.92206 0)
(13.4038 -9.05045 -5.71787e-20)
(15.2685 -8.04119 0)
(16.9539 -6.89842 0)
(18.352 -5.69058 9.48948e-20)
(19.4121 -4.52407 0)
(20.1574 -3.47778 1.11405e-22)
(20.6686 -2.59705 0)
(21.0252 -1.89311 -8.24243e-23)
(21.2709 -1.36515 0)
(21.4204 -0.967787 0)
(21.497 -0.61552 -1.02625e-20)
(21.6002 -0.325001 -8.582e-21)
(21.6803 -0.177332 6.62691e-21)
(21.7089 -0.101878 -4.83058e-21)
(21.7175 -0.0574492 0)
(21.7303 -0.047453 9.17783e-24)
(21.7411 -0.0796885 5.41856e-24)
(21.7403 -0.106549 0)
(21.7939 -0.0830811 -1.70447e-21)
(21.9095 -0.161299 0)
(22.0079 -0.29884 -2.0362e-21)
(22.1218 -0.422508 -6.97891e-24)
(22.2811 -0.521389 -1.34833e-21)
(22.4873 -0.577151 0)
(22.7463 -0.661957 2.60233e-21)
(23.0244 -0.912766 -3.08919e-21)
(23.2495 -1.17948 -1.89995e-21)
(23.5278 -1.31608 -1.0454e-21)
(23.8864 -1.35482 -1.68186e-21)
(24.2661 -1.36707 0)
(24.6032 -1.40869 1.61489e-21)
(24.8426 -1.4626 7.48249e-22)
(24.9128 -1.41895 -1.72322e-23)
(24.738 -1.21366 0)
(24.4584 -0.688798 5.57131e-21)
(24.4231 -0.432369 1.46289e-22)
(24.4601 -0.209461 -2.5519e-21)
(24.4618 -0.0698782 0)
(24.4638 -0.037943 -1.63582e-21)
(24.4596 -0.0205867 0)
(24.5014 -0.0522967 0)
(24.5674 -0.016294 0)
(24.6322 0.0245011 0)
(24.6799 -0.0194577 0)
(24.7532 -0.0719761 0)
(24.8309 -0.0613922 0)
(24.9021 -0.040451 2.73859e-23)
(24.9728 -0.0287297 2.47342e-23)
(25.0436 -0.0145665 -1.49223e-23)
(-0.225699 0.440498 0)
(-0.431568 0.726833 -2.71782e-24)
(-0.682655 0.944833 2.31413e-21)
(-0.962293 1.00975 2.65249e-21)
(-1.18545 0.933033 0)
(-1.386 0.81165 0)
(-1.61565 0.913595 0)
(-2.56108 1.31007 -1.0425e-19)
(9.16694 -12.3216 0)
(10.514 -11.7308 0)
(12.2924 -11.1441 0)
(14.1383 -10.3287 -6.18559e-20)
(15.9839 -9.29538 0)
(17.6376 -8.03598 0)
(18.9411 -6.63137 -1.00803e-19)
(19.8488 -5.24152 0)
(20.4184 -3.99503 0)
(20.7621 -2.96603 0)
(20.9797 -2.15673 -2.27801e-20)
(21.1255 -1.54729 -1.7104e-20)
(21.2216 -1.09019 0)
(21.2866 -0.719005 -9.24212e-21)
(21.3716 -0.42161 -7.14798e-21)
(21.463 -0.235956 -5.5264e-21)
(21.5302 -0.133089 -4.08977e-21)
(21.5814 -0.0790283 0)
(21.6336 -0.0645304 0)
(21.686 -0.0889305 0)
(21.7333 -0.122716 0)
(21.8144 -0.138769 0)
(21.9486 -0.214682 0)
(22.0812 -0.344024 1.7871e-21)
(22.2179 -0.484553 0)
(22.3891 -0.6153 0)
(22.6064 -0.700624 -2.16618e-21)
(22.8572 -0.799391 -2.21175e-21)
(23.1409 -1.03122 7.11536e-24)
(23.3865 -1.29443 0)
(23.6355 -1.46985 0)
(23.9009 -1.53486 0)
(24.1895 -1.51635 0)
(24.5011 -1.47005 0)
(24.3863 -1.54823 0)
(23.4859 -1.07794 0)
(22.9383 -0.925118 0)
(22.6562 -0.655676 0)
(22.6411 -0.481769 0)
(22.7716 -0.300092 0)
(23.0839 -0.238997 0)
(23.5387 -0.171512 4.52695e-21)
(24.1109 -0.0780543 0)
(24.4267 -0.0797949 0)
(24.5204 -0.0429389 0)
(24.6036 -0.00507679 0)
(24.6929 -0.0421248 -7.85983e-22)
(24.7472 -0.0981667 0)
(24.8119 -0.0900779 0)
(24.8873 -0.0695905 0)
(24.9645 -0.0582762 0)
(25.0352 -0.0388373 1.34963e-23)
(-0.252139 0.449632 -1.21771e-21)
(-0.396087 0.765185 0)
(-0.618393 1.05084 1.05345e-20)
(-0.893994 1.15966 0)
(-1.13094 1.08696 0)
(-1.36756 0.956451 0)
(-1.54892 0.962918 -2.69793e-20)
(-3.69695 3.11001 0)
(9.82849 -12.3629 -2.14137e-19)
(11.4116 -12.8001 0)
(13.0959 -12.3053 -4.27573e-20)
(14.9046 -11.5948 6.8144e-20)
(16.7286 -10.5673 0)
(18.3177 -9.18164 0)
(19.4592 -7.54243 2.17462e-19)
(20.131 -5.90013 -9.4347e-20)
(20.4675 -4.43818 1.50582e-19)
(20.6261 -3.26877 -5.72348e-20)
(20.7222 -2.3718 -2.09021e-20)
(20.8007 -1.70354 0)
(20.8742 -1.20832 1.10261e-20)
(20.9483 -0.82227 -7.98801e-21)
(21.0419 -0.521163 0)
(21.1527 -0.31613 4.41506e-21)
(21.2591 -0.192509 0)
(21.3572 -0.127598 -2.45886e-21)
(21.4547 -0.107466 1.97751e-21)
(21.5517 -0.126123 0)
(21.6483 -0.1643 0)
(21.766 -0.204566 0)
(21.9218 -0.287835 1.55227e-21)
(22.0853 -0.411368 1.46314e-21)
(22.2516 -0.561709 -1.9733e-21)
(22.4403 -0.71776 0)
(22.6605 -0.830194 2.00133e-21)
(22.9129 -0.93846 -1.23082e-21)
(23.1949 -1.15867 -4.99923e-22)
(23.449 -1.37662 -1.94829e-21)
(23.6318 -1.53986 1.50035e-21)
(23.8357 -1.59506 2.27459e-20)
(22.9601 -1.76123 -2.1733e-20)
(22.3882 -1.3543 1.28847e-23)
(21.7543 -1.08415 4.47835e-21)
(21.2576 -0.86724 -8.01802e-23)
(20.9706 -0.746723 -3.06375e-21)
(20.8174 -0.629651 2.75541e-21)
(20.8413 -0.530727 0)
(21.0048 -0.446015 2.92432e-21)
(21.2839 -0.442418 -2.54761e-24)
(21.5893 -0.433353 0)
(21.9232 -0.356548 0)
(22.2549 -0.272782 0)
(22.6132 -0.288159 0)
(22.967 -0.238487 1.30722e-21)
(23.2278 -0.174116 0)
(23.3474 -0.17466 0)
(23.4161 -0.176917 1.01594e-23)
(23.4807 -0.163439 -1.58123e-23)
(23.5339 -0.145774 -5.56375e-23)
(23.544 -0.0824837 -4.5885e-23)
(-0.311371 0.505752 0)
(-0.436541 0.765852 0)
(-0.550943 1.10108 0)
(-0.74486 1.30801 0)
(-0.996821 1.25416 0)
(-1.25356 1.11939 0)
(-1.45568 1.05689 0)
(-4.28626 2.86641 0)
(11.0516 -13.5573 0)
(12.2591 -13.6858 0)
(13.8264 -13.4118 0)
(15.6079 -12.8461 0)
(17.3956 -11.8418 0)
(18.8497 -10.3022 0)
(19.7158 -8.36736 0)
(20.0409 -6.46773 0)
(20.1216 -4.84605 0)
(20.1549 -3.60518 0)
(20.2288 -2.6532 0)
(20.3355 -1.92969 0)
(20.4549 -1.39088 0)
(20.5801 -0.977697 0)
(20.7191 -0.660508 0)
(20.8718 -0.436517 0)
(21.0239 -0.291628 0)
(21.1678 -0.210976 0)
(21.3076 -0.180222 1.18908e-21)
(21.4428 -0.189837 0)
(21.5758 -0.227365 0)
(21.724 -0.278833 0)
(21.8988 -0.365942 0)
(22.0813 -0.475685 0)
(22.2763 -0.625099 0)
(22.473 -0.789045 0)
(22.6507 -0.907823 0)
(22.9335 -0.981435 0)
(23.232 -1.20481 0)
(22.3587 -1.5562 0)
(21.9007 -1.24149 0)
(21.0924 -1.30801 0)
(20.4022 -1.08262 0)
(19.9035 -0.954509 0)
(19.4675 -0.83304 0)
(19.1654 -0.708883 0)
(19.0159 -0.653515 0)
(18.962 -0.621701 0)
(19.0205 -0.592622 0)
(19.1773 -0.572597 0)
(19.3932 -0.587713 -3.33139e-21)
(19.6083 -0.583807 -3.0522e-21)
(19.8335 -0.519037 0)
(20.0889 -0.452757 0)
(20.3252 -0.43958 0)
(20.5 -0.347556 0)
(20.6649 -0.240188 5.78866e-23)
(20.7824 -0.196364 4.30292e-23)
(20.8505 -0.17385 -4.77451e-23)
(20.8885 -0.146871 0)
(20.8924 -0.107413 -3.49439e-23)
(20.8474 -0.0154946 0)
(-0.374898 0.604142 1.65815e-21)
(-0.496151 0.748987 0)
(-0.549032 1.0442 -4.11999e-21)
(-0.586419 1.37931 9.06038e-21)
(-0.77191 1.42922 0)
(-1.0486 1.34399 0)
(-1.56201 1.2463 0)
(4.56543 -3.08738 1.91481e-19)
(11.568 -14.5882 -5.83954e-21)
(12.7833 -14.5437 0)
(14.3924 -14.4768 -5.92428e-20)
(16.1598 -14.0743 0)
(17.8573 -13.0855 0)
(19.0367 -11.3257 1.39462e-19)
(19.4272 -9.11744 1.32186e-19)
(19.3104 -7.00246 -7.694e-20)
(19.2471 -5.16995 -1.01339e-21)
(19.3555 -3.78234 0)
(19.5683 -2.77825 7.5897e-20)
(19.7904 -2.03702 -7.08982e-20)
(20.0014 -1.48615 -1.26198e-22)
(20.1986 -1.06484 7.65391e-20)
(20.4055 -0.740205 -4.25421e-20)
(20.6206 -0.505632 -4.36423e-20)
(20.8244 -0.348977 0)
(21.0131 -0.258404 -1.10483e-22)
(21.1884 -0.22102 -3.84568e-20)
(21.3518 -0.225216 0)
(21.5031 -0.262753 -3.52815e-20)
(21.6678 -0.321343 -3.48746e-20)
(21.8552 -0.414644 3.41116e-20)
(21.7837 -0.561872 -6.06906e-20)
(21.0028 -0.804537 0)
(20.8539 -0.983693 0)
(20.7554 -0.967641 0)
(20.3402 -0.847114 0)
(19.9427 -1.14623 -1.14088e-21)
(19.5102 -0.9162 -7.0495e-21)
(18.9475 -0.938926 1.43418e-23)
(18.4277 -0.89654 -2.4327e-22)
(17.9482 -0.810304 1.16979e-21)
(17.5883 -0.735315 0)
(17.3182 -0.672262 -2.95188e-22)
(17.1551 -0.62281 0)
(17.0979 -0.619529 0)
(17.1093 -0.638658 0)
(17.1877 -0.65702 0)
(17.3225 -0.67422 0)
(17.4834 -0.695857 0)
(17.6373 -0.691424 2.78737e-21)
(17.7948 -0.64036 0)
(17.9696 -0.579659 1.02137e-21)
(18.1172 -0.529804 9.38262e-22)
(18.2243 -0.429848 -3.57477e-22)
(18.3373 -0.318616 -5.55695e-23)
(18.4356 -0.249331 0)
(18.4975 -0.203917 -1.98428e-23)
(18.5241 -0.157106 -6.56875e-24)
(18.516 -0.0936294 0)
(18.4914 -0.00204567 1.22903e-23)
(-0.421709 0.714767 -1.82259e-21)
(-0.53845 0.749586 0)
(-0.578673 0.958976 0)
(-0.557313 1.31029 -4.01984e-21)
(-0.591884 1.52961 0)
(-0.757877 1.51442 1.63298e-20)
(-0.785962 1.70999 9.23186e-20)
(6.05393 -9.14982 0)
(12.02 -15.1083 2.04532e-20)
(13.2281 -15.3925 -3.968e-20)
(14.794 -15.5062 1.34898e-19)
(16.5019 -15.2527 0)
(17.9884 -14.2248 0)
(18.6247 -12.2329 0)
(18.4371 -9.83719 -5.71759e-19)
(18.499 -6.91289 -5.31308e-22)
(18.1865 -5.43683 0)
(18.0033 -4.09319 0)
(17.8665 -3.06977 5.33008e-20)
(17.7827 -2.29144 0)
(17.7484 -1.70077 -3.12384e-20)
(17.7521 -1.26101 0)
(17.7873 -0.935048 8.5817e-21)
(17.8465 -0.69269 6.23907e-21)
(17.9213 -0.518659 4.26905e-21)
(18.0044 -0.408684 2.94684e-21)
(18.0868 -0.354494 0)
(18.1656 -0.343776 0)
(18.2424 -0.372853 -1.0821e-21)
(18.3139 -0.439736 0)
(18.3374 -0.504164 -6.02028e-22)
(18.2542 -0.261468 -5.77078e-21)
(18.1436 -0.428094 0)
(17.896 -0.717219 1.6953e-21)
(17.6034 -0.737906 -5.19057e-21)
(17.4101 -0.645397 -3.00873e-23)
(17.0707 -0.818856 -8.27241e-22)
(16.6939 -0.707157 1.07807e-21)
(16.3199 -0.68678 0)
(15.9701 -0.649743 1.55263e-22)
(15.6663 -0.61533 5.3694e-22)
(15.4407 -0.591289 5.86491e-22)
(15.2929 -0.580398 -1.95426e-22)
(15.2257 -0.585849 4.34791e-22)
(15.2296 -0.620891 -1.25207e-21)
(15.2784 -0.670893 -1.87989e-21)
(15.3628 -0.716846 0)
(15.4738 -0.752512 -2.57392e-21)
(15.5926 -0.775464 2.75078e-21)
(15.7036 -0.769125 2.6257e-21)
(15.8141 -0.725017 0)
(15.9296 -0.662985 0)
(16.0268 -0.591393 0)
(16.1065 -0.488511 0)
(16.195 -0.3796 0)
(16.2798 -0.296266 -2.70067e-23)
(16.3406 -0.23085 -1.52552e-24)
(16.3733 -0.165243 0)
(16.3847 -0.0892391 -5.69955e-25)
(16.4011 -0.0135494 2.67325e-23)
(-0.469173 0.82208 0)
(-0.574476 0.779449 0)
(-0.613195 0.881846 1.45223e-21)
(-0.570244 1.19059 0)
(-0.584562 1.53748 0)
(-0.75632 1.63839 -1.06029e-20)
(-0.904122 1.25983 -5.89072e-20)
(10.7309 -14.6065 0)
(12.3076 -15.589 0)
(13.533 -16.1305 7.21115e-23)
(15.0232 -16.465 0)
(16.6054 -16.3255 0)
(17.6513 -15.204 -1.48468e-19)
(17.8652 -13.1572 -6.95774e-19)
(18.2871 -9.72081 -1.51005e-19)
(17.1918 -7.42228 -8.60942e-20)
(16.5136 -5.54799 -7.71157e-20)
(16.031 -4.16329 -2.23031e-22)
(15.7203 -3.12536 -4.39996e-20)
(15.5205 -2.34303 0)
(15.4002 -1.75167 0)
(15.3338 -1.30847 -1.66539e-20)
(15.3008 -0.979406 -1.14833e-20)
(15.2903 -0.736105 7.26387e-21)
(15.2978 -0.560902 2.0017e-21)
(15.3183 -0.44619 0)
(15.3437 -0.384023 -1.57259e-22)
(15.3694 -0.365968 -2.91863e-22)
(15.3936 -0.386895 4.29011e-22)
(15.4042 -0.43537 0)
(15.3633 -0.458838 -1.46158e-21)
(15.3018 -0.287151 4.77729e-21)
(15.3128 -0.3285 0)
(15.1571 -0.543268 7.89986e-22)
(14.8874 -0.5986 2.40572e-21)
(14.7067 -0.53531 1.97715e-21)
(14.4645 -0.595568 -8.28755e-22)
(14.1832 -0.540638 0)
(13.9378 -0.511324 -2.51756e-22)
(13.7226 -0.49478 0)
(13.5516 -0.495406 2.5077e-22)
(13.4364 -0.510792 -5.97288e-24)
(13.3787 -0.539828 -1.52141e-22)
(13.3771 -0.582982 4.76495e-22)
(13.4198 -0.643336 0)
(13.4875 -0.710546 1.73166e-21)
(13.5704 -0.769686 2.17592e-21)
(13.6611 -0.812531 -1.52399e-24)
(13.7504 -0.834234 -2.56691e-21)
(13.832 -0.825917 0)