/*--------------------------------*- C++ -*----------------------------------*\
| =========                 |                                                 |
| \\      /  F ield         | OpenFOAM: The Open Source CFD Toolbox           |
|  \\    /   O peration     | Version:  v1912                                 |
|   \\  /    A nd           | Website:  www.openfoam.com                      |
|    \\/     M anipulation  |                                                 |
\*---------------------------------------------------------------------------*/
FoamFile
{
    version     2.0;
    format      ascii;
    class       surfaceScalarField;
    location    "22";
    object      alphaPhi0.water;
}
// * * * * * * * * * * * * * * * * * * * * * * * * * * * * * * * * * * * * * //

dimensions      [0 3 -1 0 0 0 0];
oriented        oriented;


internalField   nonuniform List<scalar> 
40282
(
0.00277417
0.00264356
1.92534
-1.93196
1.92643
0.00553339
-1.91737
1.90518
0.0121963
-1.89007
1.87201
0.0180558
-1.85103
1.82723
0.023798
-1.80065
1.77138
0.0292698
-1.73948
1.70498
0.0344988
-1.66798
1.62852
0.0394652
-1.58664
1.54245
0.0441902
-1.49602
1.44737
0.0486487
-1.39666
1.34389
0.0527673
-1.28914
1.2326
0.0565373
-1.17421
1.11432
0.0598942
-1.05281
0.989988
0.0628214
-0.925767
0.860383
0.0653843
-0.794056
0.726628
0.0674284
-0.658983
0.590028
0.0689549
-0.521561
0.451151
0.0704095
-0.375742
0.289628
0.0861131
-0.179974
0.0659703
0.114004
-0.00421786
0.00559221
1.86022
-1.85575
1.84882
-0.0140699
0.0209978
-1.83919
1.82678
-0.0255824
0.0379865
-1.8116
1.79366
-0.0368275
0.0547671
-1.773
1.74968
-0.0478394
0.0711672
-1.72372
1.69517
-0.0585765
0.0871214
-1.66408
1.63048
-0.0689613
0.10256
-1.59443
1.55596
-0.0789313
0.117399
-1.51514
1.47203
-0.088449
0.131561
-1.42667
1.37916
-0.0974509
0.144966
-1.32952
1.27783
-0.105856
0.157541
-1.22419
1.1686
-0.113635
0.169228
-1.11117
1.05195
-0.120749
0.179969
-0.990981
0.928387
-0.127032
0.189627
-0.864223
0.798541
-0.13233
0.198012
-0.731612
0.663481
-0.136629
0.204759
-0.594329
0.525009
-0.139508
0.208828
-0.454817
0.382116
-0.142007
0.214707
-0.306286
0.229544
-0.16585
0.242592
-0.155754
0.0815044
-0.192467
0.266717
-0.00700014
0.0083469
1.79355
-1.78938
1.78257
-0.0281211
0.0349235
-1.77312
1.76103
-0.0505804
0.0626674
-1.74632
1.72901
-0.0727711
0.0900872
-1.7091
1.68662
-0.0945148
0.116998
-1.66158
1.63404
-0.115688
0.143236
-1.60401
1.57153
-0.136185
0.168657
-1.53667
1.49945
-0.155898
0.193115
-1.45994
1.4182
-0.174711
0.216453
-1.37428
1.32827
-0.192515
0.238532
-1.28022
1.23021
-0.209231
0.259235
-1.17833
1.12463
-0.224796
0.278491
-1.06921
1.01211
-0.239144
0.296243
-0.9534
0.893153
-0.252184
0.31243
-0.831423
0.768298
-0.263704
0.326829
-0.703881
0.638323
-0.273044
0.338601
-0.571826
0.504085
-0.278764
0.346505
-0.43414
0.36177
-0.289068
0.361438
-0.288207
0.215235
-0.318457
0.391429
-0.143836
0.0729365
-0.33992
0.410819
-0.00963038
0.0109061
1.72933
-1.72547
1.71905
-0.0416322
0.0480489
-1.71008
1.69856
-0.0746837
0.0862017
-1.68451
1.66794
-0.107355
0.123922
-1.64888
1.62733
-0.13944
0.160985
-1.60333
1.5769
-0.170747
0.197177
-1.54807
1.51687
-0.201111
0.232315
-1.48333
1.44749
-0.230356
0.266193
-1.4094
1.3691
-0.258282
0.298584
-1.32664
1.28209
-0.284703
0.329252
-1.23551
1.18699
-0.309452
0.35798
-1.13659
1.0844
-0.332419
0.384601
-1.03053
0.975065
-0.353534
0.409001
-0.918104
0.859747
-0.372755
0.431112
-0.800105
0.739286
-0.389848
0.450667
-0.677399
0.614556
-0.403851
0.466694
-0.550583
0.484773
-0.414354
0.480164
-0.416648
0.346762
-0.433724
0.503609
-0.276291
0.206226
-0.463807
0.533872
-0.136891
0.0679639
-0.481715
0.550642
-0.0121262
0.0133333
1.66739
-1.66374
1.65766
-0.0544175
0.0605031
-1.64914
1.63821
-0.0976407
0.108575
-1.62486
1.60912
-0.140387
0.156133
-1.59099
1.57048
-0.182409
0.202912
-1.54763
1.52243
-0.223477
0.248669
-1.49493
1.46514
-0.263386
0.293175
-1.43309
1.39882
-0.301909
0.336186
-1.36234
1.32372
-0.338789
0.377414
-1.28298
1.24018
-0.373748
0.416547
-1.19538
1.14862
-0.406524
0.453277
-1.09999
1.04956
-0.436883
0.487316
-0.997408
0.94364
-0.464648
0.518416
-0.888359
0.831686
-0.489689
0.546362
-0.773757
0.714703
-0.511674
0.570728
-0.654654
0.593629
-0.52966
0.590685
-0.531253
0.466965
-0.546234
0.610523
-0.400802
0.333481
-0.57309
0.640411
-0.265821
0.198333
-0.603121
0.670609
-0.131111
0.0642157
-0.619051
0.685947
-0.0144811
0.0156101
1.60779
-1.60419
1.59847
-0.0665207
0.0722426
-1.59046
1.58017
-0.119391
0.129679
-1.56761
1.55277
-0.171717
0.186554
-1.53567
1.51631
-0.223225
0.242583
-1.49471
1.47087
-0.273651
0.297487
-1.44482
1.41656
-0.322751
0.351009
-1.38612
1.35351
-0.370261
0.402865
-1.31877
1.28193
-0.41586
0.452704
-1.24301
1.20206
-0.459204
0.500152
-1.15913
1.11426
-0.499942
0.544812
-1.06751
1.01895
-0.537734
0.586297
-0.968644
0.916683
-0.57226
0.624221
-0.863162
0.808199
-0.603211
0.658174
-0.751926
0.69448
-0.630041
0.687488
-0.635979
0.576346
-0.652059
0.711692
-0.515185
0.452244
-0.675146
0.738087
-0.38787
0.322715
-0.707415
0.772569
-0.257315
0.191917
-0.737241
0.80264
-0.126505
0.0613881
-0.75199
0.817107
-0.0166764
0.0177173
1.55001
-1.54698
1.54166
-0.0778698
0.0831866
-1.53422
1.52465
-0.139801
0.14937
-1.51295
1.49912
-0.201166
0.214997
-1.48316
1.46507
-0.26167
0.27976
-1.44485
1.4225
-0.321023
0.343367
-1.39804
1.37145
-0.378959
0.405545
-1.34275
1.31196
-0.43517
0.465964
-1.27908
1.24413
-0.489282
0.524228
-1.20714
1.16814
-0.540883
0.579888
-1.12715
1.08422
-0.589533
0.632462
-1.0394
0.99273
-0.634798
0.681466
-0.944282
0.894126
-0.676222
0.726378
-0.84235
0.789059
-0.713296
0.766586
-0.734374
0.678424
-0.745222
0.801173
-0.621291
0.562828
-0.771784
0.830246
-0.502729
0.441023
-0.801416
0.863123
-0.37818
0.314744
-0.837611
0.901047
-0.251065
0.187256
-0.867286
0.931094
-0.123254
0.0595623
-0.881252
0.944944
-0.0186924
0.019635
1.49465
-1.49189
1.48702
-0.0883757
0.0932378
-1.48021
1.47145
-0.158717
0.167484
-1.46071
1.44801
-0.228524
0.24123
-1.43332
1.41664
-0.297482
0.314161
-1.39796
1.37727
-0.365303
0.385996
-1.35455
1.32981
-0.431703
0.456445
-1.30303
1.27421
-0.496339
0.525157
-1.24336
1.21046
-0.558792
0.591687
-1.17554
1.1386
-0.618573
0.655511
-1.09966
1.05876
-0.675158
0.716063
-1.01592
0.971176
-0.728012
0.772751
-0.924591
0.87622
-0.77654
0.824911
-0.82614
0.774447
-0.820029
0.871722
-0.721249
0.666662
-0.857437
0.912024
-0.610725
0.553261
-0.88923
0.946693
-0.494098
0.433451
-0.925294
0.985942
-0.371815
0.309638
-0.964618
1.02679
-0.247173
0.184471
-0.994367
1.05707
-0.121455
0.0589281
-1.00784
1.07037
-0.0205076
0.0213398
1.44117
-1.43852
1.43417
-0.0979362
0.102287
-1.42806
1.4202
-0.175967
0.183835
-1.41055
1.39911
-0.253544
0.264988
-1.38584
1.37074
-0.330365
0.345465
-1.35378
1.33494
-0.406156
0.425003
-1.31418
1.29149
-0.480626
0.503317
-1.26684
1.24021
-0.55342
0.580049
-1.21158
1.18094
-0.624069
0.654711
-1.14828
1.11358
-0.692011
0.726706
-1.07686
1.03811
-0.756642
0.795388
-0.997358
0.954626
-0.817304
0.860036
-0.909948
0.863371
-0.873261
0.919838
-0.81496
0.764798
-0.923579
0.973741
-0.712981
0.659611
-0.96698
1.02035
-0.604688
0.548044
-1.00477
1.06141
-0.489634
0.429776
-1.04721
1.10707
-0.368949
0.307536
-1.08944
1.15085
-0.24575
0.183627
-1.11963
1.18175
-0.121098
0.0596794
-1.13299
1.19441
-0.0220979
0.0228072
1.38974
-1.38743
1.38365
-0.106436
0.110218
-1.37833
1.37147
-0.19135
0.198214
-1.36303
1.35299
-0.275946
0.285984
-1.34132
1.32798
-0.359972
0.37331
-1.31294
1.29616
-0.443177
0.459963
-1.27758
1.25718
-0.525293
0.545695
-1.23491
1.21071
-0.605964
0.630157
-1.18456
1.15642
-0.684681
0.712824
-1.12625
1.09402
-0.76082
0.793049
-1.05971
1.0233
-0.833685
0.870091
-0.984796
0.944189
-0.902495
0.943102
-0.901498
0.85675
-0.966352
1.0111
-0.809994
0.761297
-1.02408
1.07278
-0.710742
0.658413
-1.07416
1.12649
-0.604284
0.548221
-1.11878
1.17484
-0.490276
0.430814
-1.16777
1.22723
-0.370283
0.309042
-1.21313
1.27438
-0.247303
0.185123
-1.24428
1.30646
-0.122439
0.0622012
-1.25812
1.31835
-0.0234384
0.0240125
1.34001
-1.33806
1.33491
-0.113758
0.116912
-1.33047
1.32472
-0.204652
0.210405
-1.31762
1.30914
-0.295432
0.303909
-1.29924
1.28787
-0.385922
0.397296
-1.27497
1.26049
-0.475917
0.490398
-1.24436
1.22653
-0.565204
0.583037
-1.20692
1.18548
-0.653441
0.674887
-1.16212
1.1368
-0.740097
0.765422
-1.10944
1.07999
-0.824506
0.853958
-1.04839
1.01461
-0.905876
0.93966
-0.9786
0.940339
-0.983299
1.02156
-0.899814
0.857025
-1.0557
1.09849
-0.811996
0.764769
-1.12163
1.16886
-0.715413
0.663988
-1.17932
1.23074
-0.610455
0.554722
-1.23177
1.2875
-0.496904
0.437372
-1.28783
1.34736
-0.376559
0.314831
-1.33699
1.39872
-0.25245
0.18953
-1.3698
1.43272
-0.125981
0.0670696
-1.3849
1.44381
-0.0245054
0.0249337
1.29214
-1.29042
1.28795
-0.119782
0.122251
-1.28446
1.27992
-0.215658
0.220196
-1.27429
1.26753
-0.311691
0.318457
-1.25957
1.25036
-0.407803
0.417011
-1.23984
1.22792
-0.503876
0.515796
-1.21452
1.19957
-0.599776
0.614731
-1.18296
1.16462
-0.695201
0.713546
-1.14443
1.12232
-0.789638
0.811755
-1.09817
1.0719
-0.882392
0.908659
-1.04343
1.01266
-0.972592
1.00336
-0.979526
0.943958
-1.05921
1.09478
-0.905902
0.865324
-1.14099
1.18157
-0.822208
0.776562
-1.21618
1.26183
-0.728422
0.677824
-1.2827
1.3333
-0.624724
0.569063
-1.34424
1.3999
-0.510978
0.450821
-1.40837
1.46853
-0.389024
0.325999
-1.46249
1.52552
-0.262102
0.197575
-1.49796
1.56249
-0.132247
0.0746175
-1.51523
1.57286
-0.0252794
0.0255542
1.24615
-1.24485
1.24312
-0.124399
0.126138
-1.24064
1.23741
-0.224167
0.227407
-1.23335
1.22843
-0.324425
0.329348
-1.22258
1.21572
-0.425212
0.432066
-1.20779
1.19868
-0.526538
0.535649
-1.18829
1.17654
-0.628377
0.640135
-1.16329
1.14843
-0.730508
0.745364
-1.13184
1.11339
-0.832482
0.850937
-1.09294
1.07036
-0.933607
0.956184
-1.04553
1.0183
-1.03297
1.06019
-0.988566
0.956197
-1.12946
1.16183
-0.921089
0.88315
-1.22163
1.25957
-0.842307
0.798514
-1.30743
1.35123
-0.751757
0.70203
-1.38442
1.43415
-0.649284
0.59347
-1.4567
1.51251
-0.534701
0.473291
-1.53057
1.59198
-0.409676
0.344351
-1.59143
1.65675
-0.277832
0.210571
-1.63099
1.69825
-0.14199
0.0857493
-1.65142
1.70766
-0.0257465
0.0258639
1.20146
-1.2008
1.19983
-0.127524
0.128503
-1.19842
1.19654
-0.23002
0.2319
-1.19414
1.19116
-0.333381
0.336356
-1.18754
1.1832
-0.437785
0.442128
-1.17804
1.17197
-0.543408
0.549481
-1.16487
1.15663
-0.650361
0.658606
-1.1471
1.13615
-0.758561
0.769513
-1.12362
1.10935
-0.867675
0.881946
-1.09317
1.07491
-0.97707
0.995331
-1.05438
1.03141
-1.08586
1.10883
-1.00581
0.97739
-1.1929
1.22132
-0.945975
0.911394
-1.29662
1.3312
-0.873493
0.83214
-1.3947
1.43605
-0.787234
0.738707
-1.48427
1.53279
-0.686479
0.630472
-1.56953
1.62554
-0.570718
0.507449
-1.65571
1.71898
-0.441102
0.372292
-1.72602
1.79483
-0.301777
0.230381
-1.77191
1.8433
-0.156658
0.102376
-1.79748
1.85176
-0.0259016
0.0258625
1.15863
-1.15843
1.15823
-0.129107
0.129316
-1.15789
1.1574
-0.233112
0.233609
-1.15669
1.15571
-0.338372
0.339349
-1.1544
1.15266
-0.44523
0.446963
-1.15042
1.14756
-0.554048
0.55691
-1.14396
1.1395
-0.665107
0.66957
-1.13402
1.12737
-0.778526
0.785178
-1.11937
1.10983
-0.894141
0.903683
-1.09855
1.08531
-1.01147
1.0247
-1.06989
1.05205
-1.12974
1.14758
-1.03153
1.00807
-1.24789
1.27134
-0.981408
0.951272
-1.36433
1.39446
-0.917392
0.87951
-1.47657
1.51445
-0.837394
0.790857
-1.58135
1.62789
-0.739741
0.683877
-1.68265
1.73851
-0.623127
0.557547
-1.78494
1.85052
-0.487525
0.413806
-1.8689
1.94262
-0.33749
0.260023
-1.92463
2.00209
-0.178363
0.126623
-1.95843
2.01017
-0.0257491
0.02556
1.11728
-1.11735
1.1179
-0.129142
0.128598
-1.11862
1.11949
-0.233415
0.232549
-1.12045
1.12147
-0.339324
0.33831
-1.12246
1.12337
-0.447383
0.44648
-1.12409
1.12453
-0.558149
0.55771
-1.12457
1.12407
-0.672109
0.672601
-1.1229
1.12088
-0.789632
0.791655
-1.11782
1.11353
-0.910791
0.915085
-1.10777
1.10031
-1.03534
1.0428
-1.09087
1.07917
-1.16277
1.17447
-1.06488
1.04768
-1.29223
1.30943
-1.02721
1.00306
-1.42234
1.44648
-0.97484
0.94212
-1.55068
1.5834
-0.904475
0.861521
-1.67374
1.71669
-0.81294
0.758373
-1.79502
1.84959
-0.697364
0.629606
-1.91892
1.98668
-0.555262
0.475131
-2.0231
2.10323
-0.390713
0.304444
-2.09464
2.18091
-0.210904
0.162148
-2.14199
2.19075
-0.0253044
0.0249769
1.07741
-1.0781
1.07935
-0.127675
0.12642
-1.08108
1.08324
-0.230995
0.228833
-1.08581
1.08873
-0.336289
0.333362
-1.09197
1.09544
-0.444237
0.440765
-1.09908
1.10279
-0.555585
0.55187
-1.10648
1.11002
-0.671047
0.667507
-1.11327
1.11608
-0.791271
0.788464
-1.11826
1.11962
-0.916624
0.915267
-1.11992
1.11891
-1.0472
1.0482
-1.11631
1.11179
-1.18286
1.18738
-1.105
1.09555
-1.3232
1.33266
-1.08298
1.06681
-1.4673
1.48347
-1.04649
1.0214
-1.61322
1.6383
-0.990886
0.954281
-1.75767
1.79427
-0.910998
0.860359
-1.90367
1.95431
-0.801381
0.733036
-2.05676
2.1251
-0.654823
0.56723
-2.19153
2.27912
-0.47194
0.372715
-2.28939
2.38861
-0.261612
0.214454
-2.36014
2.4073
-0.0245927
0.024143
1.03882
-1.03991
1.04181
-0.124804
0.122905
-1.04444
1.04778
-0.22601
0.222665
-1.05182
1.05651
-0.329461
0.32477
-1.06182
1.06769
-0.435977
0.430099
-1.07408
1.08092
-0.546468
0.539629
-1.08813
1.0956
-0.661875
0.654402
-1.10323
1.11088
-0.783127
0.775479
-1.11839
1.1256
-0.910915
0.903707
-1.13229
1.13823
-1.04574
1.0398
-1.14315
1.14673
-1.18796
1.18438
-1.14862
1.14841
-1.33776
1.33797
-1.14563
1.13971
-1.49501
1.50092
-1.13003
1.11582
-1.65877
1.67298
-1.09621
1.07025
-1.82679
1.85276
-1.03699
0.995402
-2.00213
2.04372
-0.943786
0.879888
-2.19372
2.25761
-0.8017
0.708348
-2.37505
2.4684
-0.600614
0.483072
-2.51871
2.63625
-0.346995
0.29445
-2.63293
2.68548
-0.0236479
0.0230951
1.00171
-1.00332
1.00578
-0.120675
0.118217
-1.0092
1.01358
-0.218711
0.214332
-1.0189
1.02515
-0.319172
0.312926
-1.03229
1.04032
-0.422982
0.414955
-1.0492
1.05888
-0.531174
0.521493
-1.06931
1.08044
-0.644884
0.633756
-1.09219
1.10446
-0.765293
0.753024
-1.11714
1.13011
-0.893402
0.880434
-1.1432
1.15624
-1.03013
1.01709
-1.169
1.18123
-1.17636
1.16414
-1.19262
1.20283
-1.33299
1.32279
-1.21142
1.2179
-1.50088
1.49441
-1.22163
1.22186
-1.68054
1.68031
-1.21765
1.2079
-1.87172
1.88147
-1.19142
1.16696
-2.07857
2.10303
-1.1324
1.08417
-2.31678
2.365
-1.01783
0.929203
-2.56626
2.65488
-0.81532
0.677593
-2.79172
2.92945
-0.510141
0.432145
-2.99649
3.07448
-0.0225091
0.0218745
0.966062
-0.967767
0.970684
-0.115467
0.11255
-0.97476
0.979993
-0.209415
0.204182
-0.986382
0.993926
-0.30587
0.298326
-1.00262
1.01247
-0.40581
0.395964
-1.02346
1.03558
-0.510336
0.498212
-1.04882
1.06315
-0.620725
0.606391
-1.07855
1.09497
-0.738343
0.721923
-1.11236
1.13065
-0.86444
0.846148
-1.14976
1.16958
-1.00029
0.980478
-1.18997
1.2108
-1.14726
1.12644
-1.23185
1.25292
-1.30686
1.28579
-1.27372
1.2939
-1.48092
1.46074
-1.31303
1.33057
-1.67153
1.654
-1.34581
1.35783
-1.88094
1.86891
-1.36566
1.36834
-2.11538
2.1127
-1.36431
1.35009
-2.39948
2.4137
-1.31988
1.26614
-2.73438
2.78812
-1.18042
1.05097
-3.09736
3.22682
-0.878838
0.79015
-3.5089
3.59759
0.0648173
-0.0497791
-0.0150383
0.0037969
-0.0706541
0.0661969
0.112107
-0.13258
0.0204725
0.128606
-0.109413
-0.019182
0.0860884
-0.0601157
-0.0259727
0.031894
-0.00213539
-0.0297578
-0.0278668
0.056379
-0.0285121
-0.0814994
0.100244
-0.0187447
-0.103362
0.0657067
0.0376552
0.0590497
-0.327599
0.268811
0.727499
-1.15074
0.417959
1.52994
-1.84843
0.318497
2.08039
-2.247
0.166605
2.43129
-2.58488
0.153583
2.62375
-2.6378
0.0140452
2.63819
-2.61834
-0.0198595
2.60325
-2.58781
-0.015445
2.57812
-2.58016
0.00204119
2.6012
-2.65339
0.0521768
2.75575
-2.83798
0.0831111
2.6281
-1.39102
-1.24185
-0.210757
1.49257
-1.28181
-2.44108
3.1806
-0.739521
-3.78393
4.28981
-0.505885
-4.71889
5.08307
-0.364181
-5.39004
5.6456
-0.255564
-5.85497
6.02313
-0.16816
-6.15516
6.25607
-0.100912
-6.33059
6.38324
-0.0526505
-6.41817
6.43873
-0.0205639
-6.44848
6.44997
-0.00148626
-6.44405
6.43393
0.0101242
-6.42085
6.40572
0.0151305
-6.38928
6.37206
0.0172209
-6.35442
6.33658
0.0178353
-6.31875
6.30106
0.0176844
-6.28363
6.26653
0.0171035
-6.24978
6.23345
0.0163359
-6.21758
6.20228
0.0153077
-6.1876
6.17365
0.0139541
-6.16047
6.14812
0.0123527
-6.13664
6.12608
0.010564
-6.11643
6.10765
0.0087812
-6.09965
6.09233
0.00732121
-6.0856
6.07939
0.00621391
-6.07369
6.06851
0.00517577
-6.0639
6.05985
0.00404783
-6.05637
6.05339
0.00298041
-6.05084
6.04863
0.00221061
-6.04667
6.04492
0.00175288
-6.04333
6.0419
0.00143063
-6.04062
6.03945
0.00116922
-6.03834
6.03718
0.00115178
-6.03589
6.03441
0.0014788
-6.03277
6.03107
0.00169638
-6.02947
6.02806
0.00140604
-6.02691
6.02583
0.00108004
-6.02484
6.02365
0.0011948
-6.02243
6.0209
0.00152238
-6.01942
6.01766
0.00176305
0.0221335
0.00658476
-0.0282279
0.0289698
-0.038433
-0.0920423
0.100399
0.0538071
-0.0651683
-0.0355562
0.0469174
0.0671068
-0.0575558
0.0319815
-0.0413252
0.0405555
-0.0194666
0.0491434
-0.0702324
-0.0038092
0.0277627
0.0551974
-0.0791508
-0.0502738
0.0686919
0.0491004
-0.0675185
-0.0800186
0.0817233
0.0251011
-0.0268058
-0.073355
0.0538728
-0.0638748
0.083357
-0.0160977
-0.0600886
-0.416052
0.492238
0.203117
-0.429972
-0.738349
0.966397
0.71622
-1.01352
-0.648141
0.945437
1.31364
-1.37681
-0.423927
0.549707
0.972391
-0.601426
-0.271957
0.00984855
0.388878
-0.256444
-0.0299246
0
0.183585
-0.162676
0.00896679
-5.53794e-17
0.15187
-0.138745
0.0101901
-8.01752e-13
0.111775
-0.063026
0.00603973
8.73674e-24
0.0143589
-1.70687e-18
0.00465761
-1.94188e-12
5.75438e-19
-0.036877
0.036877
-2.40555e-12
0.13377
-0.0396245
1.48422
-1.19016
-0.766367
1.59723
2.32455
-3.15542
-2.37586
3.06425
1.46255
-2.15093
-3.66207
4.17971
1.01973
-1.53737
-4.62756
5.01309
0.739854
-1.12539
-5.34184
5.61849
0.523046
-0.799703
-5.84744
6.03334
0.346848
-0.532746
-6.18133
6.29649
0.210628
-0.325798
-6.38378
6.44818
0.112756
-0.177154
-6.49404
6.52514
0.0479224
-0.0790261
-6.54465
6.55564
0.00775822
-0.0187471
-6.5602
6.55971
-0.0142788
0.0147609
-6.55586
6.54968
-0.0249235
0.0311114
-6.54189
6.533
-0.0295848
0.0384839
-6.5233
6.51305
-0.0313148
0.0415664
-6.50246
6.49169
-0.0314388
0.0422124
-6.48086
6.47008
-0.0306357
0.0414121
-6.45941
6.44891
-0.0293581
0.0398603
-6.43866
6.42872
-0.0275769
0.0375177
-6.41917
6.4101
-0.0251535
0.0342194
-6.40157
6.39364
-0.0222023
0.0301276
-6.38638
6.37979
-0.0188746
0.0254608
-6.37391
6.36873
-0.0155341
0.0207138
-6.3642
6.36024
-0.0127306
0.0166848
-6.35679
6.35378
-0.010583
0.01359
-6.3512
6.34904
-0.00860577
0.0107641
-6.34732
6.34604
-0.00649686
0.00777579
-6.34517
6.34466
-0.0045438
0.00505553
-6.34442
6.34437
-0.00317998
0.00322884
-6.34444
6.34456
-0.00242056
0.00229997
-6.3447
6.34488
-0.0019194
0.00174374
-6.34511
6.34543
-0.00146082
0.00114203
-6.34582
6.34621
-0.00139291
0.00100342
-6.34648
6.34654
-0.00203463
0.00197667
-6.34637
6.34605
-0.00255501
0.00287584
-6.34573
6.34556
-0.00206666
0.00223246
-6.34559
6.34574
-0.00143222
0.00128526
-6.34582
6.3458
-0.00167418
0.00169609
-6.34558
6.34518
-0.00237781
0.00277103
-6.34461
6.34386
-0.00295889
0.00371093
-0.0344258
0.0606445
-0.0257519
0.0316322
-0.0307289
-0.103016
0.102272
0.0311174
-0.0320348
-0.0532472
0.0473538
0.0337464
-0.0267595
0.0493547
-0.0563416
0.0141029
0.00332684
0.0891385
-0.106559
-0.0242173
0.0472898
0.102111
-0.125185
-0.0706439
0.091694
0.086121
-0.107171
-0.106569
0.110317
0.0276966
-0.0314447
-0.100053
0.0791581
-0.100562
0.121457
-0.0633139
0.0556128
-0.523251
0.530952
-0.0413948
-0.00976958
-1.09468
1.15762
0.110322
-0.24346
-1.16332
1.29485
0.36577
-0.018808
-0.455048
0.661828
0
1.14547e-23
1.37069e-19
9.47617e-23
-2.24954e-22
-6.21186e-29
6.26714e-22
-3.56929e-22
4.349e-14
-1.14319e-12
5.53759e-17
7.32864e-15
3.4422e-11
5.31774e-12
8.01752e-13
4.07186e-12
-1.81202e-25
-1.35133e-26
2.64744e-24
0
6.59402e-12
-5.6113e-10
1.94188e-12
-2.4109e-09
-6.81613e-11
3.06798e-12
1.13633e-11
-8.89471e-13
-3.06798e-12
0.975192
1.20399
-1.71881
-1.5378
2.03604
3.787
-4.28523
-2.58701
3.14304
2.77159
-3.32762
-3.67075
4.1547
2.03827
-2.52222
-4.58769
4.96811
1.50801
-1.88843
-5.29632
5.57348
1.07639
-1.35355
-5.80271
5.98887
0.718845
-0.905004
-6.13671
6.25179
0.44125
-0.556332
-6.33957
6.40521
0.242489
-0.308131
-6.45344
6.48814
0.11209
-0.146791
-6.51238
6.52873
0.0325012
-0.0488502
-6.53914
6.54525
-0.0119352
0.00582548
-6.54827
6.54915
-0.0338154
0.0329381
-6.54854
6.5468
-0.0438773
0.0456197
-6.54416
6.54077
-0.0484329
0.0518196
-6.53679
6.53238
-0.0498193
0.0542314
-6.52768
6.52277
-0.0492781
0.0541855
-6.51772
6.51261
-0.0476591
0.0527719
-6.5075
6.50245
-0.0449791
0.0500327
-6.49756
6.49292
-0.0410532
0.0456929
-6.48859
6.48464
-0.0360337
0.0399821
-6.48112
6.47807
-0.0302387
0.0332924
-6.47553
6.4735
-0.0242983
0.0263315
-6.47195
6.47083
-0.0191987
0.0203162
-6.47007
6.46963
-0.0152762
0.0157179
-6.46949
6.46965
-0.011725
0.0115604
-6.47014
6.47096
-0.00798019
0.00716469
-6.47207
6.47343
-0.00461017
0.00325187
-6.47494
6.47651
-0.00245394
0.000885903
-6.47806
6.47953
-0.00148954
1.64248e-05
-6.4809
6.48218
-0.000998834
-0.000279871
-6.48342
6.48471
-0.000321357
-0.000967536
-6.48609
6.48752
-8.82558e-05
-0.00133495
-6.48883
6.48988
-0.00140318
0.000347922
-6.49062
6.49111
-0.00276269
0.00227897
-6.49152
6.4921
-0.00199731
0.00141595
-6.49295
6.49393
-0.000713949
-0.000272744
-6.49482
6.49553
-0.00134067
0.000637273
-6.496
6.49632
-0.00278711
0.00246611
-6.4964
6.49633
-0.00409032
0.00416187
-0.0861833
0.10942
-0.023237
0.0330339
-0.0283958
-0.098793
0.0899212
0.0240499
-0.0187831
-0.043797
0.0382719
0.0120951
-0.00434687
0.0629402
-0.0706884
-0.00716072
0.0229292
0.122669
-0.138479
-0.0427679
0.0666034
0.148382
-0.172217
-0.0932964
0.121907
0.131613
-0.160224
-0.150331
0.174673
0.0430306
-0.0673719
-0.188842
0.0594701
-0.10113
0.114013
-0.00904599
0.0137979
-0.20279
0.0860796
-0.0579423
0.192516
-1.13997
0.676554
-0.231456
0.215141
-1.35894
1.37584
-0.164019
0.0809989
-0.954035
1.09506
-0.0147012
-2.62958e-06
1.91988e-22
0.0147038
-8.54403e-05
-1.11683e-07
4.53261e-07
3.20908e-06
-2.14095e-07
-6.21729e-06
-3.31711e-08
8.82162e-06
1.32411e-05
-3.75277e-07
-1.19935e-07
8.26876e-06
2.34236e-07
-5.76939e-07
-4.80122e-08
1.70012e-07
3.38224e-07
-9.63849e-08
2.71756e-07
3.67906e-07
-1.61645e-08
1.21452e-09
1.25685e-08
3.90144e-20
-0.200265
1.84403
2.85801
-4.34155
-2.18219
2.54152
4.69155
-5.05088
-2.94734
3.38435
3.81388
-4.25089
-3.82525
4.2517
2.97393
-3.40039
-4.64659
5.00131
2.25464
-2.60935
-5.30935
5.56995
1.62199
-1.88258
-5.78391
5.95589
1.08402
-1.256
-6.0914
6.19673
0.666534
-0.771857
-6.27723
6.33891
0.371595
-0.433273
-6.38621
6.42283
0.182035
-0.218655
-6.45121
6.47335
0.067645
-0.0897905
-6.49072
6.50451
0.00375391
-0.017546
-6.51568
6.52496
-0.0281253
0.0188375
-6.53286
6.53953
-0.0433517
0.0366782
-6.54512
6.54964
-0.0513963
0.0468707
-6.5532
6.55596
-0.0551237
0.0523672
-6.55807
6.55962
-0.0558927
0.0543405
-6.56071
6.56138
-0.0549961
0.0543307
-6.56171
6.56179
-0.0524928
0.0524185
-6.56173
6.56162
-0.0480279
0.0481363
-6.56157
6.5616
-0.0418923
0.0418565
-6.56181
6.56222
-0.0345606
0.0341472
-6.56291
6.56389
-0.0268078
0.0258257
-6.56518
6.56672
-0.0200613
0.0185232
-6.56845
6.57032
-0.0149559
0.0130797
-6.57234
6.57452
-0.0103457
0.00816417
-6.5769
6.5795
-0.00541871
0.00281824
-6.58231
6.58527
-0.00106708
-0.00188597
-6.58826
6.5912
0.00138878
-0.00432671
-6.594
6.59661
0.00204175
-0.00465259
-6.599
6.60116
0.00201819
-0.00418527
-6.60318
6.6052
0.00264338
-0.00466133
-6.60737
6.60967
0.00320458
-0.00550701
-6.61188
6.61379
0.00113625
-0.00303826
-6.61525
6.6163
-0.00149133
0.000438695
-6.61717
6.61824
-0.00056025
-0.000511157
-6.61976
6.62151
0.00164163
-0.00339672
-6.62311
6.62438
0.000365289
-0.00163845
-6.62538
6.62627
-0.00184726
0.000955703
-6.62694
6.62736
-0.00396919
0.00354753
-0.127996
0.140829
-0.0128302
0.0295968
-0.0320037
-0.0986253
0.108264
0.0270159
-0.0164517
-0.0304243
0.01986
0.00595068
0.00531543
0.0803437
-0.0916021
-0.0188895
0.0356221
0.154313
-0.168743
-0.056005
0.0815312
0.196377
-0.221338
-0.110977
0.145192
0.191745
-0.22596
-0.184022
0.227123
0.103566
-0.146995
-0.274836
0.32855
-0.109847
0.0561326
-0.39192
0.330384
-0.25428
0.468389
-0.180043
0.0641482
-0.195198
0.120123
-0.0874352
0.435446
-1.32161
0.253306
-0.480718
0.416442
-1.17143
1.23571
-0.315398
0.0538318
-0.615017
0.563103
3.93933e-09
-3.93933e-09
1.91735e-22
-5.26477e-27
-2.59222e-08
8.11659e-08
-2.63911e-06
5.07941e-07
-3.37554e-07
6.98332e-07
-5.2174e-06
2.58262e-07
-1.21412e-05
6.75907e-05
-5.45418e-07
7.54679e-05
-6.93612e-05
0.134202
-1.44555e-06
-0.358738
-0.249629
0.24757
1.2515e-18
0.00205934
-1.83766
2.38955
5.57547
-6.12035
-2.66988
2.98041
5.37861
-5.68914
-3.3194
3.68125
4.64169
-5.00355
-4.05555
4.425
3.79261
-4.16206
-4.77407
5.08965
2.94228
-3.25787
-5.36263
5.59078
2.12626
-2.35441
-5.77482
5.92037
1.41441
-1.55996
-6.03481
6.12513
0.868844
-0.959158
-6.19631
6.25449
0.492016
-0.550202
-6.30345
6.34545
0.256776
-0.298774
-6.38185
6.41368
0.115838
-0.147668
-6.44156
6.4661
0.0360843
-0.0606311
-6.48788
6.50744
-0.00474445
-0.0148194
-6.52538
6.54147
-0.0254217
0.0093244
-6.55612
6.56907
-0.0381846
0.0252353
-6.58041
6.59044
-0.0459515
0.0359197
-6.59932
6.60722
-0.0495592
0.0416651
-6.61421
6.62039
-0.0508321
0.0446554
-6.62581
6.6306
-0.0498914
0.0450962
-6.63489
6.63883
-0.0461222
0.0421863
-6.6425
6.64598
-0.0399859
0.0365033
-6.64934
6.65264
-0.0321922
0.0288871
-6.65596
6.65935
-0.0235465
0.0201584
-6.66284
6.66642
-0.0158755
0.0122914
-6.67005
6.67367
-0.0102627
0.00664094
-6.67727
6.68093
-0.0051889
0.00153079
-6.68465
6.68848
0.000451783
-0.00428272
-6.69244
6.69647
0.00542416
-0.00945449
-6.70046
6.70432
0.00776183
-0.0116216
-6.70797
6.71137
0.00768142
-0.0110842
-6.71448
6.71727
0.00667277
-0.00946203
-6.71977
6.72218
0.00689927
-0.00930918
-6.7248
6.72773
0.00813674
-0.0110614
-6.73064
6.73322
0.00528151
-0.00785483
-6.73527
6.73674
0.000819626
-0.00228936
-6.73782
6.73905
0.00169595
-0.00292961
-6.74101
6.74341
0.00547712
-0.00787758
-6.74554
6.74716
0.0031015
-0.00471641
-6.74843
6.74973
0.00015098
-0.00144174
-6.75089
6.7517
-0.00293241
0.00212953
-0.148623
0.153588
-0.00496515
0.0191494
-0.026074
-0.111373
0.103976
0.0259451
-0.0189834
-0.0104419
0.00348022
0.00934598
0.00263819
0.103541
-0.115475
-0.0163762
0.0346723
0.179284
-0.197581
-0.0568761
0.0846081
0.247555
-0.253692
-0.115949
0.156706
0.261504
-0.291719
-0.200356
0.249718
0.193475
-0.242837
-0.304635
0.365931
0.0015264
-0.0628227
-0.438003
0.525214
-0.381873
0.29461
-0.631101
0.741696
-0.879438
0.832636
-0.561489
0.28234
-0.523049
1.0141
-0.0959308
0.0915344
-0.376306
0.432842
-0.0730555
0.0809832
-0.070678
0.402654
-0.0698985
0.0669837
-6.89224e-20
0.609492
-0.041927
0.0255883
-5.07941e-07
0.331894
-0.044598
0.0568716
-2.57765e-07
0.089805
-0.0150847
0.0808286
2.10387e-05
-0.0655496
-0.639718
0.924644
1.34904
-1.73875
-0.223268
0.875076
0.115595
-0.342792
-2.6418
2.8487
6.351
-6.55791
-3.09477
3.36997
5.98017
-6.25537
-3.66626
3.9798
5.33727
-5.6508
-4.30246
4.62151
4.50281
-4.82186
-4.92133
5.18925
3.54752
-3.81544
-5.41518
5.59741
2.55897
-2.7412
-5.74092
5.85291
1.68784
-1.79983
-5.94536
6.02502
1.04208
-1.12174
-6.09583
6.16235
0.609259
-0.675788
-6.22421
6.27079
0.34638
-0.396349
-6.2908
6.29238
0.186429
-0.200306
-6.2831
6.27128
0.0916747
-0.0962246
-6.26602
6.2728
0.0398564
-0.0488069
-6.29381
6.31886
0.0112603
-0.0251009
-6.3455
6.37123
-0.00861298
-0.00779379
-6.39293
6.40958
-0.0228362
0.00491771
-6.42344
6.43404
-0.0312106
0.0129698
-6.44522
6.45589
-0.0363031
0.0181624
-6.46518
6.47125
-0.038487
0.0210437
-6.47232
6.46732
-0.036752
0.0207348
-6.4557
6.4367
-0.0317752
0.0177091
-6.40901
6.37142
-0.0245933
0.0129468
-6.32465
6.27232
-0.0160001
0.00721185
-6.21802
6.16113
-0.00810606
0.00217302
-6.09887
6.03729
-0.00248647
-0.0010024
-5.99353
5.97363
0.00253034
-0.00327807
-5.96631
5.9625
0.00843186
-0.00604944
-5.9596
5.95653
0.0137191
-0.00882659
-5.94961
5.93404
0.0156762
-0.00969242
-5.9183
5.92132
0.0146866
-0.0089943
-5.92816
5.93788
0.0124483
-0.00764931
-5.95064
5.96962
0.0117692
-0.00718948
-6.00192
6.05409
0.0141289
-0.0107471
-6.12315
6.20142
0.0106463
-0.00911577
-6.28439
6.36867
0.00397211
-0.00392785
-6.4488
6.52078
0.00411501
-0.00349135
-6.5859
6.64446
0.0104871
-0.011558
-6.69774
6.75187
0.00638485
-0.00711408
-6.80868
6.85455
0.00282959
-0.00387112
-6.87167
6.8739
-0.00115019
-2.61777e-05
-0.156249
0.153525
0.00272361
0.0101124
-0.0198176
-0.108189
0.118451
0.0218182
-0.0199435
0.00108337
-0.0029548
0.0135036
-0.00310517
0.126686
-0.137331
-0.0108749
0.0283829
0.227275
-0.244783
-0.0504517
0.0720303
0.277507
-0.33043
-0.105671
0.136841
0.312723
-0.343881
-0.178918
0.233717
0.284464
-0.313467
-0.302819
0.381237
0.122922
-0.188378
-0.454201
0.537783
-0.210256
0.126674
-0.634297
0.743725
-0.717915
0.608486
-0.858619
0.958596
-1.23434
1.13437
-1.03189
0.956956
-1.11461
1.46588
-0.884128
0.86154
-1.07089
1.5382
-0.816278
0.768834
-1.48128
1.52872
-0.729798
0.699214
-1.12245
1.15304
-0.678428
0.620714
-0.201225
0.192926
-0.598915
0.901633
0.802977
-1.28673
-1.01208
0.307585
1.44702
-0.988974
-0.297331
2.72089
1.38444
-3.62971
-3.0876
3.27407
6.75584
-6.94231
-3.48704
3.72339
6.50914
-6.7455
-3.97886
4.24995
5.93879
-6.20988
-4.52505
4.79447
5.11397
-5.38339
-5.04137
5.25028
4.05352
-4.26244
-5.41388
5.53061
2.89388
-3.01061
-5.42717
3.949
1.8935
-0.666523
-2.13969
0.692651
0.941058
-2.5456e-19
-0.101043
-2.58674e-18
0.101043
1.33733e-19
1.62046e-19
-1.295e-19
0
1.25833e-20
1.14855e-19
-1.20225e-19
0
9.32879e-21
1.35186e-19
-1.56743e-19
0
6.66256e-21
1.80623e-19
-2.01644e-19
0
4.28653e-21
2.16158e-19
-2.23308e-19
0
2.54054e-21
2.24803e-19
-2.23515e-19
0
1.38141e-21
2.19359e-19
-1.93593e-19
0
6.26737e-22
6.41746e-20
-3.47034e-22
0
2.81338e-22
3.43801e-22
6.56662e-21
0
-1.27407e-24
-8.21438e-21
2.66955e-21
0
1.70812e-23
5.92985e-23
2.264e-20
4.33681e-19
5.2533e-23
9.16795e-21
-1.69039e-21
0
-3.9231e-24
3.1483e-21
3.42237e-21
0
9.37123e-24
-2.70107e-21
1.19812e-21
0
2.8865e-25
-1.72868e-22
-3.25784e-20
0
8.31953e-23
7.81943e-20
-1.20204e-19
0
1.69759e-22
1.54605e-19
-1.81609e-19
0
2.48124e-22
2.02405e-19
-2.18347e-19
0
3.40918e-22
2.30576e-19