/*--------------------------------*- C++ -*----------------------------------*\
| =========                 |                                                 |
| \\      /  F ield         | OpenFOAM: The Open Source CFD Toolbox           |
|  \\    /   O peration     | Version:  v1912                                 |
|   \\  /    A nd           | Website:  www.openfoam.com                      |
|    \\/     M anipulation  |                                                 |
\*---------------------------------------------------------------------------*/
FoamFile
{
    version     2.0;
    format      ascii;
    class       volScalarField;
    location    "22";
    object      alpha.water;
}
// * * * * * * * * * * * * * * * * * * * * * * * * * * * * * * * * * * * * * //

dimensions      [0 0 0 0 0 0 0];


internalField   nonuniform List<scalar> 
20320
(
1
1
1
1
1
1
1
1
1
1
1
1
1
1
1
1
1
1
1
1
1
1
1
1
1
1
1
1
1
1
1
1
1
1
1
1
1
1
1
1
1
1
1
1
1
1
1
1
1
1
1
1
1
1
1
1
1
1
1
1
1
1
1
1
1
1
1
1
1
1
1
1
1
1
1
1
1
1
1
1
1
1
1
1
1
1
1
1
1
1
1
1
1
1
1
1
1
1
1
1
1
1
1
1
1
1
1
1
1
1
1
1
1
1
1
1
1
1
1
1
1
1
1
1
1
1
1
1
1
1
1
1
1
1
1
1
1
1
1
1
1
1
1
1
1
1
1
1
1
1
1
1
1
1
1
1
1
1
1
1
1
1
1
1
1
1
1
1
1
1
1
1
1
1
1
1
1
1
0.999999
1
1
1
1
1
1
1
1
1
1
1
1
1
1
1
1
1
1
1
1
1
1
1
1
1
1
1
1
1
1
1
1
1
1
1
1
1
1
1
1
1
1
1
1
1
1
1
1
1
1
1
1
1
1
1
1
1
1
1
0.999999
1
1
1
1
1
1
1
1
1
1
1
1
1
1
1
1
1
1
1
0.999999
1
1
1
1
1
1
1
1
1
1
1
1
1
1
1
1
1
1
1
1
1
1
1
1
1
1
1
1
1
1
1
1
1
1
1
1
1
1
1
1
1
1
1
1
1
1
1
1
1
1
1
1
1
1
1
1
1
1
1
1
1
1
1
1
1
1
1
1
1
1
1
1
1
1
1
1
1
1
1
1
1
1
1
1
1
1
1
1
1
1
1
1
1
1
1
1
1
1
1
1
1
1
1
1
1
1
1
1
1
1
1
1
1
1
1
1
1
1
1
1
1
1
1
1
1
1
1
1
1
1
1
1
1
1
1
1
1
1
1
1
1
0.999797
0.999758
1
0.999949
0.999896
0.999995
1
1
1
0.99996
0.996956
1
0.999992
0.999995
0.999995
0.999995
0.999995
0.999995
0.999995
0.999945
0.993437
1
1
1
1
1
1
1
1
1
1
1
1
1
1
1
1
1
1
1
1
1
1
1
1
1
1
1
1
1
1
1
1
1
1
1
1
1
1
1
0.983453
0.975318
1
0.999248
0.999946
0.999627
1
1
1
1
0.985466
1
0.952291
0.266187
0.0882078
0.0461586
0.0400897
0.0248996
0.0015341
3.31271e-19
0.451395
1
1
1
1
1
1
1
1
1
1
1
1
1
1
1
1
1
1
1
1
1
1
1
1
1
1
1
1
1
1
1
1
1
1
1
1
1
1
1
0.995738
0.998268
0.884382
1
0.999882
0.999627
1
1
1
1
0.996074
0.999053
0.62481
-1.22799e-21
-3.56346e-22
3.65624e-14
1.68704e-11
-9.77906e-26
4.55304e-11
6.61831e-12
0.472215
1
1
1
1
1
1
1
1
1
1
1
1
1
1
1
1
1
1
1
1
1
1
1
1
1
1
1
1
1
1
1
1
1
1
1
1
1
1
1
1
0.943017
0.810126
1
0.999864
1
1
1
0.747349
0.118831
0.911001
0.999923
0.978216
-8.8488e-21
2.79673e-06
9.95327e-06
2.04938e-05
2.07099e-07
4.76533e-07
3.06683e-09
0.76494
1
1
1
1
1
1
1
1
1
1
1
1
1
1
1
1
1
1
1
1
1
1
1
1
1
1
1
1
1
1
1
1
1
1
1
1
1
1
1
0.999999
0.966873
1
0.999995
0.997015
0.999429
1
0.998916
1
0.850274
0.114903
0.575965
1
0.702996
-1.53813e-27
5.76698e-07
9.34195e-07
5.01441e-05
0.052646
1.24912e-19
0.983815
1
1
1
1
1
1
1
1
1
1
1
1
1
1
1
1
1
1
1
1
1
1
1
1
1
1
1
1
1
1
1
1
1
1
1
1
1
1
1
1
0.960377
1
0.996887
0.932167
0.969248
0.993872
1
1
0.999925
0.993346
0.407321
0.16455
0.122799
0.0865745
0.0356827
0.119468
0.000366163
0.76862
0.134144
1
1
1
1
1
1
1
1
1
0.999298
0.991439
0.978745
0.968962
0.966713
0.967728
0.968791
0.968607
0.968459
0.968333
0.966656
0.962077
0.953537
0.940263
0.924688
0.90678
0.893087
0.88849
0.885778
0.881968
0.876561
0.87678
0.878662
0.885936
0.902556
0.924317
0.946105
0.963954
0.97883
0.994459
0.999973
1
0.835328
1
0.999123
1
0.926598
0.90845
0.917815
0.974689
1
1
1
0.928351
0.925598
1
1
0.921532
0.958122
0.324059
0.548584
1
1
1
1
1
1
0.868833
0.34498
1.35683e-19
-2.10156e-20
-1.87764e-20
-2.39033e-20
-3.03886e-20
-3.34636e-20
-3.33164e-20
-2.89003e-20
-4.75657e-22
-4.14633e-22
1.44803e-21
-4.89248e-22
-3.54229e-22
1.03058e-21
1.98666e-22
-4.44882e-21
-1.70685e-20
-2.60646e-20
-3.14359e-20
-3.45612e-20
-3.61859e-20
-3.64782e-20
-3.54098e-20
-3.29701e-20
-2.91726e-20
-2.40148e-20
-1.77191e-20
-1.07511e-20
-4.10727e-21
0
0.00218011
0.00882615
1
0.835328
0.980167
1
0.999662
1
1
0.991544
0.99696
0.988328
0.999994
0.999999
1
1
1
1
0.999974
1
0.0500086
0.968144
1
1
1
1
1
0.158845
-9.90238e-20
-3.06935e-20
-3.3302e-20
-2.97191e-20
-2.55201e-20
-2.49423e-20
-2.6058e-20
-2.57843e-20
-2.3177e-20
-1.91963e-20
-1.51867e-20
-1.20114e-20
-9.96401e-21
-8.91711e-21
-8.6036e-21
-8.8005e-21
-9.34608e-21
-1.01001e-20
-1.09374e-20
-1.17703e-20
-1.2532e-20
-1.31715e-20
-1.36596e-20
-1.3998e-20
-1.42254e-20
-1.44139e-20
-1.46537e-20
-1.5024e-20
-1.55508e-20
-1.62052e-20
-1.69522e-20
-1.77965e-20
-1.87767e-20
-1.98159e-20
0.976036
0.946094
0.994234
0.999949
0.99994
1
1
0.999442
0.978022
1
1
0.999786
0.999117
0.999954
1
0.998863
0.999692
0.963698
0.114757
1
1
1
1
1
0.10251
-3.70175e-20
-1.17746e-20
-1.72163e-20
-1.77017e-20
-1.59323e-20
-1.43328e-20
-1.34409e-20
-1.28423e-20
-1.21466e-20
-1.13197e-20
-1.0526e-20
-9.89582e-21
-9.45492e-21
-9.17258e-21
-9.02239e-21
-8.9891e-21
-9.05291e-21
-9.18112e-21
-9.33538e-21
-9.48444e-21
-9.60658e-21
-9.69133e-21
-9.7396e-21
-9.76164e-21
-9.7737e-21
-9.7942e-21
-9.8393e-21
-9.91923e-21
-1.0035e-20
-1.01772e-20
-1.03351e-20
-1.05096e-20
-1.07176e-20
-1.09772e-20
-1.12721e-20
1
1
0.648122
0.999911
0.999862
1
1
0.992066
1
0.944893
0.907427
0.994546
0.999417
0.999999
0.999999
0.999993
1
0.183342
0.770795
1
1
1
1
0.295141
-3.63409e-21
-1.50908e-20
-1.19303e-20
-1.08988e-20
-9.89609e-21
-9.2094e-21
-8.86627e-21
-8.56607e-21
-8.12558e-21
-7.57373e-21
-7.04499e-21
-6.65375e-21
-6.43747e-21
-6.36728e-21
-6.38574e-21
-6.43764e-21
-6.48995e-21
-6.53238e-21
-6.56823e-21
-6.60314e-21
-6.64002e-21
-6.6796e-21
-6.72219e-21
-6.7708e-21
-6.83118e-21
-6.90878e-21
-7.00552e-21
-7.11811e-21
-7.23915e-21
-7.3597e-21
-7.47251e-21
-7.57752e-21
-7.68552e-21
-7.8132e-21
-7.96715e-21
-8.1269e-21
1
0.999535
0.815762
0.999683
0.999788
1
0.969333
0.999522
0.982851
0.817992
0.817965
0.98625
1
1
0.999997
1
1
2.40653e-17
1
1
1
1
0.951431
1.14303e-18
-1.58657e-20
-1.06998e-20
-8.20757e-21
-7.34071e-21
-6.52658e-21
-5.93428e-21
-5.61939e-21
-5.42135e-21
-5.21285e-21
-4.98316e-21
-4.77888e-21
-4.63627e-21
-4.55786e-21
-4.52357e-21
-4.50696e-21
-4.48945e-21
-4.46459e-21
-4.43474e-21
-4.40615e-21
-4.38494e-21
-4.37514e-21
-4.37999e-21
-4.40274e-21
-4.44576e-21
-4.50875e-21
-4.58724e-21
-4.67278e-21
-4.755e-21
-4.82505e-21
-4.87845e-21
-4.91676e-21
-4.94803e-21
-4.98487e-21
-5.03842e-21
-5.10908e-21
-5.18223e-21
1
0.963661
0.996572
0.989476
1
0.986173
0.665709
0.999989
0.851067
0.989242
1
1
1
1
1
1
0.414447
0.47856
1
1
1
1
0.125334
-2.72135e-20
-1.25767e-20
-7.70772e-21
-5.96167e-21
-5.00249e-21
-4.32038e-21
-3.88708e-21
-3.63738e-21
-3.4763e-21
-3.34534e-21
-3.2287e-21
-3.13056e-21
-3.05559e-21
-3.00155e-21
-2.96154e-21
-2.92981e-21
-2.89945e-21
-2.86918e-21
-2.8399e-21
-2.81339e-21
-2.7927e-21
-2.77994e-21
-2.77693e-21
-2.78511e-21
-2.80399e-21
-2.83044e-21
-2.85898e-21
-2.88339e-21
-2.89887e-21
-2.90383e-21
-2.90055e-21
-2.89441e-21
-2.89239e-21
-2.90085e-21
-2.92275e-21
-2.95523e-21
-2.99032e-21
0.95121
0.994784
0.615335
0.9996
1
0.719814
0.997048
0.980767
1
1
0.999999
1
1
0.80719
0.627986
0.461691
-3.9737e-19
0.951627
1
1
1
0.913296
-4.68673e-20
-1.53597e-20
-9.635e-21
-6.07064e-21
-4.51172e-21
-3.59773e-21
-3.00091e-21
-2.62443e-21
-2.3877e-21
-2.22714e-21
-2.10695e-21
-2.01194e-21
-1.93646e-21
-1.87735e-21
-1.83133e-21
-1.79499e-21
-1.7654e-21
-1.74097e-21
-1.71958e-21
-1.70016e-21
-1.68358e-21
-1.67036e-21
-1.66112e-21
-1.65637e-21
-1.65574e-21
-1.65772e-21
-1.65996e-21
-1.65997e-21
-1.65615e-21
-1.64849e-21
-1.63873e-21
-1.62987e-21
-1.62527e-21
-1.62766e-21
-1.6384e-21
-1.65674e-21
-1.67966e-21
-1.70265e-21
0.778934
0.945295
0.509409
1
0.895849
1
0.750948
0.999999
0.999999
1
1
1
0.547402
1.7918e-19
-3.08637e-20
5.8312e-22
-1.45888e-18
1
1
1
1
0.130011
-8.96842e-21
-1.02092e-20
-6.79879e-21
-4.64013e-21
-3.37291e-21
-2.5762e-21
-2.06409e-21
-1.73375e-21
-1.51403e-21
-1.36005e-21
-1.24749e-21
-1.16355e-21
-1.10066e-21
-1.05346e-21
-1.01776e-21
-9.90261e-22
-9.68491e-22
-9.50671e-22
-9.35641e-22
-9.22795e-22
-9.11957e-22
-9.03177e-22
-8.96448e-22
-8.9147e-22
-8.87585e-22
-8.83897e-22
-8.79567e-22
-8.74134e-22
-8.67763e-22
-8.61271e-22
-8.55916e-22
-8.53039e-22
-8.5366e-22
-8.58205e-22
-8.66331e-22
-8.76864e-22
-8.87907e-22
-8.97284e-22
0.987823
0.982361
0.974776
1
0.783829
1
0.672373
1
1
1
1
0.897531
0.00334858
9.00081e-14
4.79718e-13
2.66064e-13
0.574926
1
1
1
0.998791
-3.75765e-19
-1.0827e-20
-7.6476e-21
-4.81247e-21
-3.36715e-21
-2.42425e-21
-1.78662e-21
-1.36633e-21
-1.09014e-21
-9.03708e-22
-7.73709e-22
-6.81268e-22
-6.15028e-22
-5.67398e-22
-5.32916e-22
-5.076e-22
-4.88588e-22
-4.73862e-22
-4.62059e-22
-4.52324e-22
-4.44166e-22
-4.37318e-22
-4.31587e-22
-4.26756e-22
-4.22533e-22
-4.18593e-22
-4.14645e-22
-4.10527e-22
-4.06274e-22
-4.02129e-22
-3.98486e-22
-3.95779e-22
-3.94344e-22
-3.94318e-22
-3.95589e-22
-3.97784e-22
-4.00307e-22
-4.02437e-22
-4.03481e-22
0.985252
0.661801
1
0.137264
0.968797
0.99973
0.976562
1
0.796383
0.631776
0.165242
1.88496e-12
7.61185e-13
7.528e-12
1.16049e-10
-7.94574e-29
0.939995
1
1
1
0.245411
1.69458e-36
-8.45142e-21
-5.27788e-21
-3.48685e-21
-2.42601e-21
-1.6963e-21
-1.19332e-21
-8.60617e-22
-6.43889e-22
-5.00796e-22
-4.04398e-22
-3.38572e-22
-2.93226e-22
-2.61697e-22
-2.39468e-22
-2.23469e-22
-2.11639e-22
-2.02603e-22
-1.95467e-22
-1.89659e-22
-1.8482e-22
-1.8071e-22
-1.77144e-22
-1.73966e-22
-1.71028e-22
-1.68208e-22
-1.65423e-22
-1.62649e-22
-1.59921e-22
-1.5733e-22
-1.5499e-22
-1.53003e-22
-1.51427e-22
-1.50256e-22
-1.49416e-22
-1.48784e-22
-1.48198e-22
-1.47501e-22
-1.4656e-22
0.999883
0.124778
0.00319553
0.0453118
1
1
0.617544
0.564304
1.35232e-21
7.78305e-31
5.16978e-11
8.6049e-11
9.70459e-12
5.90493e-11
1.49921e-09
-1.39565e-18
1
1
1
1
-5.47406e-19
-1.12099e-20
-6.87753e-21
-4.22137e-21
-2.65815e-21
-1.74591e-21
-1.15403e-21
-7.61969e-22
-5.11182e-22
-3.54021e-22
-2.5515e-22
-1.92067e-22
-1.51207e-22
-1.24329e-22
-1.06302e-22
-9.39155e-23
-8.51527e-23
-7.87426e-23
-7.38851e-23
-7.00716e-23
-6.69786e-23
-6.43936e-23
-6.21717e-23
-6.02068e-23
-5.84167e-23
-5.67377e-23
-5.51228e-23
-5.35451e-23
-5.19981e-23
-5.04928e-23
-4.90532e-23
-4.77056e-23
-4.64716e-23
-4.53618e-23
-4.43733e-23
-4.34935e-23
-4.2703e-23
-4.19811e-23
-4.13103e-23
-4.06753e-23
0.627842
0.918761
0.80621
1
0.982731
0.196945
4.8884e-31
3.23141e-14
2.65396e-13
5.52399e-13
6.04738e-11
5.49226e-11
1.30236e-10
2.35557e-09
2.28415e-10
0.610943
1
1
1
0.575477
1.23932e-20
-7.90988e-21
-5.7199e-21
-3.31846e-21
-1.98751e-21
-1.22754e-21
-7.56214e-22
-4.61482e-22
-2.83903e-22
-1.7954e-22
-1.18298e-22
-8.19054e-23
-5.98452e-23
-4.61287e-23
-3.73284e-23
-3.14721e-23
-2.7419e-23
-2.44978e-23
-2.23072e-23
-2.06017e-23
-1.92261e-23
-1.80796e-23
-1.70936e-23
-1.62199e-23
-1.54237e-23
-1.46806e-23
-1.39745e-23
-1.3297e-23
-1.26457e-23
-1.2023e-23
-1.14334e-23
-1.08822e-23
-1.03738e-23
-9.9107e-24
-9.49416e-24
-9.12422e-24
-8.80025e-24
-8.52162e-24
-8.28733e-24
-8.09455e-24
-4.11852e-21
0.0913903
0.390713
0.277307
3.11406e-20
6.21483e-12
6.88057e-11
4.41526e-12
2.35695e-14
1.03196e-08
3.58622e-08
1.18997e-09
4.78578e-09
3.3737e-11
3.39606e-30
0.978776
1
1
1
0.0811888
-5.33701e-21
-8.63347e-21
-4.56394e-21
-2.52841e-21
-1.4449e-21
-8.33818e-22
-4.72728e-22
-2.62788e-22
-1.46103e-22
-8.31333e-23
-4.93228e-23
-3.09237e-23
-2.06452e-23
-1.4688e-23
-1.10775e-23
-8.78017e-24
-7.24464e-24
-6.16842e-24
-5.38021e-24
-4.77897e-24
-4.30258e-24
-3.91163e-24
-3.58021e-24
-3.29086e-24
-3.03194e-24
-2.79579e-24
-2.5777e-24
-2.37507e-24
-2.18684e-24
-2.01289e-24
-1.8535e-24
-1.70912e-24
-1.58006e-24
-1.46638e-24
-1.36796e-24
-1.28451e-24
-1.21559e-24
-1.16067e-24
-1.11903e-24
-1.08939e-24
-1.22798e-27
2.84335e-06
-9.07687e-29
4.40398e-09
3.1927e-09
1.62522e-09
1.20284e-11
6.25586e-16
3.13363e-08
7.86122e-08
2.4952e-08
7.35511e-11
2.1183e-10
4.41035e-12
0.0619645
1
1
1
1
-2.21045e-19
-1.57717e-20
-5.87259e-21
-3.37625e-21
-1.87555e-21
-1.01829e-21
-5.42402e-22
-2.79165e-22
-1.39306e-22
-6.89001e-23
-3.46901e-23
-1.82104e-23
-1.01518e-23
-6.07706e-24
-3.91468e-24
-2.69948e-24
-1.97415e-24
-1.5152e-24
-1.20858e-24
-9.93373e-25
-8.35329e-25
-7.1437e-25
-6.18291e-25
-5.39439e-25
-4.7296e-25
-4.15731e-25
-3.65747e-25
-3.21737e-25
-2.82885e-25
-2.48675e-25
-2.18744e-25
-1.92803e-25
-1.70583e-25
-1.51811e-25
-1.36206e-25
-1.23491e-25
-1.13395e-25
-1.05668e-25
-1.0008e-25
-9.64077e-26
-9.43847e-26
8.78608e-05
6.83214e-06
1.64257e-09
1.29459e-09
2.46869e-10
1.45318e-09
8.12379e-09
5.95356e-08
3.06918e-08
3.39129e-11
3.39129e-11
5.63378e-11
4.79677e-14
3.85838e-15
0.810602
1
1
1
0.36205
-3.08539e-20
-5.36656e-21
-4.25773e-21
-2.55031e-21
-1.35936e-21
-6.89487e-22
-3.34818e-22
-1.54228e-22
-6.7957e-23
-2.93707e-23
-1.2836e-23
-5.8396e-24
-2.83196e-24
-1.48553e-24
-8.46281e-25
-5.21192e-25
-3.43749e-25
-2.40127e-25
-1.75724e-25
-1.33371e-25
-1.04065e-25
-8.28563e-26
-6.69095e-26
-5.45389e-26
-4.47101e-26
-3.67677e-26
-3.02831e-26
-2.49644e-26
-2.06026e-26
-1.70391e-26
-1.41471e-26
-1.18202e-26
-9.96705e-27
-8.50898e-27
-7.37884e-27
-6.5204e-27
-5.88759e-27
-5.44341e-27
-5.15843e-27
-5.00824e-27
-4.96753e-27
0.000285249
-6.47428e-26
7.36341e-10
6.4254e-09
7.20556e-08
-5.00608e-27
1.95685e-08
1.72142e-08
3.39129e-11
5.72869e-11
3.39129e-11
2.59968e-10
1.40269e-11
1.27092e-19
1
1
1
1
0.0137895
-6.47535e-21
-4.84477e-21
-3.31147e-21
-1.87783e-21
-9.47463e-22
-4.44599e-22
-1.94305e-22
-7.88334e-23
-3.011e-23
-1.11378e-23
-4.12953e-24
-1.58848e-24
-6.52478e-25
-2.91552e-25
-1.42707e-25
-7.62908e-26
-4.41494e-26
-2.73392e-26
-1.78895e-26
-1.22221e-26
-8.62514e-27
-6.23172e-27
-4.57694e-27
-3.39887e-27
-2.54261e-27
-1.91156e-27
-1.4428e-27
-1.09351e-27
-8.33229e-28
-6.39695e-28
-4.96329e-28
-3.90579e-28
-3.12969e-28
-2.56392e-28
-2.15535e-28
-1.86488e-28
-1.66405e-28
-1.53216e-28
-1.45413e-28
-1.41816e-28
-1.41257e-28
0.000354209
3.95712e-26
2.5022e-26
9.95541e-08
2.63965e-09
-1.12454e-29
3.32837e-08
7.83551e-09
1.11201e-29
4.92908e-11
1.94053e-05
5.84056e-11
7.51149e-11
0.561195
1
1
1
0.920605
1.3452e-19
-7.57621e-21
-4.1286e-21
-2.56403e-21
-1.35291e-21
-6.35547e-22
-2.71355e-22
-1.04931e-22
-3.68015e-23
-1.192e-23
-3.68155e-24
-1.12655e-24
-3.55355e-25
-1.19566e-25
-4.39475e-26
-1.78361e-26
-7.99395e-27
-3.92541e-27
-2.08557e-27
-1.18134e-27
-7.03293e-28
-4.34551e-28
-2.75877e-28
-1.78577e-28
-1.17242e-28
-7.78131e-29
-5.21307e-29
-3.52528e-29
-2.40976e-29
-1.66933e-29
-1.17604e-29
-8.46012e-30
-6.24184e-30
-4.74282e-30
-3.72455e-30
-3.02999e-30
-2.556e-30
-2.23436e-30
-2.01954e-30
-1.88009e-30
-1.79243e-30
-1.73438e-30
0.00158254
2.88615e-24
7.18243e-09
2.17923e-09
-3.30222e-27
5.7526e-06
-1.80125e-28
7.31283e-28
2.21799e-25
0.000159164
9.64545e-24
3.8591e-10
1.5152e-27
0.989563
1
1
1
0.195856
-1.85004e-21
-4.56445e-21
-3.39256e-21
-1.96711e-21
-9.54511e-22
-4.08574e-22
-1.5542e-22
-5.21121e-23
-1.54511e-23
-4.13596e-24
-1.03491e-24
-2.52522e-25
-6.28296e-26
-1.65951e-26
-4.79692e-27
-1.54347e-27
-5.55124e-28
-2.21703e-28
-9.69251e-29
-4.55833e-29
-2.26839e-29
-1.17785e-29
-6.31387e-30
-3.46878e-30
-1.94413e-30
-1.10907e-30
-6.43799e-31
-3.80838e-31
-2.30196e-31
-1.42695e-31
-9.1101e-32
-6.01488e-32
-4.12116e-32
-2.93722e-32
-2.17927e-32
-1.68191e-32
-1.34732e-32
-1.11645e-32
-9.52819e-33
-8.32971e-33
-7.40674e-33
-6.62769e-33
0.00157707
4.93894e-24
4.59371e-09
-4.07047e-26
0.000130241
-9.58842e-26
5.05389e-06
0.00078254
0.000228816
0.000109949
9.51563e-08
-1.65522e-26
0.258305
1
1
1
1
3.08061e-19
-5.10011e-21
-4.01678e-21
-2.7428e-21
-1.46558e-21
-6.4781e-22
-2.48491e-22
-8.25364e-23
-2.34595e-23
-5.72758e-24
-1.22767e-24
-2.39607e-25
-4.45837e-26
-8.31308e-27
-1.62905e-27
-3.48951e-28
-8.38856e-29
-2.28578e-29
-7.01806e-30
-2.38783e-30
-8.82373e-31
-3.47656e-31
-1.43965e-31
-6.20276e-32
-2.76295e-32
-1.26813e-32
-5.99173e-33
-2.91733e-33
-1.46737e-33
-7.65036e-34
-4.14933e-34
-2.34844e-34
-1.38974e-34
-8.60152e-35
-5.56077e-35
-3.74485e-35
-2.61747e-35
-1.89084e-35
-1.40536e-35
-1.06947e-35
-8.28567e-36
-6.48598e-36
-5.06939e-36
0.00282061
5.88653e-08
8.21584e-09
0.000150224
0.000845444
1.59981e-24
0.000687378
1.18994e-05
2.89083e-06
4.77321e-06
-3.29256e-25
-4.40799e-31
0.925438
1
1
1
0.535426
-2.4491e-21
-3.80127e-21
-3.40097e-21
-2.16051e-21
-1.04702e-21
-4.16994e-22
-1.41145e-22
-4.00974e-23
-9.41614e-24
-1.83282e-24
-3.02159e-25
-4.37738e-26
-5.84855e-27
-7.61633e-28
-1.02295e-28
-1.49432e-29
-2.46949e-30
-4.69867e-31
-1.02392e-31
-2.5067e-32
-6.74151e-33
-1.95448e-33
-6.02546e-34
-1.95772e-34
-6.66945e-35
-2.37733e-35
-8.86378e-36
-3.46218e-36
-1.41974e-36
-6.12454e-37
-2.78281e-37
-1.33142e-37
-6.69436e-38
-3.52514e-38
-1.93562e-38
-1.10301e-38
-6.49281e-39
-3.9307e-39
-2.43663e-39
-1.53978e-39
-9.86456e-40
-6.3564e-40
-4.06604e-40
0.0077245
1.45129e-21
1.74352e-08
8.0419e-05
0.000223183
-2.53651e-23
0.00105917
1.26553e-05
9.55039e-06
1.2907e-08
6.69405e-09
0.122824
1
1
1
1
0.0538994
-1.28419e-22
-3.91852e-21
-2.86799e-21
-1.62489e-21
-7.09473e-22
-2.5181e-22
-7.39134e-23
-1.75422e-23
-3.29934e-24
-4.91589e-25
-5.91258e-26
-5.93858e-27
-5.22732e-28
-4.28298e-29
-3.49859e-30
-3.06366e-31
-3.05552e-32
-3.57227e-33
-4.87889e-34
-7.62077e-35
-1.33041e-35
-2.55052e-36
-5.30426e-37
-1.18703e-37
-2.84471e-38
-7.27979e-39
-1.98628e-39
-5.77391e-40
-1.78654e-40
-5.87402e-41
-2.04675e-41
-7.52821e-42
-2.9089e-42
-1.17475e-42
-4.93322e-43
-2.14404e-43
-9.60392e-44
-4.41702e-44
-2.07819e-44
-9.96202e-45
-4.8384e-45
-2.36034e-45
-1.13926e-45
0.00773145
0.000431129
-5.83165e-27
0.000832366
5.51199e-05
-3.60261e-24
0.00249008
0.0024902
1.56029e-07
1.3879e-07
3.54443e-27
0.905091
1
1
1
0.954699
1.43697e-19
-5.12126e-21
-3.49205e-21
-2.26654e-21
-1.15375e-21
-4.51752e-22
-1.4109e-22
-3.51719e-23
-6.77698e-24
-9.82401e-25
-1.06163e-25
-8.6445e-27
-5.43909e-28
-2.75397e-29
-1.19281e-30
-4.80189e-32
-1.99116e-33
-9.37895e-35
-5.28761e-36
-3.58201e-37
-2.86903e-38
-2.6627e-39
-2.81892e-40
-3.36121e-41
-4.46003e-42
-6.52225e-43
-1.04196e-43
-1.80561e-44
-3.37172e-45
-6.74246e-46
-1.43629e-46
-3.24208e-47
-7.71445e-48
-1.92676e-48
-5.0294e-49
-1.36666e-49
-3.85411e-50
-1.12447e-50
-3.38398e-51
-1.04717e-51
-3.31321e-52
-1.04837e-52
-2.76038e-53
3.42312e-53
0.00770433
0.00263314
-4.86592e-26
1.0699e-06
4.8724e-13
3.48906e-11
0.00113708
0.00114476
1.63434e-07
5.16783e-26
0.162599
1
1
1
1
0.175345
-6.22191e-38
-4.75899e-21
-2.99075e-21
-1.69461e-21
-7.72048e-22
-2.68385e-22
-7.24472e-23
-1.4957e-23
-2.25759e-24
-2.39393e-25
-1.74006e-26
-8.56776e-28
-2.84834e-29
-6.46263e-31
-1.03152e-32
-1.24035e-34
-1.29047e-36
-1.39377e-38
-1.8315e-40
-3.20983e-42
-7.74385e-44
-2.50866e-45
-1.04149e-46
-5.29564e-48
-3.17982e-49
-2.19143e-50
-1.69271e-51
-1.43974e-52
-1.3289e-53
-1.31519e-54
-1.38312e-55
-1.53417e-56
-1.78589e-57
-2.27426e-58
-6.53568e-59
-1.28067e-58
-3.94504e-58
-1.20376e-57
-3.52184e-57
-9.7751e-57
-2.54854e-56
-6.16142e-56
-1.34982e-55
-2.57439e-55
0.00082345
0.000296811
2.34864e-10
1.62225e-08
1.25295e-10
3.69117e-12
7.35822e-05
2.38907e-07
1.49744e-07
5.84112e-26
0.949041
1
1
1
1
3.62939e-19
-6.38997e-21
-4.22079e-21
-2.36554e-21
-1.212e-21
-4.8868e-22
-1.479e-22
-3.36592e-23
-5.56708e-24
-6.27971e-25
-4.52924e-26
-1.9662e-27
-4.79402e-29
-5.92039e-31
-3.0546e-33
-3.73523e-36
-1.21593e-40
-2.69591e-44
-7.07998e-49
-4.72215e-60
-4.27366e-62
-3.90965e-64
-3.40625e-66
-1.62926e-66
-9.19574e-66
-4.72527e-65
-2.30267e-64
-1.0559e-63
-4.59378e-63
-1.9211e-62
-7.61354e-62
-2.93638e-61
-1.07272e-60
-3.85016e-60
-1.32223e-59
-4.43089e-59
-1.44709e-58
-4.5866e-58
-1.41361e-57
-4.20886e-57
-1.20462e-56
-3.3059e-56
-8.69158e-56
-2.18568e-55
-5.22569e-55
8.94326e-27
2.17756e-06
8.25264e-14
1.41125e-17
4.56887e-11
3.61015e-07
2.68216e-06
4.31471e-07
6.15754e-26
0.442662
1
1
1
1
0.318027
-1.57508e-20
-4.80634e-21
-3.21888e-21
-1.79706e-21
-8.32464e-22
-2.91181e-22
-7.47984e-23
-1.3911e-23
-1.7653e-24
-1.39194e-25
-6.09351e-27
-1.27498e-28
-9.64156e-31
-9.49877e-34
-6.95302e-40
-1.27334e-46
-2.74694e-54
-3.24139e-56
-3.7168e-58
-4.03725e-60
-4.07541e-62
-3.78308e-64
-3.43564e-66
-1.40241e-66
-7.71882e-66
-4.00335e-65
-1.93299e-64
-8.7292e-64
-3.80211e-63
-1.56501e-62
-6.13031e-62
-2.32627e-61
-8.32323e-61
-2.93502e-60
-9.78421e-60
-3.21675e-59
-1.02152e-58
-3.15426e-58
-9.5294e-58
-2.79064e-57
-7.92388e-57
-2.18116e-56
-5.82624e-56
-1.5047e-55
-3.67459e-55
4.95532e-06
2.46221e-05
2.62648e-11
1.46961e-09
4.90516e-09
3.729e-07
1.1825e-08
1.9395e-07
1.60101e-18
1
1
1
1
1
9.42342e-19
-4.67325e-21
-3.72533e-21
-2.45143e-21
-1.31578e-21
-5.39809e-22
-1.60887e-22
-3.41746e-23
-4.99559e-24
-4.58628e-25
-2.27929e-26
-4.918e-28
-2.87642e-30
-7.42142e-34
-1.58512e-42
-1.36944e-50
-1.79708e-52
-2.37475e-54
-3.08202e-56
-3.81292e-58
-4.38165e-60
-4.59787e-62
-4.36889e-64
-3.83677e-66
-6.0903e-67
-3.46809e-66
-1.91818e-65
-9.83624e-65
-4.68767e-64
-2.08154e-63
-8.63832e-63
-3.3575e-62
-1.22646e-61
-4.27837e-61
-1.44435e-60
-4.57867e-60
-1.43724e-59
-4.27688e-59
-1.24881e-58
-3.56186e-58
-9.84057e-58
-2.66072e-57
-7.00258e-57
-1.79809e-56
-4.47076e-56
-1.03554e-55
2.04563e-05
5.789e-06
9.8003e-09
7.47489e-09
9.94214e-09
1.83858e-08
2.80399e-07
1.37203e-08
0.862062
1
1
1
1
0.416385
-7.85513e-21
-4.7112e-21
-3.04055e-21
-1.90689e-21
-9.17253e-22
-3.24424e-22
-8.09135e-23
-1.38134e-23
-1.51437e-24
-9.21502e-26
-2.40644e-27
-1.51032e-29
-3.42546e-33
-4.26323e-43
-7.11784e-49
-1.03937e-50
-1.54099e-52
-2.27439e-54
-3.23807e-56
-4.30657e-58
-5.21715e-60
-5.68196e-62
-5.54165e-64
-4.85405e-66
-1.39497e-67
-6.78767e-67
-4.17495e-66
-2.3607e-65
-1.22608e-64
-5.85807e-64
-2.57935e-63
-1.04892e-62
-3.94917e-62
-1.38136e-61
-4.5021e-61
-1.37277e-60
-3.93198e-60
-1.06399e-59
-2.85263e-59
-7.28738e-59
-1.81363e-58
-4.49004e-58
-1.07527e-57
-2.52472e-57
-5.71455e-57
-1.20376e-56
1.13321e-07
5.0978e-08
1.77303e-08
1.06278e-07
2.83436e-08
2.97911e-07
2.92447e-08
0.345939
1
1
1
1
1
1.1414e-19
-1.12039e-20
-4.37288e-21
-2.63579e-21
-1.4257e-21
-5.92244e-22
-1.77677e-22
-3.63727e-23
-4.82385e-24
-3.7078e-25
-1.29194e-26
-1.15929e-28
-4.41965e-32
-2.05836e-42
-3.17448e-47
-5.15972e-49
-8.55111e-51
-1.42711e-52
-2.3305e-54
-3.58813e-56
-5.03451e-58
-6.31446e-60
-7.05357e-62
-7.03693e-64
-6.28661e-66
-5.64308e-68
-4.73996e-68
-3.36991e-67
-2.21546e-66
-1.32412e-65
-7.16018e-65
-3.49495e-64
-1.54063e-63
-6.14686e-63
-2.2276e-62
-7.35906e-62
-2.22561e-61
-6.19653e-61
-1.59853e-60
-3.8554e-60
-8.78809e-60
-1.91791e-59
-4.05935e-59
-8.43358e-59
-1.78985e-58
-3.62937e-58
-7.46301e-58
1.70152e-07
3.82636e-08
1.12112e-07
1.7796e-08
6.00032e-07
2.8382e-07
0.0103372
1
1
1
1
1
0.413207
-6.97343e-21
-7.16077e-21
-3.6437e-21
-2.04898e-21
-9.72254e-22
-3.48417e-22
-8.75982e-23
-1.43801e-23
-1.41398e-24
-6.83858e-26
-9.96816e-28
-8.63157e-31
-5.69843e-41
-1.19273e-45
-2.16277e-47
-3.99241e-49
-7.46976e-51
-1.38397e-52
-2.44342e-54
-3.93072e-56
-5.621e-58
-7.16075e-60
-8.14641e-62
-8.29434e-64
-7.5715e-66
-6.22399e-68
-2.01244e-69
-1.18209e-68
-8.41383e-68
-5.59785e-67
-3.44842e-66
-1.93541e-65
-9.74126e-65
-4.34886e-64
-1.71663e-63
-5.99592e-63
-1.86031e-62
-5.15987e-62
-1.29009e-61
-2.94176e-61
-6.21086e-61
-1.23589e-60
-2.36483e-60
-4.44286e-60
-8.41409e-60
-1.66747e-59
-3.54102e-59
9.10856e-10
3.48104e-10
1.82313e-08
9.86966e-07
5.80091e-07
-6.92403e-19
0.976973
1
1
1
1
1
-2.88028e-19
-5.4285e-21
-4.2398e-21
-2.74579e-21
-1.45628e-21
-6.07393e-22
-1.86481e-22
-3.86862e-23
-4.94264e-24
-3.36753e-25
-8.31768e-27
-1.8988e-29
-3.79908e-34
-3.72987e-44
-7.54839e-46
-1.55316e-47
-3.24038e-49
-6.74378e-51
-1.34962e-52
-2.46863e-54
-4.01066e-56
-5.80567e-58
-7.50875e-60
-8.69166e-62
-9.02009e-64
-8.40679e-66
-7.04264e-68
-5.72183e-70
-3.26648e-70
-2.37564e-69
-1.63069e-68
-1.03387e-67
-5.9974e-67
-3.16801e-66
-1.52312e-65
-6.60878e-65
-2.54652e-64
-8.57484e-64
-2.50787e-63
-6.39087e-63
-1.43597e-62
-2.89552e-62
-5.374e-62
-9.47331e-62
-1.65577e-61
-3.02217e-61
-5.82077e-61
-1.02999e-60
9.10856e-10
1.71569e-06
4.73539e-10
2.62164e-06
3.14264e-19
0.87114
1
1
1
1
1
0.265094
-8.50063e-21
-5.63568e-21
-3.60079e-21
-2.06341e-21
-9.64717e-22
-3.49608e-22
-9.10552e-23
-1.53641e-23
-1.47885e-24
-6.27114e-26
-4.59598e-28
-2.05149e-31
-1.88899e-36
-2.1765e-44
-4.98432e-46
-1.15913e-47
-2.69565e-49
-6.06971e-51
-1.2553e-52
-2.30732e-54
-3.77806e-56
-5.52927e-58
-7.24951e-60
-8.52555e-62
-9.00793e-64
-8.56106e-66
-7.32453e-68
-5.65503e-70
-1.12109e-71
-5.56745e-71
-3.96246e-70
-2.60488e-69
-1.56533e-68
-8.5627e-68
-4.24796e-67
-1.892e-66
-7.45651e-66
-2.58559e-65
-7.91019e-65
-2.12396e-64
-4.94308e-64
-9.97694e-64
-1.77983e-63
-2.90398e-63
-4.55762e-63
-7.3267e-63
-1.22866e-62
-1.85824e-62
7.81124e-08
1.97024e-06
1.5811e-06
4.22592e-07
0.788968
1
1
1
1
1
0.986517
-2.53415e-19
-3.51345e-21
-4.2525e-21
-2.89127e-21
-1.45014e-21
-5.89445e-22
-1.853e-22
-4.09801e-23
-5.61148e-24
-3.97941e-25
-9.01276e-27
-4.64287e-29
-1.08565e-31
-3.48799e-37
-1.3147e-44
-3.39639e-46
-8.81311e-48
-2.22543e-49
-5.19257e-51
-1.07681e-52
-1.98645e-54
-3.27257e-56
-4.83287e-58
-6.41159e-60
-7.64978e-62
-8.21814e-64
-7.9532e-66
-6.93723e-68
-5.45884e-70
-4.00633e-72
-1.08912e-72
-7.86044e-72
-5.36702e-71
-3.35563e-70
-1.90733e-69
-9.8025e-69
-4.51477e-68
-1.84259e-67
-6.60162e-67
-2.06381e-66
-5.59555e-66
-1.307e-65
-2.63269e-65
-4.62543e-65
-7.1649e-65
-1.00117e-64
-1.32911e-64
-1.77753e-64
-2.33588e-64
1.11524e-06
1.64705e-17
1.71559e-17
0.834282
1
1
1
1
1
1
0.0918601
-1.55274e-21
-5.12518e-21
-3.86804e-21
-2.12582e-21
-9.2311e-22
-3.30291e-22
-9.15501e-23
-1.75884e-23
-2.02428e-24
-1.10354e-25
-2.19502e-27
-3.32883e-29
-8.4202e-32
-4.60309e-38
-8.15965e-45
-2.35144e-46
-6.64616e-48
-1.7485e-49
-4.09307e-51
-8.49976e-53
-1.57231e-54
-2.60193e-56
-3.86916e-58
-5.18172e-60
-6.2559e-62
-6.81803e-64
-6.70545e-66
-5.95247e-68
-4.77058e-70
-3.45316e-72
-3.83378e-74
-1.22275e-73
-8.70601e-73
-5.69144e-72
-3.38217e-71
-1.81367e-70
-8.69455e-70
-3.68973e-69
-1.37197e-68
-4.42496e-68
-1.22738e-67
-2.90516e-67
-5.84372e-67
-1.00082e-66
-1.47092e-66
-1.88256e-66
-2.16003e-66
-2.36988e-66
-2.68201e-66
0.208561
0.114547
1
1
1
1
1
1
1
0.565593
-2.99937e-21
-6.66076e-21
-5.32589e-21
-2.9608e-21
-1.38221e-21
-5.36892e-22
-1.73781e-22
-4.38911e-23
-7.75196e-24
-8.35221e-25
-4.43942e-26
-1.59767e-27
-2.48934e-29
-4.8887e-32
-3.93564e-39
-5.1447e-45
-1.61858e-46
-4.79412e-48
-1.26691e-49
-2.9646e-51
-6.1631e-53
-1.14198e-54
-1.89604e-56
-2.83275e-58
-3.82019e-60
-4.65474e-62
-5.13144e-64
-5.11583e-66
-4.60878e-68
-3.75298e-70
-2.76074e-72
-1.8446e-74
-1.23998e-75
-8.61526e-75
-6.02795e-74
-3.84199e-73
-2.20951e-72
-1.13512e-71
-5.1489e-71
-2.03977e-70
-6.96538e-70
-2.02639e-69
-4.96849e-69
-1.01834e-68
-1.73931e-68
-2.48277e-68
-2.9902e-68
-3.09614e-68
-2.93196e-68
-2.91429e-68
1
1
1
1
1
1
1
1
1
1
1
1
1
1
1
1
1
1
1
1
1
1
1
1
1
1
1
1
1
1
1
1
1
1
1
1
1
1
1
1
1
1
1
1
1
1
1
1
1
1
1
1
1
1
1
1
1
1
1
1
1
1
1
1
1
1
1
1
1
1
1
1
1
1
1
1
1
1
1
1
1
1
1
1
1
1
1
1
1
1
1
1
1
1
1
1
1
1
1
1
1
1
1
1
1
1
1
1
1
1
1
1
1
1
1
1
1
1
1
1
1
1
1
1
1
1
1
1
1
1
1
1
1
1
1
1
1
1
1
1
1
1
1
1
1
1
1
1
1
1
1
1
1
1
1
1
1
1
1
1
1
1
1
1
1
1
1
1
1
1
1
1
1
1
1
1
1
1
1
1
1
1
1
1
1
1
1
1
1
1
1
1
1
1
1
1
1
1
1
1
1
1
1
1
1
1
1
1
1
1
1
1
1
1
1
1
1
1
1
1
1
1
1
1
1
1
1
1
1
1
1
1
1
1
1
1
1
1
1
1
0.909446
1
1
1
1
1
1
1
1
1
1
1
0.999979
0.998311
0.990201
0.968161
0.922184
0.840138
0.696761
0.464329
-1.01326e-28
0.126835
0.134631
0.118208
0.10071
0.0871647
0.0715443
0.0516683
0.0306839
0.0113942
-3.04976e-25
-2.88276e-22
-1.61258e-22
-1.18966e-22
-9.43503e-23
-7.72153e-23
-6.39803e-23
-5.6565e-23
-9.86678e-24
-8.99359e-25
-6.84007e-30
-5.86365e-29
-4.19393e-28
-2.855e-27
-6.50003e-27
-4.21444e-27
-7.33687e-27
-2.13248e-26
-4.59969e-26
-8.30889e-26
-1.20044e-25
-1.38176e-25
-1.39238e-25
-1.29148e-25
-1.13022e-25
-9.45666e-26
-7.71073e-26
-6.4682e-26
-5.4544e-26
-4.20103e-26
-1.15204e-30
-5.9318e-30
-3.14872e-29
-1.48409e-28
-3.63656e-28
-6.78454e-28
-1.1183e-27
-1.76602e-27
-2.69977e-27
-3.75776e-27
-4.39594e-27
-4.4144e-27
-4.02985e-27
-3.45893e-27
-2.83759e-27
-2.24888e-27
-1.75085e-27
-1.37342e-27
-1.06998e-27
-7.84202e-28
-1.98689e-31
-2.70904e-31
-9.55886e-31
-3.34882e-30
-9.53669e-30
-2.01735e-29
-3.68971e-29
-6.07547e-29
-9.02007e-29
-1.18349e-28
-1.35696e-28
-1.38705e-28
-1.29979e-28
-1.13836e-28
-9.43564e-29
-7.48303e-29
-5.75109e-29
-4.32776e-29
-3.15593e-29
-2.16922e-29
-2.52002e-32
-1.3378e-32
-3.46497e-32
-1.08247e-31
-3.24988e-31
-7.61221e-31
-1.50168e-30
-2.56058e-30
-3.81542e-30
-4.98815e-30
-5.76625e-30
-5.98686e-30
-5.67963e-30
-4.99399e-30
-4.11708e-30
-3.21476e-30
-2.39854e-30
-1.71646e-30
-1.16986e-30
-7.48431e-31
-2.4633e-33
-6.53182e-34
-1.32826e-33
-4.272e-33
-1.32348e-32
-3.35983e-32
-6.9569e-32
-1.20721e-31
-1.7914e-31
-2.31368e-31
-2.64421e-31
-2.71824e-31
-2.55121e-31
-2.21293e-31
-1.79077e-31
-1.3613e-31
-9.76121e-32
-6.60258e-32
-4.19174e-32
-2.4791e-32
-1.90799e-34
-2.30916e-35
-4.60952e-35
-1.70218e-34
-5.58097e-34
-1.4752e-33
-3.08794e-33
-5.27271e-33
-7.59006e-33
-9.49576e-33
-1.05709e-32
-1.06511e-32
-9.82522e-33
-8.35483e-33
-6.57323e-33
-4.79409e-33
-3.24478e-33
-2.03873e-33
-1.18877e-33
-6.43451e-34
-1.09851e-35
-4.82168e-37
-1.32941e-36
-5.98684e-36
-2.06193e-35
-5.43623e-35
-1.11095e-34
-1.80976e-34
-2.47822e-34
-2.98298e-34
-3.23812e-34
-3.20157e-34
-2.88605e-34
-2.36775e-34
-1.76662e-34
-1.20123e-34
-7.48186e-35
-4.30039e-35
-2.30053e-35
-1.15555e-35
-2.22549e-37
-1.01723e-38
-2.89499e-38
-1.51262e-37
-5.32149e-37
-1.37294e-36
-2.68817e-36
-4.12462e-36
-5.37254e-36
-6.29092e-36
-6.71885e-36
-6.48403e-36
-5.58749e-36
-4.28138e-36
-2.93216e-36
-1.81805e-36
-1.03823e-36
-5.55397e-37
-2.81846e-37
-1.36696e-37
-3.07704e-40
-2.5016e-40
-3.98873e-40
-2.13228e-39
-7.22524e-39
-1.79953e-38
-3.36767e-38
-4.90554e-38
-6.198e-38
-7.20544e-38
-7.60028e-38
-7.04065e-38
-5.64145e-38
-3.93977e-38
-2.45739e-38
-1.41204e-38
-7.66228e-39
-3.9698e-39
-1.96553e-39
-9.30458e-40
-2.67353e-44
-6.26995e-43
-2.07859e-42
-9.95354e-42
-3.11458e-41
-7.43106e-41
-1.33446e-40
-1.87014e-40
-2.34127e-40
-2.73761e-40
-2.8386e-40
-2.48756e-40
-1.83087e-40
-1.16797e-40
-6.78916e-41
-3.73975e-41
-1.97109e-41
-9.86351e-42
-4.67197e-42
-2.1119e-42
1
1
1
1
1
1
1
1
1
1
1
1
1
1
1
1
1
1
1
1
1
1
1
1
1
1
1
1
1
1
1
1
1
1
1
1
1
1
1
1
1
1
1
1
1
1
1
1
1
1
1
1
1
1
1
1
1
1
1