/*--------------------------------*- C++ -*----------------------------------*\
| =========                 |                                                 |
| \\      /  F ield         | OpenFOAM: The Open Source CFD Toolbox           |
|  \\    /   O peration     | Version:  v1912                                 |
|   \\  /    A nd           | Website:  www.openfoam.com                      |
|    \\/     M anipulation  |                                                 |
\*---------------------------------------------------------------------------*/
FoamFile
{
    version     2.0;
    format      ascii;
    class       volScalarField;
    location    "22";
    object      epsilon;
}
// * * * * * * * * * * * * * * * * * * * * * * * * * * * * * * * * * * * * * //

dimensions      [0 2 -3 0 0 0 0];


internalField   nonuniform List<scalar> 
20320
(
4.44093e-05
0.0002144
0.000220282
0.000226109
0.000231835
0.000237418
0.000242799
0.000247907
0.000252657
0.000256954
0.000260683
0.000263712
0.000265883
0.000266994
0.000266789
0.000265353
0.000270202
0.00036219
0.000973066
0.00250245
4.40104e-05
4.39263e-05
4.4666e-05
4.64176e-05
4.96953e-05
5.51431e-05
6.3551e-05
7.59284e-05
9.3527e-05
0.000117865
0.000150726
0.000194099
0.000250099
0.000320647
0.000406819
0.000513846
0.000741623
0.00172466
0.00406694
0.0065092
4.44181e-05
4.49152e-05
4.61195e-05
4.81316e-05
5.13919e-05
5.65075e-05
6.43304e-05
7.61189e-05
9.37162e-05
0.000119751
0.000157783
0.000212365
0.000288857
0.000392739
0.00052818
0.000720226
0.00126203
0.00326042
0.00670352
0.00995972
4.50016e-05
4.64905e-05
4.87652e-05
5.18617e-05
5.62392e-05
6.25357e-05
7.16498e-05
8.49222e-05
0.000104391
0.000133142
0.000175741
0.00023857
0.000329739
0.000457587
0.000630029
0.00091511
0.00186856
0.00481541
0.00903327
0.0132233
4.57244e-05
4.85402e-05
5.22543e-05
5.68286e-05
6.27444e-05
7.06821e-05
8.15951e-05
9.69012e-05
0.000118751
0.000150483
0.00019725
0.000266729
0.000369323
0.00051609
0.000721812
0.00112326
0.00256348
0.00635154
0.011159
0.0163341
4.65651e-05
5.10499e-05
5.66115e-05
6.31398e-05
7.11244e-05
8.12803e-05
9.46173e-05
0.000112608
0.000137484
0.000172725
0.000223792
0.000299138
0.00041076
0.000572255
0.000810074
0.00135523
0.00332863
0.00785301
0.0131438
0.019328
4.74959e-05
5.3962e-05
6.17754e-05
7.07596e-05
8.13948e-05
9.44239e-05
0.000110893
0.000132318
0.000160997
0.000200501
0.000256498
0.000337887
0.0004576
0.000631339
0.000901853
0.00161594
0.0041396
0.0093116
0.0150304
0.0222485
4.84826e-05
5.7196e-05
6.76451e-05
7.95958e-05
9.35144e-05
0.000110154
0.000130577
0.00015633
0.000189739
0.000234454
0.00029631
0.000384493
0.000512456
0.000697687
0.0010033
0.00190703
0.00497548
0.0107273
0.016851
0.0251375
4.94832e-05
6.06395e-05
7.40491e-05
8.94498e-05
0.000107301
0.000128352
0.00015368
0.000184828
0.000224118
0.000275264
0.00034423
0.000440429
0.000577607
0.000774946
0.00111938
0.00222755
0.00582189
0.0121082
0.0186373
0.0280395
5.04493e-05
6.41425e-05
8.07315e-05
9.99857e-05
0.000122379
0.000148677
0.000179979
0.000217798
0.000264431
0.00032362
0.000401419
0.000507446
0.000655609
0.00086684
0.00125447
0.00257515
0.00667104
0.0134696
0.0204234
0.031005
5.13272e-05
6.75194e-05
8.73503e-05
0.000110713
0.00013815
0.000170509
0.000208943
0.000254942
0.000310775
0.000380162
0.000469219
0.000587751
0.000749737
0.000977932
0.00141335
0.00294799
0.00752189
0.0148345
0.022251
0.0340949
5.20627e-05
7.05587e-05
9.34922e-05
0.000120995
0.000153787
0.000192913
0.000239661
0.000295584
0.000362943
0.000445403
0.000549147
0.000684137
0.000864372
0.00111438
0.00160248
0.003347
0.00838137
0.0162375
0.024179
0.0373899
5.26068e-05
7.30453e-05
9.87105e-05
0.000130107
0.000168285
0.000214659
0.00027083
0.000338596
0.000420298
0.000519614
0.000642839
0.000800107
0.00100544
0.00128491
0.00183183
0.00377914
0.00926774
0.0177321
0.0262938
0.0410104
5.29225e-05
7.4788e-05
0.000102581
0.000137311
0.000180542
0.000234284
0.00030075
0.00038229
0.000481583
0.000602554
0.000751803
0.00093979
0.00118076
0.00150195
0.00211738
0.0042618
0.0102171
0.0194052
0.0287384
0.0451219
5.29902e-05
7.565e-05
0.000104771
0.000141967
0.000189499
0.000250232
0.000327403
0.000424382
0.000544705
0.000693094
0.000876944
0.00110759
0.00140014
0.00178289
0.00248471
0.00482992
0.0112961
0.0214062
0.0317621
0.0500314
5.28121e-05
7.55742e-05
0.000105098
0.000143648
0.000194304
0.000261054
0.000348616
0.000462034
0.000606562
0.000788715
0.00101777
0.00130727
0.00167491
0.00215117
0.00297368
0.00554723
0.0126278
0.0240107
0.0358462
0.0563522
5.24109e-05
7.45942e-05
0.000103572
0.000142221
0.000194475
0.00026563
0.000362322
0.000492033
0.000662938
0.000884937
0.00117119
0.00154013
0.00201591
0.00263557
0.00364263
0.0065217
0.0144371
0.027759
0.0420302
0.065495
5.18265e-05
7.28281e-05
0.000100389
0.00013788
0.000190004
0.000263399
0.000366895
0.000511142
0.000708646
0.000974848
0.00132993
0.00180186
0.00242858
0.00326467
0.00456704
0.00791835
0.0171222
0.0337573
0.0528375
0.081306
5.11093e-05
7.04564e-05
9.58994e-05
0.000131117
0.000181379
0.000254502
0.000361507
0.000516675
0.000738122
0.00104925
0.00148135
0.00207871
0.00290479
0.00405272
0.00582192
0.00994557
0.0213093
0.044256
0.0752057
0.117587
5.03124e-05
6.76895e-05
9.05347e-05
0.000122623
0.000169507
0.000239814
0.000346405
0.000507144
0.000746457
0.00109772
0.00160752
0.00234435
0.00341224
0.0049737
0.00742883
0.0127562
0.0276562
0.0629905
0.128381
0.252392
1.8975
4.55935
7.60503
11.0019
14.806
20.4003
29.2187
41.685
54.2009
58.7441
95.3871
215.006
402.946
616.973
790.091
985.212
1247.28
1649.76
2275.88
3024.44
3417.46
2590.19
1896.73
1470.87
1174.27
948.589
770.319
628.51
516.089
427.341
357.407
302.565
258.951
223.684
194.828
170.998
151.162
134.539
120.558
108.765
98.7925
90.3459
83.1673
77.0357
71.784
67.2743
63.3967
60.0499
57.143
54.6023
52.3698
50.396
48.6498
47.1077
45.7553
44.5854
43.5781
42.7163
41.9911
41.403
3.81014
2.03296
2.87204
3.88452
5.23464
7.33366
10.7886
16.2413
24.1044
35.1159
62.773
128.467
230.37
352.439
407.822
487.219
617.065
826.723
1157.88
1668.9
1411.43
979.542
746.722
593.047
482.365
397.52
330.417
276.581
232.966
197.321
167.983
143.769
123.693
106.963
92.9545
81.1686
71.2082
62.7573
55.5669
49.4376
44.2074
39.7419
35.9263
32.6628
29.8666
27.465
25.3965
23.6091
22.0588
20.7075
19.5237
18.482
17.5632
16.7514
16.0333
15.398
14.8382
14.3476
13.92
13.5508
5.26121
2.18714
2.77422
3.69315
5.06673
7.34164
11.1656
17.2115
26.1336
38.2448
58.6652
105.233
191.123
344.286
436.165
496.416
625.538
834.552
1175.64
1675.5
1258.66
834.436
646.634
521.545
427.25
353.219
294.582
248.045
210.775
180.443
155.349
134.342
116.621
101.599
88.8241
77.9229
68.5921
60.5863
53.707
47.7918
42.7075
38.3404
34.5914
31.3735
28.6097
26.2327
24.1841
22.4134
20.877
19.5383
18.3666
17.3367
16.4282
15.6242
14.9112
14.2784
13.7169
13.2191
12.7793
12.3954
6.59356
2.61806
3.10564
4.09282
5.71452
8.54865
13.4309
21.044
31.8736
46.6154
64.8353
96.739
155.536
258.925
351.986
441.6
599.312
835.905
1205.75
1445.17
1044.06
753.068
593.544
483.958
398.512
329.958
275.516
232.711
198.778
171.298
148.543
129.39
113.107
99.178
87.2214
76.9293
68.0462
60.3652
53.7188
47.9695
43.0021
38.7179
35.0287
31.8553
29.1263
26.7781
24.7541
23.005
21.4875
20.1652
19.008
17.991
17.0936
16.2979
15.5904
14.9608
14.3994
13.8975
13.451
13.061
7.84322
3.15414
3.63683
4.77905
6.78433
10.4482
16.9122
26.9202
40.2794
56.9481
77.2538
103.669
148.939
225.768
317.715
408.457
565.527
804.202
1006.92
1145.38
899.044
696.374
553.934
450.534
369.845
305.562
255.174
216.092
185.36
160.529
139.954
122.605
107.81
95.1069
84.1484
74.6641
66.4309
59.2722
53.0457
47.6349
42.9424
38.8829
35.3797
32.3623
29.766
27.5317
25.6065
23.9424
22.498
21.2384
20.1351
19.1645
18.3065
17.543
16.8615
16.2526
15.706
15.2128
14.7717
14.3888
9.19831
3.76649
4.31813
5.69749
8.23293
13.0251
21.6473
35.0338
52.4848
72.5634
94.844
121.879
163.316
231.632
321.69
426.364
591.488
849.407
1038.2
1112.35
861.362
667.617
523.936
418.471
338.899
278.091
231.949
196.747
169.251
147.108
128.825
113.45
100.352
89.0998
79.3831
70.9518
63.6058
57.1927
51.5922
46.7074
42.4568
38.7697
35.5813
32.8306
30.4612
28.421
26.6613
25.1381
23.8132
22.655
21.6378
20.74
19.9426
19.2286
18.5878
18.012
17.4899
17.0122
16.5829
16.2165
10.7006
4.46712
5.14713
6.85094
10.0776
16.353
27.8105
45.695
69.105
95.6338
124.065
155.903
199.798
268.805
366.392
499.132
696.422
971.167
1259.54
1178.15
873.351
655.518
498.322
386.339
306.405
249.183
207.279
175.647
151.27
131.765
115.815
102.547
91.3337
81.7453
73.4838
66.3232
60.0788
54.615
49.8255
45.6287
41.9595
38.7631
35.9872
33.5814
31.5014
29.705
28.1505
26.7982
25.6151
24.5758
23.6582
22.844
22.1128
21.4505
20.8545
20.3172
19.8196
19.3557
18.932
18.5876
12.5465
5.28642
6.14559
8.27441
12.3701
20.5076
35.5539
59.1799
90.5456
126.971
166.447
210.343
266.308
349.241
471.308
648.177
908.626
1257.74
1624.78
1243.19
893.525
644.033
470.359
352.224
273.337
220.926
182.742
153.948
131.865
114.757
101.285
90.3456
81.2268
73.4714
66.7863
60.9808
55.9037
51.4407
47.5079
44.0415
40.9915
38.3172
35.9805
33.942
32.1684
30.6302
29.2931
28.1224
27.0914
26.1819
25.377
24.6615
24.0139
23.4233
22.9003
22.4441
22.0392
21.7133
21.4962
21.3288
14.7846
6.26809
7.3514
10.0237
15.1916
25.5827
44.977
75.6705
117.177
167.277
223.809
289.168
371.531
488.647
661.42
912.255
1275.94
1747.32
1872.77
1307.52
901.682
621.455
434.902
315.11
241.026
192.173
155.953
130.3
111.541
97.4216
86.5832
77.964
70.8515
64.8085
59.5709
54.9856
50.943
47.3579
44.1735
41.3498
38.8501
36.6433
34.7013
32.9978
31.5089
30.2104
29.0757
28.0782
27.1983
26.4226
25.7388
25.1339
24.5909
24.1067
23.6953
23.3608
23.094
22.8961
22.7529
22.664
17.4529
7.46374
8.81742
12.1741
18.6583
31.6938
56.1461
95.2167
149.197
217.115
298.258
397.562
528.106
713.816
985.322
1361.04
1875.6
2552.76
2045.91
1349.1
883.958
580.655
389.764
275.521
207.975
159.685
128.274
106.983
91.9512
80.86
72.4863
65.97
60.6732
56.1894
52.2808
48.8201
45.7299
42.9552
40.4612
38.2235
36.2217
34.437
32.8519
31.4493
30.2134
29.1267
28.1706
27.3269
26.5823
25.9275
25.3537
24.8508
24.408
24.026
23.7149
23.4743
23.2869
23.1311
22.9972
22.9182
20.6511
8.92651
10.6046
14.8204
22.923
39.0141
69.1511
117.816
186.683
276.934
391.596
541.192
752.965
1068.37
1538.2
2147.24
2850.03
3518.04
2159.33
1337.49
829.17
519.142
336.306
234.417
171.415
130.314
103.408
85.8278
73.9529
65.5233
59.3255
54.6319
50.9098
47.7991
45.0844
42.653
40.4452
38.4269
36.578
34.8881
33.3499
31.9562
30.6999
29.5731
28.5676
27.6731
26.8788
26.1739
25.5508
25.0036
24.5265
24.1124
23.7547
23.4542
23.2139
23.0263
22.8697
22.7231
22.5922
22.514
24.3796
10.7313
12.8026
18.0771
28.1678
47.7972
84.2263
143.57
229.668
346.986
504.6
725.175
1066.29
1622.05
2509.36
3665.74
4533.83
3798.7
2157.48
1250.66
733.892
440.357
279.141
192.724
139.382
104.728
82.2725
67.7933
58.3671
52.0036
47.5441
44.3191
41.8739
39.8968
38.1929
36.6555
35.231
33.8939
32.6349
31.4496
30.3407
29.3103
28.3598
27.4898
26.6991
25.9845
25.3415
24.7661
24.2549
23.8054
23.4137
23.0752
22.7858
22.5439
22.3471
22.184
22.0364
21.8933
21.7689
21.6936
28.521
12.9753
15.5601
22.1042
34.6313
58.4093
101.812
172.917
278.428
427.643
638.114
951.449
1482.1
2464.91
4199.18
6992.2
7818.52
3932.93
2013.83
1087.8
607.195
353.611
224.863
155.747
111.923
83.6407
65.3095
53.4706
45.8723
40.944
37.6865
35.4929
33.9619
32.8185
31.8836
31.0514
30.2655
29.4993
28.7445
28.002
27.2761
26.5741
25.9037
25.2715
24.6815
24.1361
23.6367
23.1837
22.7775
22.4176
22.1022
21.8283
21.5925
21.392
21.2213
21.0702
20.9275
20.7916
20.678
20.6088
33.2623
15.8008
19.0786
27.1756
42.6753
71.3943
122.775
206.935
333.998
519.677
792.93
1218.17
1984.01
3617.95
6663.66
12792.2
9653.29
3663.7
1705.7
870.412
468.544
271.007
177.134
123.715
89.4376
67.0402
52.3151
42.6728
36.4447
32.4661
29.9495
28.3799
27.4097
26.7955
26.3715
26.0317
25.7131
25.383
25.0276
24.6453
24.2409
23.8224
23.3991
22.98
22.573
22.1845
21.8193
21.4813
21.173
20.8955
20.6487
20.4305
20.2383
20.069
19.9173
19.7768
19.6429
19.5197
19.4204
19.3602
41.7503
19.4406
23.6315
33.7628
52.9133
87.6379
148.466
247.694
398.938
625.526
970.969
1530.35
2530.19
4299.75
6894.28
13028.3
6594.45
2768.14
1281.82
639.418
340.185
202.587
137.657
97.8939
71.7929
54.3217
42.5699
34.7026
29.52
26.184
24.1043
22.8708
22.1939
21.8638
21.7302
21.6895
21.6742
21.6439
21.5778
21.4683
21.3164
21.1276
20.9106
20.6744
20.4283
20.1802
19.9369
19.704
19.4851
19.2828
19.0975
18.9284
18.774
18.6318
18.499
18.3729
18.254
18.1483
18.066
18.0173
56.1193
24.1417
29.5411
42.4263
66.2249
108.478
180.783
298.606
478.127
751.973
1177.05
1904.85
2870.56
4039.63
6326.2
7675.92
3802.94
1814.9
874.895
438.269
237.794
151.638
106.857
77.923
58.2739
44.6837
35.2715
28.7985
24.4215
21.5433
19.7301
18.6658
18.1172
17.9089
17.909
18.0205
18.1752
18.3279
18.4512
18.5314
18.5637
18.5499
18.4959
18.4091
18.2979
18.1703
18.0334
17.8931
17.7539
17.6185
17.4883
17.3636
17.244
17.1289
17.0178
16.9113
16.8127
16.7281
16.6646
16.6295
72.9803
30.2412
37.1515
53.7026
83.6536
135.907
222.071
363.804
581.046
911.547
1390.79
2009.34
2742.98
3975.65
5857.99
4300.14
2266.42
1143.77
565.863
288.154
165.946
114.928
83.8535
62.8694
48.0219
37.3642
29.7391
24.3404
20.5867
18.0514
16.4151
15.4364
14.9303
14.7528
14.791
14.958
15.1884
15.4356
15.6682
15.8674
16.0235
16.134
16.2009
16.2294
16.2257
16.1967
16.1486
16.087
16.0162
15.9392
15.858
15.7741
15.6882
15.6014
15.5154
15.433
15.3583
15.2968
15.2536
15.2333
89.8285
37.8485
46.5774
67.752
106.078
172.59
275.945
444.172
667.86
958.42
1350.68
1862.54
2604.87
3861.37
4727.13
2667.47
1403.5
711.783
354.545
187.386
120.492
88.9454
67.2677
51.7258
40.2653
31.7454
25.4573
20.8792
17.6108
15.3431
13.8375
12.9078
12.407
12.2175
12.2441
12.4107
12.6573
12.9388
13.2223
13.4859
13.7165
13.9077
14.0582
14.1701
14.2472
14.2946
14.3172
14.3197
14.3058
14.2787
14.2408
14.1943
14.1412
14.084
14.0256
13.9698
13.9209
13.8834
13.861
13.8564
115.387
46.9186
57.8863
84.7683
134.066
214.283
316.694
456.385
641.162
886.735
1224.33
1704.14
2417.26
3376.6
3050.51
1648.08
857.762
430.864
217.586
125.179
91.6975
70.918
55.3406
43.4638
34.3408
27.3504
22.0541
18.1049
15.2193
13.1684
11.7695
10.876
10.3698
10.1538
10.1481
10.2869
10.5166
10.7951
11.0905
11.3797
11.6474
11.8846
12.0872
12.2546
12.3885
12.4917
12.5677
12.6201
12.6521
12.6666
12.6664
12.654
12.6325
12.605
12.575
12.5466
12.5237
12.5102
12.5088
12.52
113.5
56.1483
70.3823
102.132
152.282
215.883
305.565
420.304
573.309
784.53
1079.8
1504.87
2106.71
2649.34
1757.52
964.974
500.433
251.764
134.556
89.7195
72.7509
58.4025
46.6608
37.2191
29.7129
23.8218
19.2675
15.8071
13.2307
11.3624
10.0582
9.19973
8.68991
8.4478
8.40565
8.50673
8.70401
8.95935
9.24272
9.53155
9.80978
10.0669
10.2969
10.497
10.667
10.808
10.9221
11.0117
11.0794
11.1278
11.1598
11.1782
11.1861
11.187
11.1848
11.183
11.1853
11.1949
11.2137
11.2404
123.587
61.2575
76.1939
104.51
144.764
199.218
273.394
370.421
499.2
676.573
922.664
1253.63
1650.11
1691.52
982.3
538.652
279.65
145.931
88.2926
70.7331
59.9575
49.4458
40.1524
32.3469
25.9816
20.8993
16.9143
13.8445
11.5259
9.81792
8.60292
7.78319
7.27704
7.0158
6.94143
7.00489
7.16506
7.38797
7.64636
7.91898
8.19009
8.44866
8.68757
8.90278
9.09247
9.25648
9.39566
9.51153
9.60603
9.68142
9.74025
9.78535
9.81982
9.84701
9.87036
9.89331
9.91904
9.95019
9.98819
10.0294
120.895
61.9352
75.8149
99.4773
132.257
177.421
238.305
318.743
424.96
567.425
758.058
994.591
1204.11
916.978
535.495
292.481
155.103
88.9297
64.4065
58.8595
51.1077
42.7833
35.0654
28.3965
22.8669
18.4032
14.871
12.1246
10.0288
8.46658
7.33921
6.56367
6.06996
5.79887
5.70002
5.73072
5.85508
6.04323
6.27085
6.51862
6.77181
7.01962
7.25457
7.47187
7.66885
7.84428
7.9982
8.13132
8.24498
8.34099
8.42156
8.48917
8.54662
8.59689
8.64302
8.68803
8.73476
8.78545
8.84084
8.89513
103.268
59.8608
71.194
90.9184
117.937
155.188
205.193
270.118
354.106
462.603
599.053
754.124
781.92
498.472
289.403
159.665
90.2225
60.2545
53.0164
50.7052
44.5894
37.5869
30.9142
25.0677
20.18
16.212
13.0557
10.5873
8.69074
7.26516
6.22545
5.49968
5.02688
4.75511
4.64025
4.64491
4.73771
4.89258
5.08815
5.30732
5.53676
5.76642
5.98902
6.19954
6.39483
6.57313
6.73378
6.87691
7.00334
7.11439
7.21178
7.29755
7.37402
7.44372
7.50923
7.57318
7.63806
7.70584
7.77644
7.8419
88.1408
55.9324
64.6965
80.7179
102.898
133.651
174.94
226.139
290.923
373.188
472.988
549.94
456.448
277.702
160.325
91.5786
57.9964
46.4671
47.2267
44.9318
39.5275
33.3163
27.3795
22.1658
17.7994
14.2484
11.4172
9.19604
7.48239
6.18726
5.23574
4.56449
4.11968
3.85529
3.73226
3.71773
3.78427
3.90919
4.07404
4.26398
4.46725
4.67488
4.88016
5.07823
5.26581
5.44082
5.60224
5.74973
5.88362
6.00477
6.11437
6.214
6.30543
6.39068
6.47193
6.55146
6.63146
6.71352
6.79677
6.87124
71.711
51.1699
57.8798
70.4949
88.4123
113.615
147.587
188.46
241.98
310.387
380.687
394.017
264.406
159.715
93.3486
57.2924
42.2905
40.4214
43.0373
40.3288
35.2815
29.6196
24.2576
19.5687
15.6495
12.4642
9.92402
7.9288
6.38619
5.21674
4.35362
3.7404
3.32898
3.07836
2.95377
2.92621
2.97172
3.07078
3.20755
3.36938
3.54627
3.73041
3.91586
4.09818
4.27419
4.44174
4.59954
4.74696
4.88394
5.01087
5.12848
5.23783
5.34024
5.43723
5.53059
5.62228
5.71419
5.80759
5.90071
5.98182
51.9052
48.0785
51.7357
61.1965
75.6112
96.2455
124.421
162.369
210.421
266.835
308.826
257.145
160.458
96.2678
58.1986
39.9657
34.914
38.4215
39.6559
36.4221
31.5248
26.2998
21.4313
17.2053
13.6866
10.8325
8.55859
6.7731
5.3921
4.34405
3.5688
3.0156
2.64131
2.40914
2.28813
2.25265
2.28187
2.35904
2.47084
2.60669
2.75825
2.91894
3.08368
3.24855
3.41067
3.56795
3.71895
3.86285
3.99927
4.12823
4.25005
4.36534
4.47496
4.58006
4.68206
4.78257
4.88327
4.98496
5.08508
5.17044
51.2323
43.7386
46.2747
53.2346
65.1221
82.4998
106.321
142.478
190.057
236.686
245.735
165.638
101.388
60.9629
39.3803
31.2851
32.0014
37.2261
36.5698
32.8957
28.1194
23.2689
18.8424
15.0382
11.8868
9.338
7.31123
5.7221
4.49436
3.56319
2.87424
2.38173
2.04675
1.83625
1.7226
1.68323
1.70009
1.75903
1.84895
1.96123
2.08909
2.22716
2.37125
2.51803
2.66492
2.80999
2.95183
3.08946
3.22228
3.35002
3.47266
3.59046
3.70391
3.81379
3.92119
4.02746
4.1339
4.2409
4.34517
4.43245
61.977
38.4278
40.8798
47.1631
57.6067
73.3176
94.0938
127.503
178.51
212.387
176.577
109.421
65.8471
40.5847
29.2661
27.2865
31.7523
35.2873
33.5138
29.5797
24.9733
20.4807
16.464
13.0493
10.2381
7.97288
6.1765
4.77165
3.68898
2.86979
2.26482
1.83255
1.53785
1.351
1.24737
1.20714
1.21484
1.2586
1.32944
1.4205
1.52643
1.64303
1.76694
1.89542
2.02629
2.1578
2.28861
2.41771
2.54434
2.66802
2.78853
2.90578
3.02002
3.13173
3.24165
3.35084
3.46024
3.56974
3.67542
3.76243
75.7869
34.3579
36.9569
43.7314
54.1216
69.8356
91.0578
125.778
170.277
177.339
119.565
72.7508
43.5987
28.7449
24.0919
26.0617
32.22
33.2316
30.5531
26.4498
22.0499
17.9113
14.2814
11.2298
8.73416
6.73247
5.15102
3.91877
2.97298
2.26043
1.73639
1.36315
1.10893
0.946887
0.855141
0.816373
0.81741
0.848522
0.902637
0.974504
1.06012
1.15636
1.26061
1.37076
1.485
1.60183
1.72004
1.83863
1.95679
2.07393
2.18964
2.30369
2.41605
2.52696
2.63689
2.74651
2.85634
2.96576
3.07032
3.15503
75.426
33.6995
35.3848
43.0778
54.6621
72.0836
97.7174
136.622
163.905
131.762
81.6488
48.4368
29.6997
22.1595
21.9144
26.7111
31.5896
30.7644
27.5555
23.466
19.3292
15.5479
12.2861
9.57325
7.37061
5.61334
4.2316
3.16054
2.34333
1.73176
1.2853
0.969525
0.755604
0.619161
0.540768
0.505359
0.501809
0.522332
0.561617
0.615966
0.682522
0.759229
0.844161
0.935822
1.03278
1.13385
1.23797
1.34421
1.45181
1.56012
1.66866
1.77706
1.88515
1.99295
2.10066
2.20853
2.31659
2.4236
2.52469
2.60529
72.5944
32.7192
35.107
44.2225
58.3727
79.8018
112.113
151.704
152.419
95.5732
55.7599
32.2512
21.3743
18.9145
21.6924
28.3058
30.0397
28.0555
24.578
20.6348
16.8056
13.382
10.4712
8.07434
6.14286
4.61153
3.41481
2.4936
1.79657
1.28129
0.909314
0.648995
0.474356
0.363925
0.300356
0.270333
0.264408
0.276443
0.302673
0.340764
0.389149
0.446685
0.512256
0.585037
0.66384
0.747926
0.836354
0.928399
1.02336
1.12062
1.21969
1.32015
1.42172
1.52425
1.62768
1.73185
1.83617
1.93872
2.03421
2.10903
65.1911
30.6441
34.8695
46.3369
64.5036
92.4393
133.088
165.135
116.444
66.2431
36.4991
21.6389
16.8215
17.8426
22.8747
28.1344
27.9467
25.3115
21.7368
17.9913
14.4829
11.4089
8.82971
6.7268
5.04562
3.7224
2.69639
1.91498
1.33275
0.907449
0.604898
0.397198
0.261333
0.178067
0.131544
0.109531
0.103777
0.109561
0.124569
0.147808
0.178864
0.217499
0.263433
0.316329
0.375727
0.441172
0.51203
0.587875
0.667941
0.751818
0.839049
0.92918
1.02193
1.11698
1.21404
1.31254
1.41126
1.50749
1.59545
1.66285
55.9432
28.4298
34.5139
49.3434
73.4691
108.109
158.392
140.72
79.1773
41.9419
22.6491
15.3734
14.8388
18.2798
24.8167
26.9831
25.5886
22.5836
19.0442
15.5401
12.3582
9.62208
7.35507
5.5244
4.07336
2.94091
2.07433
1.42517
0.947662
0.604998
0.367392
0.210491
0.113952
0.0601908
0.0338602
0.0229253
0.0200072
0.0218484
0.0276064
0.0375254
0.0522373
0.0723956
0.0985067
0.130891
0.169656
0.214745
0.265942
0.322997
0.385557
0.453319
0.52592
0.602998
0.684361
0.769377
0.857698
0.948291
1.03937
1.12742
1.20595
1.26393
45.9927
26.0338
33.9208
52.7889
86.5956
128.797
161.436
92.3083
47.0792
23.691
14.2298
12.4139
14.6155
19.8725
25.1018
25.2883
23.0973
19.9067
16.4973
13.2737
10.4235
8.01303
6.03885
4.45981
3.21952
2.26525
1.54797
1.018
0.635675
0.369183
0.192912
0.0858834
0.0299879
0.0077171
0.00180196
0.000666772
0.000496521
0.000627455
0.00109199
0.00221516
0.00463657
0.00930522
0.017335
0.0297928
0.0475261
0.071111
0.100876
0.136969
0.179401
0.228107
0.282961
0.343766
0.41029
0.482094
0.558563
0.638347
0.719177
0.796751
0.863545
0.908551
36.4053
23.5726
33.3636
56.901
99.1117
145.247
104.517
50.77
23.9248
12.9987
10.3471
11.6709
15.6484
22.0916
24.3295
23.2279
20.553
17.3246
14.1135
11.1944
8.67391
6.57425
4.87322
3.52551
2.48094
1.69345
1.10996
0.687477
0.391805
0.195847
0.077915
0.0197345
0.00197429
0.00011285
5.12802e-05
4.78384e-05
4.79056e-05
4.89323e-05
5.1376e-05
5.79463e-05
7.908e-05
0.000155865
0.000438536
0.00135267
0.00376561
0.00893653
0.0182043
0.0327001
0.0532416
0.0803678
0.11441
0.155521
0.20367
0.258546
0.319405
0.384728
0.451723
0.515402
0.566957
0.590483
29.2241
21.7104
34.6545
68.4047
120.427
107.37
50.8853
22.8375
11.5021
8.51634
9.28302
12.3341
17.6685
22.6143
22.852
20.9162
18.0173
14.8796
11.9172
9.31065
7.10825
5.30004
3.85085
2.7161
1.85617
1.21756
0.753907
0.428281
0.211584
0.0810363
0.0178577
0.00102889
5.82091e-05
4.64191e-05
4.59492e-05
4.59301e-05
4.61213e-05
4.64823e-05
4.69912e-05
4.76625e-05
4.85513e-05
4.97962e-05
5.18636e-05
5.66701e-05
7.31466e-05
0.000143107
0.000447554
0.00156169
0.00469585
0.011541
0.0237789
0.0427024
0.0691024
0.103187
0.144465
0.191412
0.240972
0.287541
0.320912
0.320518
26.8737
22.7088
42.9128
102.741
106.212
47.7367
20.5841
9.87024
6.93932
7.37352
9.73047
13.9714
20.1312
21.9341
20.8509
18.4524
15.5379
12.5967
9.92099
7.62648
5.72433
4.18461
2.96498
2.03195
1.33661
0.830512
0.473983
0.235557
0.090767
0.0199151
0.00102931
5.52782e-05
4.64919e-05
4.58396e-05
4.54952e-05
4.53551e-05
4.54049e-05
4.56131e-05
4.59518e-05
4.64174e-05
4.70342e-05
4.78292e-05
4.87874e-05
4.9845e-05
5.09853e-05
5.23645e-05
5.45428e-05
5.97696e-05
7.98082e-05
0.00018068
0.000694242
0.00273247
0.00843054
0.0200423
0.0387333
0.0640085
0.0933731
0.121596
0.139042
0.127906
37.2658
34.9683
78.139
114.093
46.1662
18.4363
8.36048
5.62888
5.88589
7.72702
11.0609
16.4576
20.4661
20.335
18.5052
15.9393
13.1589
10.4891
8.12515
6.13725
4.51567
3.22041
2.21633
1.46386
0.914138
0.525718
0.26476
0.104672
0.0243631
0.00142804
5.87376e-05
4.70827e-05
4.61742e-05
4.5557e-05
4.5126e-05
4.48746e-05
4.47961e-05
4.48695e-05
4.50678e-05
4.53773e-05
4.58171e-05
4.64202e-05
4.71794e-05
4.80363e-05
4.8948e-05
4.99386e-05
5.10728e-05
5.24291e-05
5.41375e-05
5.64985e-05
6.03997e-05
7.03781e-05
0.000118299
0.000418154
0.00192535
0.0065723
0.0152897
0.025832
0.0323966
0.0260218
93.6103
127.283
104.707
38.7088
14.5069
6.52156
4.44388
4.69349
6.21681
8.87527
13.0535
18.3566
19.5597
18.312
16.0636
13.4956
10.9323
8.57096
6.52734
4.83589
3.47419
2.40486
1.59686
1.00289
0.581527
0.297246
0.12123
0.0305054
0.00220856
6.77914e-05
4.81016e-05
4.68982e-05
4.60573e-05
4.53894e-05
4.48811e-05
4.45288e-05
4.43285e-05
4.42702e-05
4.43326e-05
4.44982e-05
4.47791e-05
4.52097e-05
4.57929e-05
4.64806e-05
4.72256e-05
4.80284e-05
4.89327e-05
5.00028e-05
5.13217e-05
5.30013e-05
5.5181e-05
5.80365e-05
6.18829e-05
6.74734e-05
7.73422e-05
0.000104137
0.000202877
0.000468874
0.000718876
0.000428047
32.3084
49.7802
18.5128
7.81426
4.26212
3.35589
3.73533
5.04807
7.28967
10.6173
15.6295
18.1154
17.8287
16.0415
13.6556
11.2024
8.9
6.85635
5.12619
3.71528
2.59281
1.73395
1.09605
0.640327
0.33178
0.139396
0.0378995
0.00342981
8.65616e-05
4.96309e-05
4.80086e-05
4.69304e-05
4.60459e-05
4.53248e-05
4.47479e-05
4.43083e-05
4.40034e-05
4.3827e-05
4.37639e-05
4.3797e-05
4.39319e-05
4.41996e-05
4.46128e-05
4.5137e-05
4.57251e-05
4.63608e-05
4.7069e-05
4.78996e-05
4.89138e-05
5.01842e-05
5.18011e-05
5.38819e-05
5.65801e-05
6.01063e-05
6.47418e-05
7.08199e-05
7.85815e-05
8.75264e-05
9.45096e-05
9.05817e-05
4.94854e-05
6.4736e-05
8.47398e-05
0.000113168
0.000155541
0.000220804
0.000322974
0.000482813
0.000730738
0.00111081
0.0016877
0.00256059
0.00388793
0.00593298
0.00926747
0.0161992
0.0358941
0.0914543
0.245364
0.973955
4.86472e-05
6.17458e-05
7.88406e-05
0.000103348
0.000140468
0.000198933
0.000293027
0.000445171
0.000690327
0.00108209
0.00170322
0.00268597
0.00424982
0.00677546
0.0110445
0.0196352
0.0434242
0.116391
0.330226
1.26887
4.7825e-05
5.87894e-05
7.30234e-05
9.35736e-05
0.000125086
0.000175583
0.000258668
0.000396777
0.000626896
0.00100875
0.00163919
0.0026789
0.00440174
0.00729254
0.012303
0.0220233
0.0464826
0.119147
0.320899
0.806806
4.70478e-05
5.59821e-05
6.75304e-05
8.43107e-05
0.000110282
0.000152401
0.000222767
0.00034214
0.000546363
0.000895979
0.00149352
0.002515
0.00426612
0.00728961
0.0126023
0.0225284
0.0445261
0.103272
0.252344
0.559218
4.63379e-05
5.34123e-05
6.25438e-05
7.59098e-05
9.67467e-05
0.000130771
0.000188072
0.000286427
0.000457625
0.000757282
0.001283
0.00220746
0.00383502
0.00670415
0.0117853
0.0209985
0.039216
0.0807627
0.177626
0.375765
4.57105e-05
5.11376e-05
5.81718e-05
6.85744e-05
8.49046e-05
0.000111642
0.000156714
0.000234282
0.000370225
0.000610887
0.00103965
0.00180758
0.00318406
0.00564478
0.010024
0.0178084
0.0319939
0.0597897
0.117389
0.228862
4.51739e-05
4.91868e-05
5.44566e-05
6.23737e-05
7.49169e-05
9.54633e-05
0.000129937
0.000188905
0.000291854
0.000474057
0.00079975
0.00138661
0.00244575
0.00434916
0.00773926
0.013693
0.0240355
0.0421933
0.0748876
0.132428
4.47314e-05
4.75658e-05
5.13869e-05
5.72664e-05
6.6723e-05
8.22481e-05
0.00010808
0.000151689
0.000226829
0.000358416
0.000591607
0.00100852
0.00175554
0.0030885
0.00544438
0.00953376
0.0164457
0.0278151
0.0461414
0.0749216
4.43827e-05
4.62631e-05
4.89025e-05
5.31168e-05
6.01107e-05
7.16913e-05
9.07865e-05
0.000122505
0.000176117
0.000268272
0.00042845
0.000708837
0.00120039
0.0020586
0.00354272
0.00606317
0.0102175
0.0167924
0.0267243
0.0409963
4.41246e-05
4.52563e-05
4.69495e-05
4.98153e-05
5.4891e-05
6.34944e-05
7.76398e-05
0.000100947
0.000140041
0.000206517
0.000320806
0.000518596
0.000860737
0.00144968
0.00245425
0.0041441
0.00693398
0.0114401
0.018572
0.0297665
4.40087e-05
4.46267e-05
4.59561e-05
4.99054e-05
6.27633e-05
0.000101671
0.00021215
0.000497801
0.00110259
0.00215031
0.00372403
0.0058928
0.00876992
0.0125984
0.0178214
0.0251371
0.0356136
0.0509605
0.0740633
0.110235
0.000144444
9.10873e-05
0.000446253
0.00231164
0.00717813
0.0147296
0.0232332
0.031384
0.038885
0.0460704
0.0535522
0.0619066
0.0718066
0.0841664
0.100084
0.120818
0.148084
0.185675
0.237918
0.310294
0.284841
0.0688609
0.118558
0.139117
0.142499
0.140134
0.137731
0.137129
0.138492
0.142105
0.149252
0.161039
0.178194
0.201673
0.232335
0.270091
0.314727
0.371055
0.463269
0.593051
3.07085
1.04216
0.657537
0.46943
0.365673
0.308045
0.275664
0.256091
0.244294
0.24138
0.253221
0.276212
0.308344
0.351373
0.406145
0.471527
0.534633
0.603463
0.741977
0.89201
1.13205
0.877962
0.608709
0.488219
0.424741
0.38321
0.350224
0.324221
0.302551
0.290258
0.293211
0.300454
0.317833
0.348002
0.390825
0.443842
0.496439
0.558023
0.65223
0.720829
0.477648
0.340329
0.268881
0.256288
0.254578
0.250073
0.24223
0.23473
0.230717
0.23316
0.23851
0.241515
0.246951
0.257881
0.274529
0.295446
0.319498
0.354735
0.404146
0.443469
0.278945
0.1763
0.136331
0.133382
0.138761
0.143465
0.146259
0.148671
0.152463
0.158222
0.163732
0.167167
0.170006
0.173934
0.179628
0.187159
0.197187
0.212268
0.232348
0.250276
0.16788
0.100426
0.0733043
0.07069
0.0746665
0.079766
0.0846148
0.089325
0.0942205
0.0991386
0.103264
0.106092
0.10802
0.109706
0.111617
0.114085
0.117603
0.122828
0.129406
0.135237
0.0933492
0.0513359
0.0349711
0.0340048
0.0370205
0.0410925
0.0452868
0.0493831
0.0532778
0.056774
0.0595895
0.0615824
0.0628616
0.0636562
0.0641921
0.0646754
0.0653171
0.0662474
0.0672363
0.0676201
0.0439435
0.0188731
0.0120016
0.0127087
0.014983
0.0177517
0.0206051
0.0233727
0.0259245
0.0281316
0.0298777
0.0311043
0.0318294
0.0321211
0.0320654
0.0317482
0.03124
0.0305544
0.0295947
0.0281723
0.0164369
0.00343235
0.00219159
0.0028741
0.00398921
0.00532823
0.0067583
0.00817511
0.00948892
0.0106177
0.0114954
0.0120812
0.0123632
0.0123533
0.0120787
0.0115735
0.0108687
0.00998239
0.00891619
0.00767362
0.00552201
0.000492595
0.000214438
0.000313172
0.000510521
0.000798112
0.00115721
0.0015533
0.00194513
0.00229082
0.00255434
0.00271032
0.00274668
0.00266484
0.00247793
0.00220759
0.0018803
0.0015242
0.00116779
0.000839407
0.00395313
0.000228784
5.58531e-05
5.62051e-05
6.59331e-05
8.28033e-05
0.000107569
0.000139215
0.000174178
0.000206901
0.000231391
0.000243037
0.000239961
0.000223436
0.000197301
0.000166657
0.000136398
0.000110111
8.9624e-05
7.51386e-05
0.00156729
9.87767e-05
4.49091e-05
4.35581e-05