/*--------------------------------*- C++ -*----------------------------------*\
| =========                 |                                                 |
| \\      /  F ield         | OpenFOAM: The Open Source CFD Toolbox           |
|  \\    /   O peration     | Version:  v1912                                 |
|   \\  /    A nd           | Website:  www.openfoam.com                      |
|    \\/     M anipulation  |                                                 |
\*---------------------------------------------------------------------------*/
FoamFile
{
    version     2.0;
    format      ascii;
    class       volScalarField;
    location    "22";
    object      k;
}
// * * * * * * * * * * * * * * * * * * * * * * * * * * * * * * * * * * * * * //

dimensions      [0 2 -2 0 0 0 0];


internalField   nonuniform List<scalar> 
20320
(
0.00413904
0.00425471
0.00433218
0.00440824
0.00448236
0.00455403
0.00462259
0.00468719
0.00474688
0.00480054
0.00484688
0.00488435
0.00491113
0.0049248
0.00492228
0.00490458
0.00496387
0.00603274
0.0116551
0.021881
0.0041506
0.00414918
0.00419419
0.00428953
0.00445531
0.00471167
0.00507606
0.00556412
0.0061881
0.00695669
0.00787488
0.00894317
0.0101579
0.0115065
0.0129479
0.014435
0.0170294
0.0278397
0.049107
0.0551928
0.00417701
0.00421699
0.00430288
0.00444027
0.00465456
0.00497716
0.00544581
0.00610683
0.00701377
0.00822311
0.00978497
0.011733
0.014072
0.0167547
0.0195974
0.0224278
0.0284005
0.0497486
0.0798531
0.0809343
0.00421454
0.00431857
0.004472
0.00467549
0.00495461
0.00534206
0.00587933
0.00662147
0.00764125
0.00903107
0.0108993
0.013354
0.0164684
0.0201913
0.0241722
0.0284129
0.0392475
0.0706168
0.105973
0.102442
0.0042606
0.00444866
0.00468997
0.00497955
0.00534267
0.00581234
0.0064307
0.00725468
0.00836174
0.00985835
0.0118853
0.0146117
0.018192
0.0226051
0.0274143
0.0332738
0.0501116
0.0903617
0.128856
0.12097
0.0043136
0.00460486
0.00495469
0.00535266
0.00582275
0.00639755
0.00711927
0.00804431
0.00925058
0.0108482
0.0129908
0.0158811
0.01973
0.0245504
0.0299418
0.0377085
0.0611917
0.109027
0.149404
0.137424
0.00437154
0.00478208
0.00525864
0.0057858
0.00638521
0.00708853
0.00793691
0.00898531
0.0103108
0.0120234
0.0142816
0.0173029
0.0213255
0.0263778
0.0322024
0.042157
0.0724319
0.126658
0.168232
0.152468
0.00443215
0.00497414
0.00559255
0.00626746
0.00701789
0.00787362
0.00887366
0.0100709
0.0115398
0.013389
0.0157788
0.0189318
0.0230937
0.0282905
0.0344903
0.0468573
0.0836977
0.143337
0.185785
0.166585
0.00449278
0.0051735
0.00594427
0.006782
0.00770324
0.00873498
0.00991389
0.0112894
0.0129315
0.014947
0.017495
0.0207992
0.0251007
0.0304138
0.0369931
0.0519063
0.0948641
0.159196
0.202446
0.180158
0.00455052
0.00537121
0.00629868
0.00730926
0.00841744
0.00964783
0.0110347
0.0126223
0.0144756
0.0166971
0.0194427
0.0229345
0.0274019
0.0328443
0.0398415
0.057321
0.105847
0.174411
0.218577
0.193542
0.00460232
0.00555723
0.00663826
0.00782481
0.0091307
0.0105801
0.0122048
0.0140438
0.0161557
0.0186362
0.0216359
0.0253725
0.0300591
0.0356796
0.0431487
0.0630962
0.116619
0.189206
0.234567
0.207105
0.00464524
0.00572101
0.006944
0.00830104
0.00980834
0.0114925
0.0133843
0.0155187
0.0179473
0.0207563
0.0240891
0.0281557
0.0331493
0.0390371
0.0470424
0.0692543
0.127232
0.203888
0.250897
0.221273
0.00467671
0.00585253
0.00719709
0.00870953
0.010413
0.0123405
0.0145258
0.0170028
0.0198164
0.0230425
0.0268156
0.0313346
0.0367708
0.0430695
0.0516985
0.0758991
0.137852
0.218896
0.268221
0.236628
0.00469485
0.00594336
0.00738088
0.00902371
0.0109074
0.0130767
0.0155748
0.0184405
0.021715
0.0254662
0.0298198
0.0349622
0.0410427
0.0479773
0.0573757
0.0832767
0.14882
0.234909
0.287538
0.25395
0.00469872
0.00598777
0.00748301
0.009222
0.0112581
0.0136545
0.0164726
0.0197652
0.0235778
0.0279783
0.0330874
0.0390828
0.0460984
0.0540155
0.0644555
0.0918601
0.160772
0.253042
0.310492
0.27461
0.00468849
0.00598361
0.00749726
0.00929084
0.0114399
0.0140328
0.0171603
0.0209009
0.0253201
0.0304997
0.0365689
0.043711
0.0520642
0.0614868
0.0734772
0.102464
0.174854
0.275258
0.340075
0.301207
0.00466537
0.00593258
0.00742458
0.00922673
0.0114392
0.0141817
0.0175842
0.021767
0.0268362
0.0329123
0.0401588
0.0487968
0.0590141
0.0706971
0.0851343
0.11636
0.193081
0.305185
0.382309
0.339362
0.00463147
0.00584009
0.00727296
0.00903708
0.011257
0.0140867
0.0177038
0.0222854
0.0280046
0.0350537
0.0436722
0.0541754
0.0668842
0.0818369
0.100158
0.135263
0.218752
0.349616
0.45044
0.403193
0.00458949
0.00571439
0.00705637
0.00873937
0.010909
0.0137529
0.0174988
0.0223933
0.0287011
0.0367246
0.0468346
0.0595201
0.0753619
0.0947701
0.118988
0.160919
0.256405
0.420483
0.575459
0.536575
0.00454236
0.00556537
0.00679259
0.00835867
0.0104245
0.0132055
0.0169763
0.0220569
0.0288202
0.037713
0.0492945
0.0643178
0.0837749
0.10874
0.141122
0.193846
0.309497
0.532543
0.821068
0.917749
1.04085
1.2978
1.82555
2.33549
2.84757
3.52677
4.48116
5.67706
6.75715
7.1213
9.84806
16.925
25.7106
34.1377
40.2344
46.6157
54.5686
65.7498
81.4008
98.3678
106.853
88.9498
72.2624
60.9909
52.4902
45.5329
39.6392
34.6164
30.3577
26.7725
23.7671
21.2695
19.1734
17.3908
15.8614
14.5404
13.3929
12.3925
11.5184
10.7541
10.0862
9.50251
8.99178
8.54417
8.15109
7.80581
7.5027
7.23612
7.00061
6.79154
6.60504
6.43825
6.28875
6.15506
6.03681
5.93343
5.8437
5.76637
5.70082
5.6473
1.66152
3.77439
5.09055
6.40113
7.86409
9.82863
12.5685
16.1466
20.0579
22.8669
27.8037
43.5349
68.264
96.6574
112.687
129.085
151.308
182.807
227.099
290.964
264.798
212.123
176.492
149.986
129.156
111.973
97.5294
85.3658
75.1273
66.4944
59.1844
52.9557
47.636
43.0681
39.1249
35.7054
32.729
30.131
27.8604
25.8763
24.1437
22.6315
21.3112
20.1571
19.1472
18.2639
17.4914
16.8147
16.2193
15.6932
15.2271
14.8133
14.4452
14.1184
13.8308
13.581
13.3651
13.1792
13.0218
12.8942
2.06654
5.00467
6.61643
8.25007
10.1836
12.8374
16.5918
21.557
27.3992
32.8092
38.3739
51.8685
76.9706
114.587
143.082
163.076
191.851
230.893
285.943
355.334
302.206
239.932
204.281
176.555
153.488
133.896
117.289
103.325
91.6004
81.6915
73.2393
65.9667
59.6742
54.211
49.4526
45.2968
41.6588
38.4695
35.6724
33.2209
31.0753
29.2
27.562
26.1309
24.8804
23.788
22.834
21.9991
21.2654
20.6182
20.0459
19.5391
19.0893
18.6892
18.3364
18.0287
17.7611
17.5281
17.3289
17.1659
2.4095
6.0556
7.94301
9.85366
12.214
15.5538
20.3742
26.7628
34.3348
42.3194
49.2862
60.0287
79.9876
110.344
138.741
167.92
206.554
254.905
318.455
354.739
294.305
243.904
210.673
184.32
161.621
141.873
125.008
110.848
98.9693
88.892
80.2321
72.7192
66.1595
60.4195
55.3883
50.9735
47.0952
43.6863
40.6913
38.0637
35.763
33.7528
31.9988
30.4692
29.1354
27.9731
26.9601
26.0752
25.2981
24.6126
24.007
23.4716
22.9971
22.5747
22.2006
21.8737
21.5878
21.3357
21.1181
20.9403
2.71295
7.05661
9.25225
11.4662
14.282
18.393
24.453
32.5003
41.7739
51.421
60.7146
70.8152
87.3487
112.688
141.025
170.041
210.502
261.926
300.79
323.172
279.318
239.229
207.647
182.135
160.287
141.35
125.28
111.862
100.598
90.9856
82.6622
75.3932
69.0148
63.4056
58.4712
54.1302
50.3103
46.9501
43.9978
41.409
39.1451
37.1702
35.4508
33.9553
32.6548
31.5247
30.542
29.6839
28.9302
28.2655
27.6784
27.1599
26.7005
26.2905
25.9262
25.6069
25.3255
25.0739
24.8554
24.6788
3.02627
8.05451
10.5999
13.1659
16.5098
21.5276
29.0624
39.1187
50.5869
62.0606
72.7764
83.7302
98.9268
121.704
149.208
179.566
220.28
273.714
308.206
318.939
272.717
233.102
200.754
174.777
153.386
135.537
120.766
108.542
98.2741
89.4732
81.8271
75.1351
69.2555
64.0817
59.5286
55.523
52.0013
48.9076
46.1943
43.8203
41.749
39.9467
38.3818
37.0238
35.8459
34.8242
33.9361
33.1604
32.4785
31.8765
31.3444
30.8741
30.4567
30.0823
29.7489
29.456
29.195
28.9562
28.7477
28.585
3.35818
9.0834
12.0215
14.9954
18.9534
25.0491
34.3378
46.7965
61.0572
75.2424
88.3174
100.724
115.71
137.028
164.435
198.134
241.425
292.91
339.461
325.082
270.958
227.254
192.276
164.971
143.698
127.015
113.612
102.593
93.419
85.5633
78.7737
72.8728
67.7186
63.2066
59.2562
55.7991
52.7726
50.1259
47.814
45.7975
44.0422
42.5181
41.1964
40.0493
39.054
38.1906
37.4397
36.7816
36.2005
35.6863
35.2311
34.8284
34.4674
34.1399
33.8502
33.5975
33.365
33.1461
32.9484
32.8093
3.74599
10.1773
13.5525
16.9984
21.6584
28.9956
40.3228
55.5854
73.2221
91.0817
107.663
123.079
139.746
161.665
190.887
229.022
277.963
334.148
386.134
329.768
269.614
220.792
182.706
154.088
133.126
117.774
105.44
95.3196
86.952
80.0088
74.2068
69.2715
65.0182
61.3235
58.1031
55.2986
52.8561
50.7277
48.8735
47.2588
45.8532
44.6308
43.5678
42.641
41.8332
41.1313
40.5194
39.9798
39.5009
39.0772
38.7042
38.3769
38.0824
37.8148
37.59
37.412
37.2667
37.1791
37.18
37.2095
4.19205
11.38
15.2314
19.2216
24.6764
33.3977
47.0007
65.4396
87.0196
109.491
130.936
151.225
172.153
197.723
231.621
276.484
333.968
398.003
413.868
333.659
266.107
212.376
171.81
142.773
122.891
108.224
96.1908
86.9307
79.6512
73.8112
69.0712
65.1318
61.7823
58.8901
56.3713
54.1758
52.2618
50.5896
49.1279
47.851
46.7336
45.754
44.8935
44.1369
43.4731
42.8918
42.3812
41.929
41.5281
41.1763
40.8718
40.6102
40.3814
40.1864
40.0436
39.9608
39.9295
39.9504
40.0091
40.1013
4.69701
12.7389
17.1025
21.7172
28.0725
38.2905
54.3316
76.2387
102.281
130.26
158.139
185.528
214.149
247.943
291.424
346.563
414.403
490.385
430.28
334.426
258.602
200.949
159.365
131.392
112.743
97.5921
86.6404
78.5543
72.4458
67.6786
63.9089
60.8712
58.3489
56.1978
54.33
52.6969
51.2651
50.0045
48.8917
47.9071
47.0336
46.2557
45.5613
44.941
44.3887
43.8982
43.4626
43.075
42.7327
42.4357
42.184
41.9745
41.8016
41.6699
41.5934
41.5748
41.5974
41.638
41.6852
41.7685
5.27135
14.2902
19.2082
24.5416
31.9243
43.7358
62.2915
87.8502
118.793
153.121
189.074
226.207
267.074
316.094
378.184
450.56
526.925
589.623
439.768
328.283
245.538
186.081
145.624
120.07
101.765
88.0496
77.9988
70.8209
65.6446
61.7886
58.8537
56.5862
54.7796
53.2838
52.0032
50.8848
49.8966
49.0148
48.2213
47.5028
46.8489
46.251
45.7031
45.2016
44.7449
44.3311
43.9581
43.6241
43.3296
43.0768
42.8666
42.6974
42.567
42.4793
42.441
42.4465
42.4734
42.4982
42.5257
42.5903
5.90798
16.0675
21.6045
27.7539
36.3112
49.8263
70.926
100.2
136.348
177.752
223.264
273.229
332.161
407.246
504.902
613.678
688.458
613.931
435.755
312.166
226.218
168.233
131.433
108.766
92.2174
79.6686
70.4684
63.9517
59.4231
56.2366
53.9555
52.3072
51.0879
50.1449
49.3747
48.7158
48.132
47.6001
47.1053
46.6376
46.1921
45.7659
45.3586
44.9714
44.6071
44.268
43.9563
43.6741
43.4247
43.2116
43.0364
42.8988
42.7978
42.7347
42.7094
42.7113
42.7203
42.7233
42.7355
42.7847
6.58023
18.1099
24.389
31.4364
41.3299
56.6924
80.3567
113.349
154.848
203.893
260.277
325.938
409.393
526.173
686.684
893.788
938.659
622.17
414.982
285.328
201.535
148.839
118.064
98.7271
83.877
72.5444
64.1463
58.1454
54.0194
51.2367
49.3792
48.1605
47.371
46.8527
46.4933
46.2201
45.988
45.7695
45.5487
45.3174
45.0724
44.8148
44.5481
44.2778
44.0099
43.7503
43.5046
43.2781
43.076
42.9025
42.7599
42.6484
42.567
42.5146
42.4873
42.4742
42.4623
42.4494
42.4536
42.4931
7.3158
20.4576
27.6749
35.7343
47.1268
64.5138
90.8503
127.562
174.434
231.423
299.648
383.054
495.325
670.8
912.919
1286.53
1066.09
593.526
374.707
249.63
173.959
129.978
106.095
89.6876
76.7445
66.6451
58.9927
53.4105
49.5234
46.9319
45.2807
44.2952
43.7652
43.5278
43.4617
43.4822
43.5328
43.5781
43.5972
43.5799
43.5231
43.4288
43.3027
43.1522
42.9859
42.8123
42.6393
42.4744
42.3237
42.1921
42.0822
41.9945
41.9278
41.8801
41.8465
41.8196
41.794
41.7748
41.7783
41.8144
8.54264
23.2183
31.6055
40.8889
53.9526
73.5834
102.793
143.368
195.643
260.632
341.149
444.15
583.861
765.891
967.111
1347.1
867.065
509.011
318.283
209.426
146.845
113.691
95.695
81.9483
70.7672
61.7892
54.801
49.5649
45.8241
43.2936
41.6943
40.7846
40.3654
40.2747
40.3853
40.6023
40.8582
41.108
41.3238
41.4904
41.6022
41.66
41.6693
41.6382
41.5762
41.4932
41.3983
41.2999
41.2048
41.1182
41.0428
40.9795
40.9276
40.8853
40.8494
40.817
40.7889
40.7734
40.7833
40.822
10.44
26.752
36.3661
47.15
62.1439
84.3358
116.701
161.582
219.494
292.664
385.14
510.247
641.812
764.201
961.767
1028.75
649.906
405.607
257.12
170.312
123.309
100.925
86.9475
75.4514
65.7655
57.7437
51.319
46.3668
42.7216
40.1865
38.5514
37.6158
37.2006
37.1515
37.3404
37.666
38.0526
38.4461
38.8108
39.1256
39.3803
39.5729
39.707
39.7899
39.8306
39.8389
39.8243
39.7953
39.7588
39.7199
39.6818
39.6459
39.6125
39.5813
39.5518
39.5252
39.5062
39.5037
39.5267
39.5733
12.4825
31.2659
42.134
54.6979
72.0376
97.3773
133.177
183.095
247.872
329.531
427.45
532.755
635.064
774.141
942.806
751.227
490.244
313.378
201.148
136.738
105.283
91.04
79.7729
70.0301
61.532
54.2861
48.3228
43.6005
40.0223
37.4552
35.7445
34.7289
34.2529
34.1743
34.3689
34.7336
35.1872
35.6689
36.1363
36.5619
36.9307
37.2366
37.4803
37.6669
37.8041
37.9005
37.965
38.0055
38.0287
38.0397
38.0421
38.038
38.0293
38.0174
38.0046
37.9952
37.9956
38.0141
38.0562
38.1157
14.3868
36.3579
48.8216
63.4572
83.8151
113.391
153.059
207.752
271.193
342.269
423.811
513.654
620.643
767.236
833.555
568.348
370.054
237.082
154.641
111.015
93.1563
83.3063
74.0179
65.513
57.8869
51.2367
45.6391
41.1012
37.5736
34.968
33.1706
32.0536
31.4844
31.3349
31.4881
31.8422
32.3138
32.8381
33.3671
33.8685
34.3223
34.7181
35.0532
35.33
35.5537
35.7314
35.8707
35.9785
36.0611
36.1233
36.1691
36.2019
36.2246
36.2408
36.2547
36.2724
36.3008
36.3467
36.413
36.4895
17.0675
42.0091
56.3192
73.372
97.4734
130.518
168.23
213.933
267.383
329.151
401.732
488.711
595.322
708.074
638.231
422.222
273.204
175.66
119.175
93.5292
84.9959
77.3008
69.3176
61.6721
54.6626
48.4535
43.1401
38.752
35.2672
32.6272
30.7482
29.5282
28.8555
28.616
28.701
29.0126
29.4678
29.9996
30.557
31.1036
31.6153
32.0779
32.4854
32.8367
33.1349
33.3848
33.5923
33.7634
33.9035
34.0173
34.1093
34.1835
34.2441
34.2961
34.345
34.3975
34.4604
34.539
34.6337
34.7305
16.9473
47.7167
64.2199
83.1081
106.795
133.437
167.113
206.107
252.128
307.52
373.924
454.41
547.747
606.429
453.591
302.313
196.06
129.23
94.9086
83.0806
79.0226
72.5334
65.3495
58.2806
51.7069
45.8254
40.7353
36.4732
33.0304
30.3668
28.4196
27.1068
26.3339
26
26.005
26.2564
26.6729
27.1877
27.7479
28.3146
28.8607
29.3689
29.8299
30.2401
30.5997
30.9115
31.1796
31.4087
31.6035
31.7686
31.9084
32.0276
32.1313
32.225
32.315
32.4079
32.5098
32.6246
32.7508
32.8704
18.0017
51.0065
68.5038
85.869
105.554
129.186
158.404
193.046
233.904
283.158
341.989
408.628
471.888
458.644
316.241
210.97
139.074
97.5725
80.1897
77.5814
74.3259
68.503
61.8243
55.1486
48.8944
43.2668
38.3615
34.2128
30.8168
28.1443
26.1466
24.7573
23.8957
23.4724
23.396
23.5795
23.9449
24.4263
24.9709
25.5382
26.0994
26.6348
27.1325
27.5865
27.9946
28.3578
28.6784
28.9598
29.2059
29.4209
29.6093
29.7758
29.9258
30.0651
30.1999
30.3365
30.4802
30.6337
30.7934
30.937
17.808
51.5674
69.2466
84.8651
101.781
122.44
147.9
178.468
214.561
257.169
306.361
357.188
388.695
315.285
218.026
146.55
100.904
78.2699
72.233
73.6346
70.4257
64.8837
58.5226
52.1359
46.1351
40.7204
35.9797
31.9411
28.6011
25.9366
23.9085
22.4616
21.5268
21.0247
20.8718
20.9867
21.2953
21.7338
22.2502
22.8038
23.3648
23.9121
24.432
24.9164
25.3615
25.766
26.1311
26.4589
26.7524
27.0152
27.2515
27.466
27.6637
27.8504
28.0317
28.2134
28.4001
28.5932
28.7871
28.9552
16.0879
50.3423
67.323
81.7089
96.7516
114.999
137.433
164.01
194.988
230.437
268.757
303.412
298.65
217.846
150.932
104.166
77.5099
67.5053
68.5857
70.1789
66.8719
61.4599
55.3084
49.1516
43.3714
38.1516
33.5687
29.644
26.3725
23.7338
21.6953
20.2106
19.2199
18.6522
18.4314
18.4814
18.7324
19.1232
19.6036
20.1335
20.6829
21.2301
21.7602
22.2637
22.7352
23.1721
23.5742
23.9424
24.2789
24.5867
24.8692
25.1307
25.3758
25.6096
25.8374
26.064
26.2934
26.5259
26.7537
26.9456
14.5235
47.6289
63.8661
77.1595
90.7846
107.174
127.25
150.041
176.085
205.306
234.952
251.071
215.343
153.123
107.075
77.7651
64.0377
61.9774
66.7326
67.0894
63.4828
58.0912
52.0967
46.145
40.5745
35.5463
31.1236
27.3212
24.1319
21.5366
19.5071
18.0038
16.9743
16.3551
16.0764
16.0677
16.2633
16.6052
17.0452
17.5448
18.0745
18.6124
19.1433
19.6565
20.1457
20.607
21.0392
21.442
21.8168
22.1657
22.4915
22.7977
23.0882
23.3675
23.64
23.91
24.1806
24.4512
24.7115
24.9258
12.7062
43.7905
59.6022
71.9291
84.3176
99.0831
117.071
136.819
159.756
185.04
206.063
203.708
153.933
109.71
78.8478
61.8355
56.632
59.6909
64.7576
63.9772
60.0704
54.6863
48.842
43.0951
37.7373
32.9055
28.6507
24.9814
21.8881
19.3526
17.35
15.8456
14.7934
14.1363
13.8104
13.7503
13.8944
14.1883
14.5862
15.0515
15.5559
16.0779
16.6021
17.1175
17.6168
18.0955
18.5512
18.9828
19.3908
19.7764
20.1416
20.4889
20.8217
21.1434
21.4579
21.7687
22.0781
22.3843
22.6747
22.9092
10.2885
39.69
54.8698
66.4687
77.8658
91.1548
107.182
126.276
147.353
168.166
179.338
154.88
112.234
80.5877
60.8122
52.4917
52.9516
59.3899
62.594
60.8069
56.5744
51.2143
45.5352
40.0044
34.8688
30.2421
26.1644
22.6392
19.6551
17.1945
15.2347
13.745
12.6846
12.0022
11.6392
11.5351
11.6325
11.8805
12.2362
12.6651
13.1405
13.6416
14.1534
14.6646
15.1677
15.6573
16.1303
16.5848
17.0205
17.4376
17.8373
18.2215
18.5923
18.9526
19.3054
19.6535
19.9984
20.337
20.6543
20.9061
10.2454
35.5061
49.8478
61.0243
71.8613
84.019
98.1661
116.444
136.997
153.386
151.985
115.384
83.0082
60.8879
49.5211
47.3684
51.7362
59.1002
60.1508
57.5296
53.0227
47.6976
42.1952
36.8919
31.9881
27.5753
23.6838
20.3131
17.4502
15.0777
13.1745
11.7134
10.6578
9.96141
9.57073
9.42991
9.48559
9.69043
10.0047
10.3962
10.8399
11.3164
11.8109
12.3125
12.8134
13.3077
13.7917
14.263
14.7203
15.1632
15.592
16.0077
16.4117
16.8061
17.193
17.5746
17.9511
18.3181
18.6583
18.924
11.6786
33.3725
45.379
56.3433
66.9135
78.4545
90.8389
107.224
128.235
138.633
119.586
86.1819
62.0163
47.7186
42.8757
45.0933
52.3136
57.7369
57.3668
54.1182
49.4278
44.1671
38.8531
33.7846
29.1195
24.9276
21.2298
18.0223
15.291
13.0184
11.1846
9.76456
8.72548
8.02553
7.61589
7.44513
7.46397
7.6286
7.90238
8.25584
8.66569
9.11391
9.58665
10.0733
10.5659
11.0586
11.5471
12.0286
12.5009
12.9631
13.4149
13.8564
14.2883
14.7119
15.1284
15.539
15.9428
16.3337
16.6922
16.9681
13.4077
32.8629
43.0259
53.5443
64.0247
75.3154
87.1603
102.795
119.477
118.374
89.5898
63.9921
47.0599
39.4387
39.5274
44.8497
53.2775
55.9983
54.4039
50.6273
45.818
40.6524
35.5392
30.711
26.2879
22.3213
18.8232
15.7863
13.1957
11.0339
9.28126
7.91437
6.90349
6.21034
5.7905
5.59671
5.58352
5.71066
5.94477
6.25901
6.63233
7.04836
7.49416
7.95982
8.43761
8.92156
9.40721
9.89126
10.3713
10.8458
11.3137
11.7747
12.2288
12.6763
13.1176
13.5527
13.9792
14.3889
14.7606
15.0423
13.4202
33.913
42.7646
52.844
63.3375
74.6532
87.2502
102.642
110.214
92.8307
66.5268
47.4436
37.0567
34.9067
38.534
46.1793
53.0515
53.6636
51.1793
47.061
42.2147
37.1797
32.2793
27.6953
23.5165
19.7776
16.4829
13.6229
11.1814
9.14074
7.48161
6.18117
5.21175
4.53753
4.1178
3.90905
3.86913
3.96127
4.15552
4.42836
4.7609
5.13916
5.55123
5.98834
6.44305
6.90973
7.38381
7.86183
8.34109
8.81962
9.29608
9.76951
10.2394
10.7052
11.1663
11.6211
12.0652
12.4884
12.8674
13.1503
13.1366
33.8748
42.9678
53.0413
63.9989
75.9575
89.4934
102.547
98.2667
70.664
48.9946
35.7597
31.185
33.1212
39.2378
48.3113
51.7909
50.8845
47.7555
43.4478
38.6406
33.7692
29.0949
24.7582
20.8241
17.314
14.2259
11.5481
9.26368
7.35821
5.80826
4.58965
3.67599
3.03546
2.63015
2.4185
2.36024
2.42122
2.57494
2.80157
3.0862
3.41744
3.78564
4.18376
4.60433
5.04273
5.49418
5.95537
6.42346
6.89631
7.37224
7.8499
8.32815
8.8058
9.28094
9.7501
10.2065
10.6372
11.017
11.2956
12.2792
32.4388
42.3353
53.0226
64.977
78.2022
92.3924
99.9202
76.8903
51.8161
35.5287
28.309
28.4948
33.2492
41.2098
48.5927
49.809
47.8645
44.2676
39.8464
35.1236
30.4403
26.0015
21.915
18.2259
14.9449
12.0659
9.57815
7.46836
5.71119
4.28362
3.16341
2.32675
1.74434
1.3787
1.18586
1.12362
1.1591
1.27028
1.44312
1.66817
1.93818
2.24688
2.58877
2.95878
3.35265
3.7661
4.19637
4.63968
5.09425
5.55819
6.02965
6.50717
6.98851
7.47054
7.94757
8.41002
8.84139
9.21416
9.48112
11.1371
30.3592
40.7278
52.362
65.767
79.6789
94.1037
82.9375
55.0702
35.8707
26.0721
24.496
28.0357
34.727
43.8223
47.7321
47.3596
44.6593
40.7467
36.2834
31.6829
27.2077
23.0134
19.1791
15.7346
12.6827
10.022
7.74092
5.81336
4.21626
2.9294
1.9343
1.21155
0.734488
0.460042
0.329597
0.288962
0.305492
0.366112
0.467735
0.610431
0.79405
1.01726
1.27777
1.57249
1.89806
2.25099
2.62835
3.02729
3.44565
3.88127
4.33209
4.79649
5.27024
5.74934
6.22543
6.68567
7.1093
7.4648
7.70828
9.81609
27.7699
38.2142
50.5679
65.966
79.6892
85.5906
57.1589
35.6823
23.9526
20.9137
23.4402
29.0861
37.2309
44.609
46.134
44.5678
41.3056
37.1984
32.7659
28.3277
24.081
20.1397
16.56
13.36
10.5473
8.119
6.04856
4.3128
2.89284
1.77471
0.949312
0.409804
0.13323
0.0393647
0.0178477
0.0141841
0.0163615
0.0242802
0.042233
0.0777852
0.140174
0.237576
0.375059
0.554139
0.773778
1.03157
1.32472
1.6504
2.0061
2.38949
2.79812
3.22922
3.67839
4.13938
4.60115
5.04722
5.45134
5.77458
5.9694
8.43578
24.8625
35.0852
47.5694
62.629
74.3537
57.0792
34.1343
21.3641
17.4968
19.352
24.1946
31.2167
40.2175
44.1296
43.9536
41.5056
37.8481
33.648
29.3096
25.0698
21.0696
17.389
14.0662
11.119
8.56044
6.36642
4.51368
2.98399
1.76669
0.861573
0.283526
0.0416314
0.00631886
0.00478572
0.00468941
0.00470386
0.00475319
0.00484437
0.00503553
0.00553647
0.00711501
0.0123523
0.0276909
0.0641287
0.134159
0.246948
0.406528
0.613005
0.86452
1.1585
1.49188
1.8608
2.25957
2.67941
3.1065
3.51955
3.88582
4.15435
4.2416
7.31871
22.1157
32.2063
45.5475
58.8165
51.6172
30.3513
18.0805
14.1817
15.729
19.9855
26.1116
34.2089
41.2514
42.7106
41.2829
38.2271
34.3344
30.1339
25.9406
21.9264
18.1858
14.7709
11.7102
9.03512
6.73109
4.77603
3.15216
1.84999
0.874704
0.255507
0.0241128
0.00496634
0.00462762
0.0046027
0.00460146
0.00461463
0.00463955
0.00467457
0.00472023
0.00477875
0.00485417
0.00495673
0.00512576
0.00554366
0.00701414
0.0127164
0.0314767
0.0785595
0.170068
0.316246
0.519946
0.778644
1.08548
1.42913
1.79191
2.14739
2.45493
2.64852
2.60159
6.95286
20.5802
30.9514
46.766
44.5041
25.0584
14.434
11.1709
12.6542
16.4452
21.8081
28.8721
37.4924
40.8179
40.5046
38.2052
34.7798
30.8027
26.6886
22.6851
18.9163
15.4429
12.2962
9.52028
7.11753
5.07057
3.36293
1.98544
0.944491
0.275123
0.0236562
0.00490382
0.00463761
0.00459494
0.00457074
0.00456076
0.00456404
0.00457839
0.00460188
0.00463419
0.00467681
0.00473142
0.00479684
0.00486846
0.0049442
0.00503027
0.00514455
0.00534207
0.00587808
0.00805908
0.0177562
0.0516083
0.134182
0.281216
0.489946
0.74191
1.00608
1.23599
1.35872
1.24388
8.68555
22.2238
34.4796
39.3983
20.5618
11.3022
8.75303
10.2038
13.5911
18.2627
24.3591
32.3989
38.3043
39.1726
37.6685
34.8189
31.2174
27.2836
23.3338
19.5605
16.0544
12.8526
9.99466
7.50616
5.37644
3.59297
2.1473
1.04495
0.320753
0.0301063
0.00501736
0.00467832
0.00461823
0.0045749
0.0045445
0.00452664
0.00452089
0.00452579
0.00453949
0.00456102
0.0045916
0.00463334
0.00468565
0.00474449
0.00480686
0.00487428
0.00495091
0.00504168
0.00515407
0.00530258
0.00551647
0.00590872
0.00718589
0.0135293
0.0407126
0.112293
0.227556
0.349498
0.41519
0.337512
16.1219
36.14
30.058
14.8347
8.21774
6.85113
8.34117
11.3405
15.4448
20.6976
27.4753
35.0578
37.5274
36.8019
34.4565
31.258
27.6132
23.8152
20.091
16.5831
13.3547
10.4396
7.88164
5.67918
3.82688
2.31902
1.16016
0.381554
0.0422768
0.00527254
0.00474641
0.00466873
0.00460986
0.00456285
0.00452693
0.00450191
0.00448755
0.00448317
0.00448733
0.0044988
0.00451839
0.00454836
0.0045888
0.00463636
0.00468774
0.00474292
0.00480477
0.00487749
0.00496645
0.00507868
0.00522264
0.00540838
0.00565262
0.00598862
0.00649462
0.00748048
0.0101056
0.0159226
0.0206803
0.0143942
7.96828
12.7169
7.21058
5.3548
5.52915
7.03948
9.61985
13.2087
17.8428
23.6371
31.0836
35.1161
35.5821
33.879
31.0134
27.6295
24.0386
20.4394
16.9846
13.7702
10.8351
8.23144
5.96858
4.05334
2.48877
1.27923
0.450907
0.06023
0.00574666
0.00484545
0.00474581
0.0046708
0.00460881
0.004558
0.00451717
0.00448593
0.00446415
0.0044514
0.00444668
0.00444881
0.00445816
0.00447684
0.00450562
0.00454207
0.00458289
0.00462693
0.00467583
0.00473292
0.00480221
0.0048884
0.00499714
0.00513553
0.00531252
0.0055398
0.00583184
0.00620253
0.00665127
0.00711842
0.00738905
0.00695326
0.00449291
0.00540327
0.00650078
0.00792408
0.00984184
0.0124877
0.0161727
0.0212829
0.0283018
0.0378372
0.0506782
0.0679149
0.0910768
0.122161
0.164351
0.231154
0.373558
0.680218
1.23548
2.19696
0.0044422
0.00523576
0.00619564
0.00745887
0.00919394
0.0116413
0.0151326
0.0201024
0.0271286
0.0369734
0.0506648
0.06966
0.0960744
0.132924
0.184931
0.265932
0.429911
0.795512
1.49031
2.78356
0.00439188
0.00506656
0.00588577
0.00697945
0.00850805
0.0107063
0.0139072
0.0185672
0.0253246
0.0350577
0.0489967
0.0689267
0.0974795
0.138534
0.198007
0.288859
0.455873
0.809657
1.46812
2.2764
0.00434378
0.00490237
0.0055841
0.00650775
0.00781969
0.00973769
0.012577
0.0167845
0.0230101
0.0321799
0.0456356
0.0653669
0.0943277
0.13688
0.199427
0.293098
0.447981
0.743254
1.26606
1.94075
0.00429938
0.00474887
0.0053018
0.00606305
0.00716118
0.00878885
0.0112283
0.0148881
0.02038
0.0285964
0.0408643
0.0591944
0.0865861
0.127434
0.187995
0.277439
0.413765
0.64057
1.02106
1.5657
0.00425977
0.00461029
0.00504698
0.0056596
0.00655755
0.007904
0.00993893
0.0130138
0.0176627
0.0246748
0.0352406
0.0511952
0.0752885
0.111534
0.16555
0.24476
0.359776
0.530762
0.792944
1.16882
0.00422561
0.00448932
0.00482453
0.00530589
0.00602446
0.00711338
0.00876795
0.011274
0.0150684
0.0207978
0.0294383
0.0424987
0.0622422
0.0919685
0.136287
0.20106
0.293109
0.421227
0.598926
0.839552
0.00419724
0.00438721
0.00463625
0.00500466
0.00556759
0.00643156
0.00774872
0.0097409
0.0127477
0.01727
0.0240501
0.0342104
0.0494157
0.0720785
0.105584
0.154245
0.222734
0.315316
0.435788
0.587403
0.00417475
0.00430407
0.00448066
0.00475251
0.00518382
0.00585793
0.00688879
0.00844354
0.0107758
0.0142578
0.0194199
0.0270299
0.0381923
0.0544748
0.0780461
0.111677
0.158385
0.22068
0.299783
0.395408
0.00415803
0.00423908
0.00435594
0.00454573
0.00486635
0.00537827
0.00615467
0.00730556
0.00900215
0.0114895
0.0151259
0.0204445
0.0282215
0.0395744
0.0560703
0.0798408
0.113694
0.161259
0.227442
0.320065
0.00414639
0.00419392
0.0042585
0.00437932
0.00463592
0.00516402
0.00638932
0.00936546
0.0155411
0.0260745
0.0416425
0.0627596
0.0903134
0.126182
0.173583
0.237164
0.323393
0.441722
0.606464
0.840139
0.00447264
0.00438749
0.00640796
0.018074
0.0496251
0.0992765
0.156357
0.213363
0.268771
0.324437
0.38372
0.449835
0.526448
0.618254
0.730436
0.868318
1.0389
1.25802
1.53934
1.89502
0.559057
0.21754
0.410761
0.530883
0.599314
0.646371
0.689573
0.735793
0.787044
0.846668
0.92211
1.01875
1.13948
1.28758
1.46481
1.66849
1.89761
2.17296
2.57141
3.07538
4.12409
2.02876
1.63748
1.42896
1.31496
1.26659
1.25784
1.26897
1.29499
1.34794
1.45362
1.59992
1.77921
1.99587
2.24965
2.53262
2.8043
3.10231
3.61206
4.13434
2.42275
2.17675
1.86957
1.7358
1.6801
1.6542
1.63638
1.62725
1.62397
1.64799
1.72369
1.81549
1.94335
2.11526
2.32821
2.57034
2.80705
3.0761
3.44406
3.7228
1.49634
1.3771
1.29526
1.32182
1.36753
1.4013
1.42295
1.44441
1.47728
1.53365
1.60179
1.66215
1.73231
1.8234
1.93542
2.06193
2.19941
2.37905
2.60551
2.78718
1.01665
0.933265
0.88635
0.927734
0.989625
1.04534
1.09241
1.13754
1.18821
1.24712
1.30483
1.35313
1.39811
1.44694
1.50247
1.56502
1.63786
1.73188
1.84398
1.94106
0.649094
0.613562
0.578946
0.614447
0.670847
0.72815
0.781758
0.833085
0.884064
0.933986
0.978654
1.01527
1.04568
1.07322
1.10036
1.12894
1.16158
1.20127
1.24494
1.28059
0.362291
0.347876
0.325328
0.358275
0.407234
0.458775
0.508202
0.554834
0.598307
0.637521
0.670739
0.697009
0.716941
0.731953
0.743494
0.752885
0.761384
0.769516
0.775298
0.774011
0.165032
0.141919
0.133904
0.163363
0.201759
0.242045
0.280971
0.317355
0.350254
0.378704
0.401814
0.419122
0.430757
0.437247
0.439265
0.437467
0.432332
0.423823
0.410983
0.392128
0.0594514
0.030187
0.0314341
0.0470119
0.0677667
0.0910117
0.114701
0.137363
0.157881
0.175311
0.188933
0.198313
0.203327
0.204099
0.200907
0.194098
0.183982
0.170741
0.15441
0.135087
0.0206911
0.00650784
0.00628359
0.00864795
0.0129612
0.0191324
0.0266619
0.0347633
0.0426021
0.0494089
0.0545693
0.0576739
0.0585372
0.057187
0.0538338
0.0488272
0.0426102
0.0356822
0.028585
0.0218904
0.0166801
0.00501311
0.00428019
0.00430449
0.00453696
0.00496024
0.00559193
0.00640458
0.00730489
0.00815133
0.00879547
0.00912577
0.00909736
0.00873971
0.00814254
0.00742679
0.00671132
0.00608652
0.00560087
0.00526142
0.0107294
0.00462316
0.00417172
0.00411124
0.0041106
0.00412489
0.00414875
0.0041818
0.00422241
0.00426665
0.00430916
0.00434511
0.00437181
0.0043893
0.00439972
0.00440611
0.0044113
0.00441729
0.00442484
0.0044334
1.2688
2.02097
2.52661
3.02394
3.51064
3.85879
4.06091
4.13719
4.11015
4.04404
3.98044
3.89928
3.82192
3.77651
3.81215
2.59023
6.02466
7.92062
9.08248
9.89867
10.2412
10.2504
10.0074
9.58177
9.0362
8.42426
7.7917
7.17008
6.57053
5.97705
3.27712
3.71349
5.22884
7.05558
8.42434
8.74306
8.38111
7.75947
7.06052
6.36544
5.71511
5.13398
4.64182
4.26551
4.05644
2.82775
3.37557
3.59561
3.75194
3.79991
3.79647
3.7697
3.67823
3.53443
3.36832
3.21327
3.10791
3.10271
3.2652
3.67574
2.18903
2.79078
3.16704
3.33111
3.35754
3.30645
3.21525
3.10289
2.98392
2.88451
2.8499
2.94351
3.23774
3.79529
4.65765
1.63724
2.12219
2.51555
2.77891
2.91909
2.95178
2.90801
2.82497
2.75784
2.78022
2.9732
3.40399
4.11012
5.10511
6.40275
1.1547
1.5089
1.82947
2.07684
2.2296
2.30139
2.33439
2.39953
2.58798
2.97852
3.6147
4.51021
5.66773
7.09613
8.81869
0.779995
1.00297
1.21822
1.39779
1.5427
1.71145
1.97969
2.41686
3.06082
3.92816
5.02465
6.35002
7.91319
9.75952
11.9322
0.512591
0.650644
0.80721
1.02089
1.35526
1.84928
2.52093
3.37899
4.43302
5.69947
7.17504
8.87167
10.8309
13.1131
15.202
0.462835
0.697145
1.05954
1.55856
2.20455
3.00866
3.98852
5.15714
6.52839
8.16772
10.0042
12.037
13.6843
14.908
15.4193
1.18017
1.62966
2.19386
2.88913