/*--------------------------------*- C++ -*----------------------------------*\
| =========                 |                                                 |
| \\      /  F ield         | OpenFOAM: The Open Source CFD Toolbox           |
|  \\    /   O peration     | Version:  v1912                                 |
|   \\  /    A nd           | Website:  www.openfoam.com                      |
|    \\/     M anipulation  |                                                 |
\*---------------------------------------------------------------------------*/
FoamFile
{
    version     2.0;
    format      ascii;
    class       volScalarField;
    location    "22";
    object      nut;
}
// * * * * * * * * * * * * * * * * * * * * * * * * * * * * * * * * * * * * * //

dimensions      [0 2 -1 0 0 0 0];


internalField   nonuniform List<scalar> 
20320
(
0.034719
0.00759904
0.0076679
0.00773492
0.00779968
0.00786179
0.00792074
0.0079759
0.00802652
0.00807176
0.00811062
0.00814191
0.0081642
0.00817556
0.00817347
0.00815872
0.00820722
0.00904345
0.0125641
0.0172192
0.0352297
0.035273
0.0354456
0.0356762
0.0359487
0.0362328
0.03649
0.036697
0.0368485
0.0369541
0.0370291
0.0370854
0.0371314
0.037162
0.0370886
0.0364956
0.0351931
0.0404454
0.0533656
0.0421192
0.0353521
0.0356331
0.0361306
0.0368664
0.0379407
0.0394548
0.0414908
0.0440941
0.0472423
0.05082
0.0546136
0.0583418
0.0616982
0.0643297
0.0654424
0.0628561
0.0575206
0.0683173
0.0856097
0.0591917
0.0355235
0.0361043
0.0369093
0.0379359
0.0392846
0.0410707
0.0434193
0.0464654
0.0503397
0.0551324
0.0608363
0.0672746
0.0740242
0.0801857
0.0834671
0.079396
0.0741927
0.093202
0.11189
0.0714263
0.0357303
0.0366944
0.0378844
0.0392696
0.0409434
0.0430165
0.0456136
0.048882
0.0529907
0.058125
0.0644531
0.0720405
0.0806486
0.089111
0.0937071
0.0887085
0.0881633
0.1157
0.133914
0.0806305
0.0359634
0.0373835
0.0390275
0.0408394
0.0429023
0.0453194
0.0482107
0.0517191
0.056018
0.0613205
0.0678691
0.0758807
0.0852919
0.0947915
0.099603
0.0944296
0.101242
0.13623
0.152844
0.0879382
0.0362123
0.0381407
0.0402878
0.0425779
0.0450812
0.0478931
0.0511259
0.0549148
0.0594304
0.0648905
0.0715668
0.0797456
0.0894444
0.0991876
0.103486
0.0989822
0.114063
0.155054
0.169469
0.0940378
0.0364659
0.0389325
0.0416128
0.0444156
0.0473998
0.0506513
0.0542725
0.05839
0.0631658
0.0688151
0.0756211
0.0838954
0.0936636
0.103244
0.10671
0.103619
0.126717
0.172373
0.184347
0.0993551
0.0367126
0.0397242
0.0429456
0.0462785
0.0497719
0.0535011
0.0575591
0.0620603
0.067153
0.0730465
0.0800239
0.0884013
0.0981705
0.107427
0.110028
0.108857
0.139118
0.188377
0.197914
0.104179
0.036941
0.04048
0.0442281
0.0480897
0.0521068
0.0563452
0.0608892
0.0658366
0.071319
0.0775332
0.0847537
0.0932888
0.103076
0.112001
0.113882
0.114833
0.151148
0.203252
0.210535
0.108733
0.0371406
0.0411653
0.0454032
0.0497729
0.0543127
0.0590841
0.0641619
0.0696256
0.0755869
0.0822219
0.0897879
0.0985769
0.108464
0.117159
0.118557
0.121541
0.162724
0.21719
0.222549
0.113223
0.037302
0.0417482
0.046418
0.0512553
0.0563009
0.0616179
0.0672728
0.0733288
0.0798739
0.0870544
0.0951037
0.104287
0.114417
0.123073
0.124288
0.128967
0.173828
0.230412
0.234313
0.117855
0.037418
0.0422025
0.0472273
0.0524723
0.0579894
0.0638499
0.0701174
0.076843
0.0840881
0.0919644
0.100673
0.110444
0.121029
0.12993
0.131314
0.13719
0.184542
0.243196
0.246249
0.12288
0.037484
0.0425084
0.0477959
0.0533712
0.0593067
0.0656897
0.0725907
0.0800565
0.0881231
0.0968669
0.106451
0.11706
0.128396
0.13793
0.139926
0.146452
0.195093
0.255931
0.258923
0.128633
0.0374979
0.0426545
0.0481011
0.0539143
0.0601958
0.0670575
0.0745908
0.0828489
0.0918521
0.101647
0.112356
0.124119
0.136597
0.147284
0.150483
0.157238
0.205935
0.269207
0.273171
0.135654
0.0374606
0.0426378
0.0481342
0.0540819
0.0606181
0.0678895
0.0760227
0.085094
0.0951255
0.106149
0.118254
0.131541
0.145656
0.158173
0.1634
0.170338
0.217904
0.283999
0.290368
0.144898
0.037376
0.0424644
0.047901
0.0538734
0.0605578
0.0681431
0.076806
0.0866651
0.0977711
0.110166
0.12393
0.139145
0.155483
0.170675
0.179076
0.186849
0.232403
0.301971
0.312976
0.158256
0.0372501
0.0421486
0.0474218
0.0533085
0.0600238
0.0678031
0.0768834
0.0874462
0.0996026
0.113442
0.12907
0.146597
0.165782
0.184629
0.197686
0.207954
0.251528
0.325879
0.345601
0.179948
0.0370912
0.0417121
0.0467293
0.0524257
0.0590512
0.0668867
0.0762329
0.0873498
0.100441
0.115685
0.133266
0.153382
0.175967
0.199452
0.218868
0.23433
0.277669
0.359556
0.396296
0.220366
0.0369089
0.0411822
0.0458667
0.0512796
0.0576993
0.0654454
0.0748767
0.0863372
0.100146
0.116609
0.136046
0.158812
0.18511
0.213963
0.241276
0.265115
0.31172
0.405207
0.472608
0.30034
0.0513848
0.033247
0.0394392
0.04462
0.0492894
0.0548729
0.0618531
0.0695841
0.0758164
0.0776957
0.0915071
0.119908
0.147646
0.169998
0.1844
0.198508
0.214865
0.235836
0.262029
0.287941
0.300686
0.274917
0.247777
0.227614
0.21117
0.196705
0.183578
0.17159
0.160715
0.150954
0.142243
0.134566
0.127768
0.121688
0.116218
0.111276
0.106794
0.102734
0.099044
0.0956966
0.0926774
0.0899519
0.0874945
0.0852885
0.0833002
0.0815133
0.0799118
0.078477
0.0771883
0.076027
0.0749742
0.0740255
0.0731627
0.0723795
0.071683
0.0710659
0.070526
0.0700572
0.0696563
0.0693254
0.0652097
0.630679
0.812047
0.949331
1.06329
1.18552
1.31778
1.44472
1.50216
1.34015
1.10835
1.32778
1.82054
2.38577
2.80234
3.07799
3.33914
3.63804
4.00878
4.56552
4.47107
4.13425
3.75435
3.41393
3.11239
2.83863
2.5909
2.37131
2.18045
2.01669
1.87669
1.75551
1.65108
1.5607
1.4821
1.41359
1.35387
1.30198
1.25719
1.21896
1.18674
1.1599
1.13774
1.11955
1.10476
1.09307
1.08422
1.07781
1.07331
1.07038
1.06884
1.06855
1.06927
1.07093
1.07378
1.07806
1.08344
1.08953
1.09634
1.10424
0.0730538
1.03067
1.4202
1.65868
1.84213
2.02026
2.21895
2.42996
2.58535
2.53315
2.25909
2.3009
2.78983
3.43234
4.22437
4.82144
5.29564
5.74923
6.25933
6.7822
6.53041
6.20907
5.80818
5.37911
4.96262
4.56811
4.20291
3.8737
3.58276
3.32856
3.10758
2.91529
2.74815
2.60331
2.47794
2.3698
2.2771
2.19837
2.13244
2.07831
2.03502
2.00148
1.97649
1.9588
1.94735
1.94141
1.94034
1.94333
1.9495
1.95819
1.96907
1.98191
1.99632
2.01199
2.02935
2.04877
2.0698
2.09176
2.11483
2.13951
0.0792459
1.2606
1.82836
2.13508
2.34953
2.54694
2.78161
3.0632
3.32873
3.45775
3.37195
3.35243
3.70216
4.23223
4.92186
5.74669
6.407
6.99589
7.56971
7.83689
7.46643
7.10964
6.72986
6.31803
5.89925
5.49018
5.10469
4.75208
4.4348
4.1516
3.9002
3.67822
3.48286
3.31269
3.16559
3.03976
2.93354
2.84542
2.77408
2.71832
2.67683
2.64819
2.63079
2.6229
2.623
2.62993
2.64264
2.65996
2.68059
2.70368
2.72886
2.75595
2.78455
2.81419
2.84521
2.87827
2.91282
2.94793
2.984
3.02157
0.0844564
1.42087
2.11843
2.47595
2.7059
2.91413
3.18205
3.53134
3.89915
4.17873
4.29446
4.35357
4.61049
5.06217
5.63375
6.37094
7.05185
7.67775
8.0868
8.20656
7.81015
7.39649
7.00546
6.62679
6.25199
5.88485
5.53566
5.21158
4.91367
4.64125
4.3941
4.17253
3.97621
3.8044
3.65662
3.53191
3.42915
3.34707
3.28438
3.23972
3.21152
3.19796
3.19699
3.2064
3.22417
3.2487
3.2786
3.3122
3.34813
3.3856
3.4243
3.46418
3.50491
3.54597
3.58776
3.63106
3.67532
3.71943
3.76402
3.80949
0.0896085
1.55019
2.3418
2.73817
2.9797
3.20224
3.51159
3.9312
4.38819
4.77701
5.0259
5.17698
5.39313
5.75507
6.22858
6.80628
7.38321
7.93817
8.2346
8.2303
7.77107
7.32501
6.92294
6.5697
6.24802
5.9453
5.65899
5.38929
5.13557
4.89769
4.67775
4.47842
4.30155
4.14795
4.01759
3.91044
3.82626
3.76404
3.7225
3.70006
3.69478
3.70435
3.72624
3.75774
3.79642
3.8403
3.88762
3.93686
3.98673
4.03664
4.08648
4.13639
4.18626
4.23562
4.28504
4.33537
4.38603
4.43575
4.48526
4.53484
0.0948512
1.66231
2.52693
2.95398
3.20817
3.45328
3.81574
4.31321
4.85519
5.3279
5.65831
5.8567
6.03108
6.28669
6.64183
7.07853
7.5324
7.95093
8.23398
8.07286
7.56584
7.09054
6.67703
6.33997
6.06527
5.82686
5.60452
5.3931
5.19232
5.00056
4.82214
4.66067
4.51884
4.3985
4.30049
4.22504
4.17195
4.14052
4.12953
4.13702
4.16055
4.19732
4.24436
4.29868
4.35756
4.41902
4.48149
4.54359
4.60442
4.66378
4.72185
4.77901
4.83521
4.89022
4.94498
5.00025
5.05512
5.10855
5.1608
5.21209
0.100659
1.76338
2.68979
3.14283
3.41288
3.68971
4.11582
4.69883
5.32918
5.88029
6.26754
6.48164
6.59985
6.7352
6.95806
7.28287
7.653
7.98967
8.25892
7.87263
7.32186
6.81244
6.38729
6.0668
5.83534
5.65058
5.47539
5.3117
5.16026
5.0204
4.89312
4.78019
4.68396
4.60658
4.5494
4.51314
4.49771
4.50221
4.52504
4.564
4.61624
4.67861
4.74795
4.82126
4.89614
4.97093
5.04432
5.11531
5.18351
5.24914
5.31273
5.3748
5.43536
5.49438
5.55322
5.61258
5.67137
5.72949
5.7876
5.8423
0.106976
1.85948
2.84022
3.31737
3.60747
3.924
4.42039
5.09327
5.81615
6.45009
6.89414
7.11768
7.17923
7.20047
7.29993
7.54167
7.86723
8.15909
8.23154
7.66303
7.06809
6.53193
6.10869
5.82201
5.63919
5.48527
5.3397
5.21967
5.11907
5.03305
4.9591
4.89705
4.84866
4.81611
4.80093
4.80402
4.82533
4.86377
4.91742
4.98368
5.05952
5.1417
5.22712
5.31327
5.39822
5.48067
5.55979
5.6351
5.70669
5.77513
5.84118
5.90544
5.96802
6.02923
6.09039
6.15209
6.21344
6.27371
6.33174
6.38591
0.113767
1.95682
2.98551
3.48669
3.80131
4.16341
4.73181
5.4939
6.31062
7.03357
7.54619
7.79216
7.81547
7.75105
7.75739
7.94207
8.2404
8.47826
8.14438
7.46106
6.80885
6.2589
5.86442
5.63934
5.50065
5.36795
5.26676
5.19122
5.13703
5.09814
5.07119
5.05499
5.05023
5.05856
5.08135
5.11934
5.17231
5.23896
5.31709
5.40397
5.49654
5.59175
5.68688
5.77985
5.86932
5.95448
6.03499
6.11087
6.18258
6.25093
6.31678
6.38076
6.44314
6.50438
6.56553
6.62691
6.68748
6.74569
6.80036
6.8511
0.1211
2.0589
3.1313
3.65753
4.0014
4.41261
5.05012
5.89554
6.80332
7.61963
8.21618
8.50951
8.52569
8.41689
8.3683
8.50881
8.76782
8.89387
8.06066
7.25186
6.54391
6.00292
5.67512
5.53504
5.4374
5.35434
5.29497
5.25941
5.24428
5.24402
5.2547
5.27493
5.30493
5.34582
5.39854
5.46347
5.54011
5.62682
5.72137
5.82108
5.92306
6.02461
6.12346
6.21804
6.30748
6.39147
6.47009
6.54375
6.61315
6.67923
6.74285
6.80464
6.86497
6.92432
6.98336
7.04209
7.09931
7.15346
7.20421
7.2512
0.128853
2.16515
3.28118
3.83497
4.21281
4.67474
5.37533
6.29384
7.2852
8.19515
8.89064
9.26514
9.3124
9.20218
9.14311
9.24618
9.40876
8.9299
7.92102
7.01254
6.27574
5.7844
5.56961
5.52449
5.49113
5.45449
5.43221
5.4295
5.44483
5.47329
5.51084
5.55616
5.60965
5.67228
5.74473
5.82697
5.91814
6.0164
6.11927
6.22444
6.32925
6.43142
6.52917
6.62131
6.70739
6.78749
6.86201
6.93159
6.99708
7.05941
7.11943
7.17774
7.23472
7.29079
7.34629
7.40095
7.45367
7.50343
7.55063
7.5943
0.136634
2.27487
3.44048
4.02377
4.43918
4.95233
5.70807
6.68716
7.75067
8.7491
9.55466
10.0491
10.1777
10.1088
10.1063
10.2825
10.1422
8.85817
7.69623
6.73569
6.02024
5.63831
5.57908
5.63243
5.6573
5.66281
5.67033
5.69061
5.7252
5.77052
5.82296
5.88142
5.94669
6.01994
6.10179
6.19189
6.28904
6.39121
6.49591
6.6006
6.70321
6.80185
6.89507
6.98205
7.06271
7.13734
7.20652
7.27102
7.33173
7.38955
7.44526
7.49941
7.55238
7.60446
7.65576
7.70591
7.75412
7.80004
7.84443
7.88548
0.144815
2.38382
3.613
4.22895
4.68384
5.24668
6.05043
7.07703
8.19903
9.27515
10.1913
10.8406
11.1296
11.1935
11.2563
11.6449
10.5963
8.6537
7.40837
6.44332
5.81277
5.61048
5.71911
5.85176
5.92675
5.9627
5.98704
6.01651
6.05661
6.10588
6.16141
6.2222
6.2892
6.36376
6.44646
6.53676
6.63316
6.73343
6.83504
6.93554
7.03288
7.12547
7.2123
7.29287
7.36724
7.43583
7.49932
7.55851
7.61427
7.66745
7.71876
7.7687
7.81759
7.86563
7.9128
7.95879
8.00323
8.04633
8.08881
8.12801
0.157314
2.4957
3.80431
4.45671
4.95111
5.56045
6.40531
7.4685
8.63507
9.77355
10.7876
11.6014
12.1257
12.2782
12.2097
12.5358
10.2605
8.42383
7.11283
6.1733
5.7049
5.74226
5.98718
6.17401
6.27805
6.3255
6.34917
6.37131
6.40198
6.4425
6.49083
6.54565
6.60736
6.67701
6.755
6.84058
6.93199
7.02684
7.12255
7.21672
7.30739
7.39317
7.47324
7.54732
7.61554
7.6784
7.73657
7.79088
7.84215
7.89116
7.93855
7.98476
8.03006
8.07459
8.11831
8.16109
8.20295
8.24444
8.28604
8.32417
0.174797
2.66802
4.02912
4.71597
5.24829
5.901
6.78004
7.86921
9.06867
10.2513
11.3418
12.3011
12.9149
13.0112
13.1595
12.4089
9.99593
8.15831
6.80077
5.95654
5.75478
6.04547
6.3673
6.57525
6.67982
6.71589
6.72008
6.71874
6.72615
6.7467
6.77944
6.82239
6.87468
6.93628
7.00695
7.08558
7.1702
7.25827
7.34718
7.43458
7.51859
7.59794
7.67189
7.74026
7.80324
7.86132
7.91518
7.9656
8.01336
8.05917
8.1036
8.14703
8.18971
8.23174
8.27316
8.31406
8.35477
8.39598
8.43775
8.47556
0.192149
2.90927
4.30062
5.01404
5.58311
6.27937
7.18807
8.2933
9.51669
10.7215
11.8236
12.7129
13.2329
13.5667
13.6565
11.8114
9.54392
7.72754
6.43523
5.83979
6.01166
6.49054
6.83018
7.02059
7.09587
7.09847
7.06675
7.02908
7.00259
6.99449
7.00514
7.03197
7.07241
7.12472
7.18747
7.25889
7.33668
7.4182
7.50081
7.5822
7.66056
7.73466
7.80385
7.86793
7.92713
7.9819
8.03292
8.0809
8.12656
8.17055
8.21336
8.25535
8.29672
8.33762
8.37822
8.4188
8.45992
8.5022
8.54517
8.58334
0.207376
3.14333
4.60565
5.34912
5.96019
6.70472
7.64082
8.74547
9.91094
11.0007
11.9684
12.7491
13.3088
13.7201
13.2286
10.8986
8.78135
7.1071
6.07047
5.91928
6.48202
7.02222
7.33008
7.46775
7.48982
7.4426
7.36383
7.28176
7.21488
7.1725
7.15638
7.1638
7.1906
7.23302
7.28801
7.35282
7.42467
7.50074
7.57833
7.65517
7.72948
7.80006
7.86625
7.92788
7.98512
8.03843
8.08841
8.13572
8.18102
8.22486
8.26769
8.30983
8.35149
8.3929
8.43434
8.47629
8.51938
8.56404
8.60916
8.6483
0.227207
3.3852
4.9315
5.71571
6.37818
7.15481
8.04284
9.02538
10.0356
10.9961
11.8636
12.6137
13.1954
13.3635
12.0178
9.73519
7.83159
6.44535
5.87464
6.28933
7.09057
7.58322
7.81421
7.87576
7.83093
7.72557
7.59475
7.46506
7.35513
7.27564
7.2298
7.21517
7.22652
7.25824
7.3055
7.36433
7.43126
7.50317
7.57729
7.65129
7.72339
7.79239
7.8576
7.91882
7.97619
8.03008
8.08105
8.12967
8.17653
8.2221
8.26678
8.31085
8.35457
8.39826
8.44234
8.48735
8.53392
8.58217
8.63028
8.67085
0.227743
3.64961
5.27374
6.08648
6.74053
7.42302
8.22546
9.09633
9.97921
10.8487
11.6537
12.3492
12.8174
12.4929
10.5359
8.52392
6.91312
5.97004
6.02491
6.92396
7.72515
8.10751
8.23711
8.21342
8.09829
7.93377
7.75103
7.57422
7.42142
7.30415
7.22699
7.18824
7.1822
7.20186
7.2408
7.29373
7.35639
7.42523
7.49728
7.57009
7.64183
7.71122
7.77753
7.84047
7.90011
7.95675
8.01084
8.06286
8.1133
8.16257
8.211
8.25889
8.30654
8.35435
8.40281
8.45253
8.50398
8.55688
8.60868
8.65105
0.235993
3.82237
5.54308
6.34979
6.92676
7.53955
8.26007
9.05455
9.86374
10.6656
11.4084
11.9875
12.1453
11.1922
9.16291
7.43663
6.22472
5.87153
6.55475
7.65834
8.29238
8.54147
8.56741
8.46212
8.28122
8.06157
7.83036
7.60927
7.41551
7.26115
7.152
7.08745
7.06197
7.06774
7.09706
7.14348
7.20192
7.26829
7.33931
7.41234
7.48539
7.55705
7.62646
7.69323
7.75729
7.81883
7.87816
7.93567
7.99173
8.04667
8.1008
8.15441
8.20786
8.26159
8.31614
8.37206
8.42962
8.4881
8.54417
8.5886
0.236083
3.86416
5.69226
6.51594
7.04952
7.60471
8.26122
8.99338
9.7498
10.4899
11.1431
11.5449
11.2926
9.75642
7.98921
6.60869
5.90794
6.19991
7.29096
8.29068
8.73411
8.85604
8.79047
8.61491
8.37718
8.10914
7.83461
7.57313
7.34108
7.15092
7.00965
6.91793
6.8709
6.86056
6.87841
6.91709
6.97072
7.0347
7.10532
7.17964
7.25542
7.33103
7.40542
7.47799
7.5485
7.61699
7.68361
7.74862
7.81227
7.87482
7.93655
7.99774
8.05878
8.12013
8.18233
8.2458
8.31057
8.37539
8.43617
8.48287
0.225566
3.81036
5.72963
6.6089
7.14344
7.66954
8.28438
8.96257
9.66331
10.3309
10.8516
10.9866
10.2661
8.56839
7.08441
6.11629
5.99297
6.80658
7.98545
8.74183
9.02607
9.0446
8.90568
8.67369
8.38933
8.08036
7.768
7.47016
7.20258
6.97801
6.80461
6.68444
6.61373
6.58482
6.58894
6.61812
6.6659
6.72709
6.79755
6.87392
6.95358
7.03459
7.11561
7.19577
7.27462
7.35195
7.42777
7.50215
7.57525
7.64724
7.71835
7.78887
7.85918
7.92974
8.00099
8.07323
8.14613
8.21795
8.28382
8.33293
0.215381
3.65023
5.67418
6.63823
7.20878
7.73477
8.33046
8.95953
9.59201
10.1653
10.5039
10.3163
9.14349
7.59877
6.43602
5.94318
6.36374
7.43985
8.48654
9.01566
9.17602
9.11604
8.9215
8.64587
8.32422
7.98117
7.63597
7.30538
7.00465
6.74682
6.54112
6.39113
6.29451
6.24442
6.23228
6.24991
6.29041
6.3481
6.41831
6.4972
6.58165
6.66927
6.75836
6.84769
6.93652
7.0244
7.11111
7.19658
7.28081
7.36392
7.44608
7.52755
7.60868
7.68987
7.77145
7.85352
7.9354
8.01479
8.08608
8.13778
0.202622
3.37277
5.52383
6.60534
7.23713
7.77689
8.35774
8.93964
9.4925
9.92819
10.0386
9.47859
8.06553
6.78245
5.99396
6.00649
6.82532
7.93319
8.76957
9.13434
9.20484
9.087
8.85079
8.54154
8.18997
7.8183
7.44432
7.08386
6.75176
6.46134
6.22284
6.04147
5.91652
5.84246
5.81136
5.81516
5.84674
5.90001
5.96971
6.05137
6.14129
6.23654
6.33489
6.43473
6.53497
6.63486
6.73396
6.832
6.92889
7.02463
7.11934
7.21323
7.30659
7.3997
7.49279
7.58567
7.67732
7.76484
7.84188
7.89636
0.183541
2.94886
5.23743
6.49755
7.21688
7.76999
8.30993
8.83855
9.28692
9.53841
9.37286
8.39566
7.06533
6.07155
5.7189
6.20492
7.22772
8.26217
8.89203
9.13658
9.13755
8.97578
8.70741
8.37138
7.99505
7.59867
7.19882
6.8105
6.44815
6.12529
5.8531
5.63841
5.48248
5.38146
5.32852
5.31609
5.33703
5.38485
5.45367
5.53826
5.63419
5.73786
5.84646
5.95792
6.07073
6.18385
6.29659
6.4085
6.51935
6.62906
6.73765
6.84529
6.95214
7.0584
7.16409
7.26876
7.37094
7.46716
7.55031
7.60781
0.184398
2.59407
4.83272
6.29583
7.13682
7.70095
8.15729
8.56511
8.88748
8.94628
8.46009
7.23388
6.11644
5.47318
5.60458
6.45479
7.52771
8.44448
8.90436
9.05495
8.99829
8.79954
8.50417
8.14536
7.74739
7.32876
6.90487
6.48991
6.09781
5.74213
5.43488
5.1846
4.99473
4.86353
4.78573
4.75461
4.76319
4.80459
4.87216
4.9598
5.06218
5.17491
5.29455
5.41848
5.54478
5.6721
5.79948
5.9263
6.0522
6.177
6.30064
6.42319
6.54473
6.66529
6.78468
6.9021
7.01561
7.12108
7.21072
7.27152
0.198058
2.6084
4.5336
6.05794
6.99516
7.55561
7.8927
8.1153
8.29074
8.14417
7.28898
6.10905
5.25675
5.04959
5.65327
6.70684
7.75703
8.5022
8.83772
8.91117
8.8046
8.57225
8.25202
7.87215
7.45402
7.01437
6.56735
6.12627
5.70435
5.31507
4.97111
4.68266
4.4556
4.29075
4.18493
4.13266
4.12729
4.16145
4.22756
4.31842
4.42764
4.54994
4.68117
4.81816
4.95859
5.10075
5.24347
5.38599
5.52777
5.66856
5.80824
5.94675
6.08407
6.22006
6.35422
6.48536
6.611
6.72629
6.82278
6.88712
0.213479
2.82896
4.50824
5.90031
6.8166
7.31027
7.50866
7.56112
7.54494
7.11126
6.04167
5.06591
4.57162
4.86996
5.8367
6.9464
7.92877
8.49262
8.71861
8.72145
8.56857
8.30403
7.95949
7.55889
7.1209
6.66053
6.19063
5.72339
5.27127
4.84738
4.46487
4.13554
3.86791
3.66585
3.52888
3.45319
3.43256
3.45901
3.5237
3.61802
3.73438
3.86657
4.00965
4.15996
4.31475
4.47204
4.63047
4.78908
4.94727
5.10469
5.26114
5.4165
5.57058
5.72304
5.87303
6.01887
6.15736
6.28295
6.38655
6.45459
0.2149
3.07151
4.65151
5.8342
6.60508
6.9583
7.01139
6.94015
6.66992
5.88621
4.87849
4.18237
4.16125
4.9488
6.09818
7.1853
8.01851
8.4247
8.55506
8.49426
8.29769
8.00173
7.6327
7.21099
6.75282
6.27146
5.77839
5.28469
4.80182
4.34228
3.91947
3.5467
3.23531
2.9928
2.82203
2.72135
2.68492
2.70374
2.76728
2.86531
2.98885
3.13079
3.28546
3.44876
3.61757
3.78973
3.96365
4.1383
4.31298
4.48728
4.66095
4.83377
5.00542
5.17526
5.34204
5.5034
5.65537
5.79154
5.90226
5.97393
0.213945
3.15641
4.73298
5.72568
6.31505
6.50685
6.42936
6.23871
5.70184
4.70223
3.87451
3.56849
4.09489
5.21988
6.38768
7.42101
8.03625
8.30608
8.35108
8.23339
7.99606
7.66942
7.27577
6.8324
6.35341
5.85048
5.33381
4.8132
4.29899
3.80312
3.33903
2.9212
2.56381
2.27866
2.07286
1.9473
1.89618
1.90855
1.97153
2.07297
2.2028
2.35311
2.51788
2.69273
2.87417
3.05996
3.24831
3.43815
3.62872
3.81958
4.01042
4.20094
4.39061
4.5785
4.76276
4.94028
5.10605
5.2527
5.37001
5.44475
0.208158
3.09048
4.62595
5.46057
5.89085
5.9542
5.77268
5.44138
4.56949
3.64781
3.11257
3.33318
4.34418
5.5763
6.68174
7.55347
7.98967
8.14614
8.11371
7.94255
7.66629
7.30964
6.89118
6.42565
5.9252
5.40012
4.85939
4.31162
3.76655
3.235
2.73013
2.26749
1.86443
1.53788
1.30051
1.1555
1.0949
1.10364
1.16581
1.26809
1.40024
1.55444
1.72477
1.90674
2.09698
2.29304
2.49304
2.6959
2.90054
3.10663
3.31377
3.52149
3.72912
3.9352
4.13726
4.33111
4.51054
4.66691
4.78929
4.86531
0.199545
2.91775
4.32543
5.00086
5.29852
5.28529
5.03179
4.39934
3.44727
2.76105
2.70112
3.51288
4.76724
5.93754
6.96449
7.59927
7.88883
7.94828
7.84629
7.62441
7.3103
6.92399
6.48065
5.99255
5.47016
4.92251
4.35785
3.78408
3.20955
2.64449
2.10218
1.59977
1.15931
0.806644
0.562532
0.426477
0.37561
0.384435
0.43698
0.524707
0.642001
0.783837
0.945456
1.12264
1.31174
1.50986
1.71475
1.92491
2.13924
2.35712
2.57793
2.80105
3.02554
3.2491
3.46852
3.67823
3.87045
4.0347
4.15863
4.23092
0.188552
2.66595
3.87459
4.35963
4.52259
4.43749
4.08407
3.18544
2.43399
2.17955
2.76633
3.98343
5.20956
6.27765
7.1348
7.57471
7.7397
7.71369
7.54881
7.27938
6.92872
6.51318
6.04494
5.5341
4.98957
4.41983
3.83254
3.23445
2.63345
2.04009
1.46939
0.944389
0.504022
0.207012
0.0773948
0.0429963
0.0364677
0.0383979
0.0485881
0.0724674
0.117446
0.190042
0.293038
0.424943
0.581498
0.757771
0.949412
1.1531
1.36645
1.58785
1.81605
2.04981
2.28742
2.52596
2.76084
2.98483
3.18795
3.3568
3.47535
3.52983
0.175925
2.36008
3.3206
3.57914
3.56179
3.42563
2.80549
2.06546
1.71697
2.11962
3.25743
4.51414
5.60463
6.58939
7.20392
7.48551
7.54367
7.44162
7.21982
6.90655
6.52124
6.07728
5.58442
5.05093
4.48491
3.89459
3.28644
2.66714
2.04535
1.43432
0.857443
0.366608
0.0790086
0.0318433
0.0401965
0.0413715
0.0415685
0.0415544
0.0411109
0.0393828
0.0348853
0.0292311
0.0313133
0.0510182
0.0982906
0.181265
0.301495
0.454855
0.635212
0.836972
1.05577
1.28802
1.53008
1.77728
2.02293
2.25753
2.468
2.63671
2.73968
2.74217
0.164956
2.02757
2.6938
2.72952
2.58534
2.23331
1.62931
1.28829
1.57368
2.61451
3.87244
4.97508
5.96106
6.77231
7.18436
7.33331
7.29953
7.13038
6.85774
6.50465
6.08713
5.61602
5.09916
4.54385
3.95816
3.34908
2.72307
2.088
1.45579
0.849739
0.329022
0.0508593
0.038135
0.0415204
0.0414944
0.0414894
0.0415542
0.041678
0.0418514
0.0420718
0.0423321
0.0425869
0.0426354
0.0417258
0.0378131
0.0309408
0.0325182
0.0570985
0.118284
0.22555
0.378531
0.56978
0.789636
1.02769
1.27239
1.50976
1.72225
1.88635
1.96726
1.9005
0.161898
1.6786
2.00916
1.91583
1.67829
1.18385
0.910926
1.13786
2.07679
3.30099
4.39892
5.36982
6.28432
6.83636
7.08152
7.11925
7.00654
6.77893
6.46158
6.07295
5.62589
5.12917
4.58949
4.01448
3.41113
2.78618
2.14742
1.50612
0.884525
0.342069
0.0489311
0.0391524
0.0416346
0.0414535
0.0413284
0.0412753
0.0412893
0.0413598
0.0414774
0.0416399
0.0418532
0.0421243
0.0424467
0.0427961
0.0431509
0.0434899
0.0436716
0.0429715
0.0389642
0.0323522
0.0408725
0.0877255
0.192209
0.355118
0.557769
0.77394
0.97564
1.13072
1.19497
1.0887
0.182191
1.27117
1.3693
1.22444
0.824214
0.623586
0.824761
1.66472
2.82448
3.88471
4.82808
5.74033
6.4521
6.79145
6.90091
6.84546
6.66523
6.38716
6.0309
5.61083
5.13698
4.61649
4.05644
3.46401
2.84591
2.21002
1.56738
0.93886
0.380058
0.0571237
0.0385724
0.0418369
0.0415714
0.0413476
0.0411895
0.0410955
0.0410629
0.0410846
0.0411519
0.0412599
0.0414135
0.041622
0.0418823
0.0421747
0.0424845
0.042818
0.0431939
0.0436336
0.0441616
0.0447898
0.045345
0.0446469
0.0392848
0.0393965
0.0774804
0.172676
0.304803
0.425573
0.478892
0.393989
0.24989
0.923523
0.776578
0.511668
0.41896
0.647762
1.40908
2.46612
3.45334
4.34411
5.20475
6.02589
6.48004
6.65649
6.65183
6.51585
6.27718
5.95553
5.56556
5.11796
4.62018
4.07869
3.50113
2.8944
2.26653
1.6283
0.999245
0.429513
0.0728344
0.0369069
0.0421516
0.0418296
0.041526
0.041282
0.0410947
0.0409634
0.0408864
0.0408603
0.0408784
0.0409349
0.0410331
0.0411831
0.041385
0.0416222
0.0418787
0.0421538
0.0424608
0.0428194
0.0432547
0.0437984
0.044487
0.0453602
0.0464699
0.047837
0.0490833
0.0483611
0.0453037
0.0486645
0.0535431
0.0435641
0.176871
0.292379
0.252761
0.330249
0.645556
1.32897
2.22972
3.11057
3.9306
4.73603
5.56364
6.12642
6.39124
6.43959
6.33913
6.13311
5.84345
5.48388
5.06473
4.59341
4.0751
3.51687
2.9252
2.30923
1.68021
1.05656
0.482818
0.0951915
0.0343359
0.0425754
0.0422225
0.041838
0.0415173
0.0412529
0.0410396
0.0408755
0.0407599
0.0406907
0.0406629
0.040671
0.0407169
0.0408101
0.0409537
0.0411356
0.0413397
0.0415602
0.0418047
0.042089
0.042432
0.0428558
0.0433857
0.0440525
0.0448931
0.0459527
0.0472791
0.0488906
0.0506677
0.052104
0.0519929
0.0480374
0.0367131
0.0405891
0.0448835
0.0499365
0.0560469
0.0635625
0.0728857
0.0844359
0.0986526
0.115995
0.136958
0.162118
0.192017
0.226378
0.262315
0.296861
0.349892
0.455339
0.559886
0.446015
0.0365074
0.0399572
0.0438193
0.0484493
0.0541587
0.0613112
0.0703335
0.081698
0.0959493
0.113699
0.135639
0.162596
0.195473
0.2347
0.278686
0.324151
0.38306
0.489348
0.605321
0.549574
0.0362985
0.0392979
0.0426959
0.0468523
0.0520826
0.0587537
0.0672944
0.078197
0.092073
0.109654
0.13181
0.15961
0.194287
0.236852
0.286809
0.340983
0.402384
0.495179
0.604502
0.578055
0.0360943
0.0386371
0.0415576
0.0452086
0.0499017
0.0559973
0.063907
0.0741062
0.0872161
0.10402
0.125499
0.152904
0.18771
0.231322
0.284027
0.343192
0.405646
0.48143
0.571687
0.606176
0.0359019
0.0379998
0.0404488
0.043584
0.0477062
0.053161
0.0603314
0.0696482
0.0816845
0.0971868
0.11714
0.14286
0.175943
0.218005
0.269895
0.329906
0.392905
0.457262
0.528246
0.58714
0.0357272
0.0374075
0.0394088
0.0420389
0.0455821
0.0503625
0.05673
0.0650599
0.0758389
0.0896995
0.107508
0.130498
0.16022
0.198341
0.246073
0.302761
0.364116
0.424048
0.482059
0.537237
0.035574
0.0368769
0.0384681
0.0406217
0.0436012
0.0477043
0.0532483
0.0605554
0.0700181
0.0821199
0.0975248
0.11723
0.142561
0.175031
0.215998
0.265701
0.321698
0.378471
0.431101
0.479025
0.0354452
0.0364188
0.0376464
0.0393633
0.0418121
0.0452636
0.0499987
0.0562973
0.0644769
0.074893
0.0879917
0.104442
0.125188
0.151393
0.184285
0.224596
0.271497
0.321703
0.370428
0.414484
0.035342
0.0360385
0.0369484
0.0382699
0.0402337
0.0430789
0.0470443
0.0523767
0.0593392
0.0681977
0.0792203
0.0927654
0.109364
0.129736
0.154742
0.185128
0.220967
0.26101
0.302656
0.343232
0.0352645
0.035736
0.0363727
0.0373325
0.0388283
0.0410007
0.0439104
0.0475832
0.0520812
0.057529
0.0641862
0.0725381
0.0832783
0.0972298
0.115289
0.13844
0.167779
0.204577
0.250684
0.309735
0.0351596
0.0354723
0.035515
0.0345866
0.0308183
0.0236058
0.0173184
0.0158579
0.0197148
0.028456
0.0419086
0.0601562
0.0837051
0.113743
0.152165
0.201385
0.264295
0.344593
0.446941
0.576271
0.0124643
0.0190203
0.00828134
0.0127184
0.0308769
0.0602207
0.0947042
0.130549
0.167195
0.205627
0.247454
0.294179
0.347368
0.408732
0.47978
0.561651
0.655964
0.767122
0.896364
1.04159
0.0987534
0.0618512
0.128082
0.182331
0.226851
0.268325
0.310721
0.355325
0.402547
0.454003
0.51273
0.580026
0.655789
0.739844
0.831168
0.927636
1.02973
1.14527
1.28455
1.43532
0.498472
0.355446
0.367005
0.391482
0.425571
0.468705
0.516553
0.565913
0.617823
0.677458
0.751007
0.834058
0.923974
1.02033
1.12148
1.22427
1.32384
1.43536
1.58257
1.72459
0.466651
0.485716
0.516791
0.555429
0.598118
0.642663
0.688119
0.735036
0.784514
0.84211
0.911966
0.987303
1.06941
1.15714
1.24826
1.33966
1.42849
1.52613
1.63675
1.73041
0.421886
0.501507
0.561558
0.613563
0.661141
0.706708
0.752303
0.799936
0.85131
0.907908
0.968158
1.02953
1.09366
1.16035
1.22802
1.29513
1.36265
1.43597
1.51179
1.57656
0.333479
0.444631
0.518631
0.580754
0.63521
0.685505
0.734335
0.783335
0.833421
0.884693
0.935872
0.985759
1.03481
1.08333
1.13105
1.1778
1.22438
1.27173
1.31709
1.35488
0.22587
0.337377
0.411518
0.480676
0.542455
0.598228
0.650042
0.699275
0.74656
0.791918
0.834739
0.874422
0.911032
0.944908
0.976302
1.00544
1.03258
1.05737
1.07792
1.09135
0.126546
0.212164
0.27238
0.339732
0.40317
0.460978
0.513268
0.561037
0.604705
0.64429
0.679484
0.710007
0.735908
0.757475
0.775025
0.788789
0.798774
0.804469
0.804592
0.797373
0.055781
0.0960461
0.134459
0.188993
0.244517
0.297027
0.344819
0.387815
0.425891
0.458825
0.486347
0.508281
0.52466
0.53568
0.541577
0.542516
0.538474
0.529101
0.513661
0.491219
0.019353
0.023894
0.0405773
0.0692079
0.103607
0.139912
0.175201
0.207725
0.23642
0.260513
0.279468
0.292978
0.300956
0.303487
0.300755
0.292968
0.280294
0.262834
0.240666
0.214029
0.00697769
0.00773796
0.0165713
0.0214925
0.0296154
0.0412778
0.0552856
0.0700211
0.0839762
0.0959096
0.10492
0.110454
0.112279
0.11045
0.10526
0.0971959
0.0869045
0.0751805
0.062973
0.051378
0.00633429
0.00988625
0.0295203
0.0296695
0.0280976
0.0267424
0.0261625
0.0265179
0.0275726
0.0289027
0.0300894
0.0308396
0.0310408
0.0307669
0.0302436
0.0297866
0.0297202
0.0302797
0.0315014
0.0331578
0.00661064
0.0194745
0.034877
0.0349236
0.0347853
0.0346384
0.0344615
0.0342746
0.0341154
0.0340259
0.0340387
0.0341684
0.0344074
0.0347285
0.035092
0.035456
0.0357867
0.0360645
0.0362837
0.0364465
0.0632172
0.0797968
0.089226
0.0976175
0.105182
0.110278
0.113132
0.114192
0.113819
0.1129
0.112008
0.11086
0.109753
0.109098
0.109608
0.255019
0.31392
0.493654
0.660708
0.757253
0.802139
0.822808
0.827434
0.820723
0.805818
0.785248
0.761609
0.737335
0.714779
0.696963
0.459211
0.317197
0.370276
0.490257
0.602899
0.664787
0.687514
0.690575
0.684446
0.674623
0.664417
0.657075
0.65769
0.676009
0.731592
0.5436
0.459389
0.406884
0.398433
0.412021
0.436523
0.466241
0.494954
0.52145
0.547184
0.576516
0.618738
0.690594
0.817279
1.02639
0.583816
0.554688
0.530475
0.519537
0.522759
0.535475
0.552813
0.573293
0.597009
0.629705
0.685899
0.789039
0.964304
1.22128
1.54477
0.57405
0.588682
0.596774
0.607498
0.623046
0.63846
0.651406
0.667358
0.699941
0.773012
0.914553
1.13814
1.42798
1.75431
2.09982
0.522698
0.55982
0.590242
0.616978
0.640344
0.659518
0.686069
0.74442
0.865565
1.06691
1.33435
1.63695
1.95447
2.28181
2.62189
0.454844
0.492775
0.527637
0.560913
0.600545
0.669443
0.796792
0.995355
1.2497
1.53437
1.83255
2.13847
2.45304
2.78108
3.12526
0.383477
0.426624
0.482459
0.57697
0.72688
0.9306
1.1737
1.44104
1.72315
2.01497
2.31282
2.61811
2.93644
3.27346
3.57279
0.393512
0.518101
0.686853
0.891055
1.12271
1.37382
1.63855
1.91209
2.19458
2.48889
2.78754
3.08982
3.34347
3.54529
3.67331
0.739224
0.92946
1.13814
1.36196
1.59897
1.84759
2.10821
2.37888
2.66429
2.94715
3.15318
3.31013
3.39715
3.44181
3.45185
1.20513
1.39259
1.59529
1.8136
2.04705
2.30603
2.5531
2.76644