/*--------------------------------*- C++ -*----------------------------------*\
| =========                 |                                                 |
| \\      /  F ield         | OpenFOAM: The Open Source CFD Toolbox           |
|  \\    /   O peration     | Version:  v1912                                 |
|   \\  /    A nd           | Website:  www.openfoam.com                      |
|    \\/     M anipulation  |                                                 |
\*---------------------------------------------------------------------------*/
FoamFile
{
    version     2.0;
    format      ascii;
    class       volScalarField;
    location    "22";
    object      p;
}
// * * * * * * * * * * * * * * * * * * * * * * * * * * * * * * * * * * * * * //

dimensions      [1 -1 -2 0 0 0 0];


internalField   nonuniform List<scalar> 
20320
(
418420
428676
428706
428760
428833
428924
429029
429146
429272
429405
429542
429678
429812
429940
430060
430169
430266
430349
430419
430465
398497
408412
408449
408506
408580
408672
408778
408895
409022
409156
409293
409429
409564
409692
409812
409920
410015
410091
410148
410190
379172
388776
388814
388871
388946
389038
389144
389262
389389
389522
389659
389795
389928
390056
390174
390281
390375
390447
390497
390536
360446
369751
369789
369846
369920
370011
370116
370234
370360
370492
370627
370762
370894
371019
371135
371241
371333
371400
371447
371489
342307
351321
351358
351413
351487
351576
351680
351796
351920
352051
352184
352317
352447
352569
352683
352787
352875
352938
352982
353027
324742
333470
333506
333561
333632
333720
333821
333934
334056
334184
334314
334444
334570
334690
334801
334902
334986
335044
335087
335135
307737
316186
316220
316273
316342
316427
316525
316634
316751
316875
317001
317127
317249
317364
317471
317569
317647
317700
317741
317792
291280
299456
299489
299539
299605
299685
299778
299882
299993
300111
300231
300350
300466
300575
300677
300769
300840
300887
300926
300978
275360
283268
283299
283345
283406
283481
283567
283663
283767
283875
283986
284096
284203
284303
284397
284481
284543
284581
284616
284670
259964
267610
267638
267680
267735
267802
267880
267966
268058
268155
268253
268350
268443
268530
268611
268682
268731
268759
268788
268840
245083
252471
252496
252532
252580
252637
252704
252777
252854
252934
253015
253092
253166
253233
253295
253348
253377
253389
253408
253457
230707
237842
237863
237892
237931
237977
238029
238085
238143
238202
238258
238310
238356
238395
238427
238452
238453
238441
238442
238483
216824
223712
223728
223750
223777
223809
223844
223880
223914
223945
223969
223986
223993
223991
223981
223962
223922
223870
223845
223868
203426
210070
210080
210093
210108
210124
210138
210150
210155
210151
210135
210106
210061
210000
209928
209844
209738
209626
209553
209544
190502
196908
196912
196915
196916
196914
196906
196889
196860
196815
196749
196661
196546
196405
196243
196062
195854
195642
195488
195417
178044
184216
184213
184206
184192
184171
184138
184090
184022
183929
183805
183644
183440
183193
182904
182578
182210
181829
181530
181336
166039
171983
171973
171955
171927
171885
171827
171746
171636
171491
171300
171054
170743
170358
169897
169361
168740
168073
167498
167052
154478
160198
160182
160154
160111
160049
159965
159851
159699
159498
159237
158898
158464
157914
157232
156402
155397
154234
153106
152104
143348
148852
148830
148792
148735
148654
148545
148400
148207
147953
147621
147187
146623
145892
144949
143743
142190
140208
137938
135527
132638
137931
137904
137857
137787
137690
137559
137384
137154
136852
136456
135935
135247
134338
133126
131500
129272
126106
121631
115379
102245
104748
104763
105084
105458
105809
106148
106436
106696
108210
107646
100798
96602.6
90092.2
86984.2
86261.8
85919.2
85394.3
84459.1
86475.5
187748
298870
277681
228051
176938
131866
96152.7
70349.4
53088.6
42219.4
35667.9
31838.3
29731.5
28585.3
27989.3
27702.6
27582.7
27551.9
27563.3
27593.1
27627.4
27656.7
27678.9
27694.9
27706.7
27721.3
27742.6
27770.9
27807.2
27854.5
27918.5
28005.8
28114.2
28236.2
28370.7
28520.8
28680
28822.4
28932.2
29000.6
97234.7
99845.4
99685.3
99711.6
99910.5
100167
100542
101153
102219
104843
106565
101220
98200.2
84769.6
82712.3
82424.2
82386.4
82475.3
82709.6
82629.8
115000
222033
230402
198991
157377
117856
85646
62100.4
46276.1
36284.2
30271.8
26724.3
24713.3
23614.6
23035.9
22751.4
22626.2
22585.4
22584.3
22598
22612.9
22621.2
22622.4
22620
22617.9
22620.3
22630.1
22648.1
22677
22720.5
22782.6
22868.7
22979.5
23107.4
23247.7
23399.9
23562.2
23711.4
23832.1
23911.6
92188
94606.6
94497.6
94465
94448.8
94603.2
94982.9
95874.3
97870.1
99263.5
100395
97147.9
84860.3
82684.3
82445.5
82388
82371.5
82437.6
82659.9
82618.4
112384
185801
192762
172023
137928
103082
73993.8
52691
38489.4
29605.1
24264.5
21157.1
19403.6
18440
17929.7
17675.7
17561
17518.6
17509.3
17511.2
17511.3
17503
17486.5
17466.3
17447.7
17435.6
17433.4
17441.5
17461.8
17498.7
17556.6
17640.4
17754.1
17887.3
18031
18186.8
18358.9
18517.4
18649.8
18744.8
86959.6
89363.4
89684.4
89293.9
89041
89064.1
89332.2
90066.1
92215.2
94705.8
93276.7
90531
80614.2
82241.2
82451.9
82399
82370
82382.9
82602.2
82515
112487
161743
163785
147583
118387
86993.8
60537.1
41493.3
29194.3
21774.6
17436.9
14981.5
13639.1
12917
12543.2
12361.6
12285
12259.5
12255
12256.6
12252.9
12238.1
12213.4
12182.8
12150.7
12126.2
12117.7
12121.6
12136.5
12167.2
12220.7
12303.5
12424.8
12561.5
12703.2
12864.5
13061.2
13230.1
13373.6
13488.4
81629.1
84163.4
84414.2
83994.5
83603.6
83483.6
83589.4
84042.3
84463.1
88692.9
94180.4
88030.7
80279.2
79118.3
82265.1
82398.4
82373.4
82296.7
82554.9
79981
110666
136147
137512
123412
97372.6
68607.2
44654
28157.4
18163.9
12660.1
9669.5
8117.7
7388.95
7049.26
6880.31
6819.55
6811.52
6824.08
6837.5
6850.21
6852.33
6838.71
6813.31
6778.23
6733.18
6695.4
6682.04
6687.4
6698.23
6720.73
6767.36
6849.07
6988.26
7128.94
7259.19
7425.84
7674.38
7849.52
8002.24
8140.35
76243.4
78629.3
78867.9
78627.4
78346.3
77960.8
77815.5
78024.1
78570.3
79886.6
83737.6
86757.6
79052.2
71824.5
81152.5
82323.9
81354.5
82122
60686.6
71416.7
97959.4
112311
112488
98953.4
74606.4
47687.9
25851.9
11897.7
4939.41
2316.81
1322
1042.66
1093.24
1213.84
1266.67
1318.73
1412.52
1465.04
1483.57
1500.58
1510.16
1503.26
1492.13
1467.94
1426.03
1397.51
1398.46
1418.27
1425.51
1431.65
1451.28
1504.06
1681.94
1798.29
1837.21
1946.76
2322.71
2433.11
2559.31
2706.74
70819.5
73374.8
73341.3
73145.1
72884.3
72656.5
72367.2
72199.6
72382
73199.5
74773
76380.9
76256.9
74393.3
77099.6
75897.8
69045.3
53214.6
52944.7
67950.4
85516.2
91239.5
88631.2
74380.5
50567.3
23401.3
3734.83
53.8543
44.8367
24.109
9.02342
-1.16797
-8.07663
-13.442
-17.5296
-20.2189
-22.2726
-23.8477
-24.892
-25.5687
-26.1662
-26.6591
-27.0278
-27.3672
-27.7835
-28.2074
-28.5793
-28.9163
-29.0853
-29.1683
-29.1586
-29.0175
-29.4082
-29.3575
-29.0827
-28.5117
-29.356
-29.316
-27.846
-19.7928
65425.8
68088.7
67801.2
67568.3
67191.3
66825.7
66569
66294.8
66045.9
66205
67116.7
68296.7
68894.5
69350.2
69704.3
68328.4
62361.6
48001.9
66239.5
67353.9
72843.9
72413.6
66298.4
50618.7
23865.5
1328.25
89.2141
71.1687
46.5102
30.2788
15.9759
4.24239
-4.90996
-11.954
-17.3136
-21.2856
-24.2667
-26.5355
-27.9816
-29.0397
-29.9505
-30.7354
-31.3968
-31.8365
-32.2605
-32.6508
-33.0294
-33.388
-33.6757
-33.8808
-34.0161
-34.1064
-34.279
-34.3702
-34.3328
-34.34
-34.8658
-36.2344
-37.9202
-36.3875
60031.7
62736.7
61970.7
61981.5
61471.1
60925.9
60499.7
60063.5
59580.3
59168.2
59213
59988.4
60481
61076
62079.7
62177.5
58748.1
47206.4
61717.9
65656.6
60757.7
55586.5
46141.4
27003.6
1256.04
89.7843
79.6344
54.3015
34.0264
18.7131
6.06058
-4.23543
-12.37
-18.7096
-23.598
-27.2784
-30.041
-32.0889
-33.648
-34.8383
-35.7763
-36.5354
-37.1722
-37.7349
-38.2203
-38.6553
-39.0545
-39.4134
-39.7087
-39.9302
-40.0859
-40.1989
-40.3426
-40.4386
-40.4647
-40.5455
-40.9864
-41.8352
-42.6443
-41.8848
54576.1
57062.8
56757.6
56388.1
55740.1
54955.6
54401.2
53983.4
53181
52407.2
51921.2
51756.1
51756.3
52194.4
53739.5
55495.9
55478.4
59347.3
63605.7
59077.8
49893.1
40740.2
28136
3329.91
89.6463
76.8418
58.3388
37.802
21.3116
7.86177
-3.22904
-12.3299
-19.6449
-25.4233
-29.938
-33.4091
-36.0597
-38.0714
-39.6004
-40.7836
-41.7275
-42.5014
-43.1527
-43.7141
-44.2067
-44.6484
-45.0496
-45.406
-45.7082
-45.9473
-46.1281
-46.2675
-46.4011
-46.5089
-46.5867
-46.7174
-47.0697
-47.6555
-48.0766
-47.5517
49055.2
51485.3
51610.5
50796
50061.7
48919.8
48352.2
48035.2
47027.2
46589.8
45915.7
44719.1
42998.6
42460.1
44044.6
46278.8
52017.7
92803.6
69129.5
53052.9
40213.2
27801.4
9759.61
84.5059
63.8204
53.2513
36.3732
20.921
7.5674
-3.7788
-13.3072
-21.2144
-27.6486
-32.7901
-36.8561
-40.0354
-42.4964
-44.3905
-45.8543
-46.9992
-47.9172
-48.6743
-49.3136
-49.866
-50.3534
-50.7905
-51.1855
-51.537
-51.8399
-52.0872
-52.2835
-52.4416
-52.5766
-52.6926
-52.7968
-52.9443
-53.2173
-53.5936
-53.7912
-53.4009
43526.8
45955.5
45353.7
45330.7
44501.9
43270.1
43203.5
42228.9
41440.6
40424
38975.3
37221.8
34555.5
32059.7
32467.8
34076.8
65315.8
87292.4
65237.1
46985.4
31403.7
15939
466.635
41.2402
39.5786
28.2432
16.186
4.35347
-6.29975
-15.6813
-23.7586
-30.5452
-36.1203
-40.6207
-44.2165
-47.0603
-49.2896
-51.0299
-52.3897
-53.4628
-54.3284
-55.0457
-55.6539
-56.1821
-56.6507
-57.0701
-57.4517
-57.7957
-58.0954
-58.3435
-58.5475
-58.7155
-58.8589
-58.9822
-59.0958
-59.238
-59.4448
-59.6729
-59.7394
-59.416
38050
40453.1
39748.7
39616.9
39047.6
38401.7
37082.2
36567
35467.8
34241.3
32725
30675.3
27533.7
20058.4
18970.6
25234.8
76763.5
82757.4
59319.5
40413.7
23033.3
4638.39
24.1083
19.0462
14.6549
6.6698
-2.29798
-11.3326
-19.8235
-27.5622
-34.3536
-40.1224
-44.8987
-48.7839
-51.912
-54.4102
-56.3889
-57.9478
-59.1782
-60.1571
-60.9494
-61.6074
-62.1695
-62.6603
-63.0978
-63.4926
-63.8552
-64.1858
-64.4776
-64.7242
-64.9316
-65.1064
-65.2536
-65.3795
-65.4957
-65.6223
-65.77
-65.8949
-65.8743
-65.5791
33601.3
35305.3
35238.3
33777.5
33810.9
32892.5
31493.1
30892.8
29678.5
28678.2
27327.9
25549.5
19678.9
16121.2
16961.4
20782.4
31449.7
77116.4
51479
32993.4
14353.9
248.023
-2.26804
-1.95945
-6.43567
-12.2699
-19.0334
-26.0027
-32.8276
-39.2201
-44.907
-49.773
-53.8265
-57.1468
-59.8383
-62.0015
-63.7253
-65.094
-66.1826
-67.0521
-67.7575
-68.3452
-68.85
-69.2943
-69.6933
-70.0583
-70.3964
-70.7083
-70.9892
-71.2329
-71.4405
-71.6169
-71.7658
-71.8918
-72.0041
-72.1096
-72.2068
-72.2562
-72.1723
-71.876
29120.2
30503.7
30216.7
27931.4
29318.5
27505.2
26618.8
25166.9
24084.3
23691.1
22792.5
19440.5
15729.1
16143.1
16680.4
18037.2
26441.4
56362.4
41260.1
24759.9
5115.14
3.558
-17.9562
-20.5964
-24.4184
-29.0321
-34.2043
-39.6809
-45.2606
-50.5579
-55.2975
-59.375
-62.7929
-65.6095
-67.9043
-69.7558
-71.2372
-72.4184
-73.3613
-74.1158
-74.7289
-75.2417
-75.6836
-76.0764
-76.4334
-76.7648
-77.0753
-77.3647
-77.6323
-77.871
-78.0774
-78.2525
-78.4002
-78.5248
-78.6283
-78.7119
-78.7655
-78.7557
-78.6206
-78.3083
24653
24854.4
24491.6
24658.4
24764.4
22258.1
20876
19382
17449
16980
15736.7
15146.3
15374.5
15839
16232.6
17643.9
25037.3
37619.8
29989.1
16014
531.813
-32.94
-32.6371
-36.7868
-40.2256
-43.9789
-48.0609
-52.5407
-57.1505
-61.5291
-65.4603
-68.8597
-71.7273
-74.1025
-76.0445
-77.6153
-78.8737
-79.8778
-80.6791
-81.3196
-81.8416
-82.2803
-82.6595
-82.9993
-83.3132
-83.6088
-83.89
-84.1567
-84.4085
-84.6394
-84.8423
-85.0145
-85.1604
-85.281
-85.3743
-85.4364
-85.4527
-85.3928
-85.2129
-84.8745
20152.7
22368.3
21982.6
22656.9
19568.7
16879.2
15236.7
15267.8
14645.1
14760.5
14803.3
14988.1
15246
15574.1
15880.3
15515.1
20891.8
24449.1
19786.9
7386.52
30.2996
-47.3631
-48.0469
-51.4381
-54.4884
-57.5735
-60.9739
-64.7148
-68.5227
-72.1304
-75.3785
-78.2014
-80.5956
-82.5865
-84.2188
-85.5402
-86.5984
-87.4398
-88.1079
-88.6419
-89.0773
-89.4453
-89.7651
-90.0535
-90.3254
-90.5859
-90.8383
-91.0838
-91.3195
-91.5392
-91.7371
-91.9085
-92.0513
-92.1649
-92.2479
-92.291
-92.275
-92.172
-91.9507
-91.5822
15753.3
17772.7
18398.8
16292.1
14608.5
14651.2
14521.2
14605.8
14648.1
14695.7
14778.2
14913.3
15108.7
15349.3
15541.1
15108.4
14965.3
15764.1
11578.8
1201.17
-66.8751
-59.3008
-62.3509
-65.0709
-67.6393
-70.2547
-73.1646
-76.2935
-79.4288
-82.3877
-85.0606
-87.3952
-89.384
-91.044
-92.4055
-93.5069
-94.3868
-95.0816
-95.6296
-96.0667
-96.4229
-96.7246
-96.9897
-97.2322
-97.4646
-97.6923
-97.918
-98.1434
-98.3637
-98.5719
-98.7641
-98.9334
-99.0733
-99.1808
-99.2533
-99.2782
-99.2344
-99.0957
-98.8368
-98.4334
14468
14403.5
14380.3
14419.1
14487.1
14536.1
14540.2
14569.3
14612.2
14662.8
14733.7
14838.4
14979.9
15150.1
15641
11176.5
11018.4
9876.75
5176.32
20.8434
-72.9917
-73.9122
-75.8603
-77.9485
-80.0474
-82.2903
-84.7651
-87.3605
-89.9238
-92.338
-94.5281
-96.4507
-98.0935
-99.4668
-100.593
-101.502
-102.224
-102.789
-103.232
-103.583
-103.868
-104.11
-104.327
-104.529
-104.727
-104.925
-105.128
-105.334
-105.54
-105.738
-105.925
-106.092
-106.229
-106.331
-106.395
-106.404
-106.336
-106.167
-105.874
-105.435
14459.4
14448.4
14446
14443.7
14479.3
14501.5
14523.4
14546.3
14581.4
14626.2
14685.9
14766.3
14865.4
14943
14644.8
8895.53
7999.56
5631.99
981.641
-66.0922
-88.8467
-87.7412
-88.7845
-90.2594
-91.9324
-93.8196
-95.8773
-97.9962
-100.07
-102.026
-103.81
-105.383
-106.73
-107.856
-108.778
-109.519
-110.101
-110.555
-110.907
-111.183
-111.407
-111.597
-111.772
-111.94
-112.108
-112.281
-112.463
-112.652
-112.846
-113.037
-113.219
-113.382
-113.515
-113.615
-113.671
-113.666
-113.578
-113.384
-113.063
-112.591
14452.5
14443.3
14437.6
14439.4
14458.7
14479.9
14501.7
14523.3
14552.2
14590
14638.5
14698.9
14773.5
14947.9
12080.9
7573.45
5637.02
2321.42
-196.571
-113.609
-101.288
-100.799
-101.161
-102.128
-103.412
-104.934
-106.588
-108.277
-109.931
-111.5
-112.939
-114.212
-115.306
-116.219
-116.964
-117.557
-118.02
-118.378
-118.653
-118.865
-119.036
-119.185
-119.324
-119.463
-119.606
-119.759
-119.923
-120.098
-120.281
-120.467
-120.644
-120.802
-120.935
-121.032
-121.082
-121.067
-120.963
-120.747
-120.402
-119.903
14441.5
14438.5
14434.3
14435.2
14445.8
14461.8
14480.6
14500.2
14523.7
14555.2
14593.9
14636.5
14690
14347.9
8270.99
6246.56
3565.36
-217.071
-123.706
-114.261
-114.475
-113.183
-113.086
-113.617
-114.537
-115.693
-116.964
-118.27
-119.562
-120.8
-121.942
-122.958
-123.833
-124.563
-125.154
-125.621
-125.982
-126.258
-126.468
-126.628
-126.756
-126.871
-126.981
-127.094
-127.218
-127.355
-127.505
-127.669
-127.844
-128.025
-128.197
-128.352
-128.484
-128.579
-128.625
-128.602
-128.486
-128.254
-127.89
-127.37
14432.2
14428.7
14426.4
14427
14433.4
14445.3
14461.2
14478.4
14496.5
14521.7
14552.4
14586.4
14601.4
13248.4
7076.32
4852.27
1527.58
-1069.91
-150.189
-128.968
-126.527
-125.015
-124.572
-124.757
-125.338
-126.144
-127.064
-128.034
-129.012
-129.963
-130.85
-131.644
-132.33
-132.901
-133.359
-133.719
-133.993
-134.2
-134.355
-134.472
-134.568
-134.655
-134.743
-134.836
-134.943
-135.068
-135.208
-135.365
-135.534
-135.708
-135.878
-136.032
-136.163
-136.257
-136.3
-136.272
-136.148
-135.906
-135.529
-134.992
14421.3
14420.2
14416.1
14415.6
14419.6
14428.6
14443.2
14457.4
14469.9
14486.4
14511.1
14545.3
14667.2
8904.02
6139.87
3369.92
-476.384
-350.924
-135.99
-140.489
-137.745
-136.277
-135.635
-135.555
-135.833
-136.323
-136.934
-137.612
-138.318
-139.022
-139.688
-140.29
-140.813
-141.246
-141.59
-141.857
-142.058
-142.208
-142.318
-142.401
-142.472
-142.538
-142.609
-142.69
-142.784
-142.898
-143.032
-143.183
-143.347
-143.517
-143.684
-143.839
-143.968
-144.062
-144.106
-144.076
-143.949
-143.703
-143.317
-142.769
14412.3
14410.4
14405
14402.5
14405.5
14409.9
14425.9
14434.8
14434.8
14453.3
14475.4
14511.1
13677
7214.34
5009.12
1747.91
-1654.1
-142.475
-152.122
-150.232
-148.297
-147.014
-146.295
-146.021
-146.048
-146.268
-146.614
-147.043
-147.517
-148.008
-148.483
-148.92
-149.301
-149.613
-149.861
-150.048
-150.187
-150.289
-150.363
-150.421
-150.473
-150.524
-150.583
-150.656
-150.741
-150.847
-150.976
-151.123
-151.284
-151.451
-151.615
-151.769
-151.898
-151.995
-152.041
-152.014
-151.888
-151.642
-151.255
-150.704
14402.6
14403.1
14393.4
14389.6
14386.6
14389.3
14411.7
14417.2
14414.5
14427.9
14447.8
14519.8
9799.54
6375.61
3725.14
6.98423
-939.781
-176.425
-161.483
-160.143
-158.517
-157.348
-156.597
-156.18
-156.006
-156.01
-156.14
-156.36
-156.64
-156.949
-157.26
-157.554
-157.811
-158.02
-158.184
-158.304
-158.39
-158.454
-158.5
-158.538
-158.575
-158.617
-158.668
-158.735
-158.815
-158.916
-159.042
-159.184
-159.341
-159.507
-159.67
-159.821
-159.953
-160.053
-160.103
-160.081
-159.962
-159.722
-159.341
-158.795
14343.5
14388.7
14379.6
14374.8
14364.9
14366.9
14393.1
14399.6
14389.3
14402.7
14429.7
13881.8
7682.1
5444.25
2289.45
-1584.67
-234.685
-166.342
-171.515
-169.794
-168.411
-167.347
-166.588
-166.069
-165.748
-165.585
-165.545
-165.597
-165.714
-165.871
-166.044
-166.214
-166.364
-166.484
-166.574
-166.639
-166.682
-166.713
-166.737
-166.759
-166.785
-166.82
-166.869
-166.93
-167.008
-167.107
-167.228
-167.367
-167.521
-167.684
-167.845
-167.996
-168.13
-168.235
-168.29
-168.276
-168.17
-167.942
-167.573
-167.04
14325.5
14355.6
14358.2
14357.3
14350.3
14347.1
14360.2
14356.1
14359.7
14379.3
14432.2
10291.5
6859.72
4275.64
656.747
-1590.27
-198.713
-182.247
-180.965
-179.308
-178.053
-177.08
-176.322
-175.74
-175.318
-175.034
-174.864
-174.783
-174.769
-174.801
-174.857
-174.92
-174.977
-175.02
-175.048
-175.065
-175.073
-175.079
-175.084
-175.094
-175.112
-175.144
-175.19
-175.249
-175.325
-175.423
-175.539
-175.675
-175.826
-175.984
-176.144
-176.294
-176.43
-176.538
-176.602
-176.6
-176.507
-176.298
-175.95
-175.436
14325.1
14309.2
14330.3
14337.1
14338.7
14336.5
14343.2
14352.4
14351
14365
13783.7
8178.36
5983.07
2896.28
-1032.47
-374.336
-183.898
-191.821
-189.968
-188.596
-187.491
-186.602
-185.859
-185.244
-184.76
-184.394
-184.13
-183.948
-183.83
-183.76
-183.718
-183.691
-183.669
-183.646
-183.621
-183.597
-183.578
-183.563
-183.553
-183.552
-183.566
-183.595
-183.638
-183.696
-183.771
-183.866
-183.979
-184.109
-184.256
-184.41
-184.565
-184.715
-184.851
-184.962
-185.034
-185.046
-184.972
-184.787
-184.468
-183.98
14290.9
14282.6
14303.7
14318.8
14325.1
14328.7
14338.6
14357
14354.7
14382.6
10233.6
7396.23
4792.67
1273.32
-1660.57
-199.366
-199.426
-199.847
-198.774
-197.714
-196.783
-195.977
-195.256
-194.634
-194.119
-193.703
-193.374
-193.116
-192.918
-192.766
-192.644
-192.542
-192.454
-192.375
-192.308
-192.25
-192.207
-192.176
-192.154
-192.147
-192.156
-192.181
-192.221
-192.278
-192.352
-192.443
-192.551
-192.676
-192.816
-192.964
-193.114
-193.258
-193.393
-193.507
-193.585
-193.609
-193.556
-193.401
-193.119
-192.671
14281.8
14278.9
14288
14301.1
14310.3
14317.3
14327.9
14342
14382.4
13205.9
8610.54
6426.84
3322.17
-521.47
-590.622
-215.845
-209.794
-208.762
-207.732
-206.809
-206.005
-205.264
-204.572
-203.96
-203.437
-202.995
-202.623
-202.312
-202.055
-201.838
-201.652
-201.49
-201.348
-201.224
-201.12
-201.037
-200.975
-200.931
-200.9
-200.887
-200.892
-200.912
-200.949
-201.003
-201.072
-201.158
-201.261
-201.38
-201.51
-201.648
-201.791
-201.928
-202.059
-202.173
-202.254
-202.287
-202.255
-202.133
-201.897
-201.505
14270.8
14271.8
14276.1
14285.8
14295.2
14303.8
14314.8
14342
14170.8
10077.9
7817.16
5102.24
1598.65
-1593.58
-199.337
-220.645
-219.379
-217.802
-216.762
-215.93
-215.209
-214.515
-213.859
-213.27
-212.753
-212.301
-211.904
-211.558
-211.257
-210.992
-210.756
-210.549
-210.365
-210.205
-210.073
-209.97
-209.894
-209.839
-209.802
-209.783
-209.781
-209.797
-209.829
-209.877
-209.94
-210.019
-210.115
-210.225
-210.343
-210.469
-210.601
-210.729
-210.851
-210.959
-211.04
-211.079
-211.065
-210.976
-210.795
-210.481
14257
14260.9
14263.8
14271.3
14280.2
14289.1
14300.8
14324.6
11916.4
8985.25
6657.73
3473.07
-271.129
-665.548
-236.021
-229.444
-228.109
-226.778
-225.823
-225.089
-224.426
-223.772
-223.155
-222.597
-222.096
-221.646
-221.239
-220.872
-220.541
-220.241
-219.969
-219.726
-219.511
-219.325
-219.173
-219.058
-218.972
-218.908
-218.863
-218.837
-218.829
-218.838
-218.864
-218.904
-218.959
-219.029
-219.114
-219.212
-219.318
-219.43
-219.547
-219.661
-219.771
-219.868
-219.942
-219.983
-219.978
-219.916
-219.794
-219.592
14242.6
14248.3
14250.5
14256.6
14265.1
14273.1
14320.2
13459.6
10045.6
7966.67
5079.9
1605.5
-1470.11
-205.467
-238.82
-238.148
-236.755
-235.714
-234.923
-234.291
-233.676
-233.065
-232.493
-231.972
-231.494
-231.055
-230.649
-230.271
-229.921
-229.598
-229.302
-229.034
-228.797
-228.599
-228.439
-228.312
-228.214
-228.137
-228.081
-228.045
-228.028
-228.029
-228.048
-228.081
-228.128
-228.189
-228.262
-228.345
-228.437
-228.535
-228.634
-228.731
-228.824
-228.905
-228.967
-229
-228.994
-228.945
-228.867
-228.824
14229.2
14235.3
14236.9
14241.9
14250.5
14252.6
14028.4
10995.3
9032.52
6433.25
3203.62
-351.282
-612.088
-253.999
-247.493
-246.523
-245.493
-244.697
-244.09
-243.547
-242.982
-242.423
-241.901
-241.421
-240.971
-240.548
-240.149
-239.771
-239.411
-239.075
-238.765
-238.483
-238.238
-238.033
-237.865
-237.727
-237.617
-237.529
-237.461
-237.413
-237.386
-237.377
-237.384
-237.406
-237.442
-237.491
-237.553
-237.624
-237.702
-237.786
-237.867
-237.944
-238.017
-238.078
-238.122
-238.138
-238.119
-238.059
-237.97
-237.957
14217
14223.3
14224
14228.1
14239.9
14216.8
11895.4
9905.61
7526.13
4513.09
1181.39
-1428.63
-233.824
-256.515
-256.295
-255.186
-254.403
-253.813
-253.352
-252.875
-252.366
-251.868
-251.401
-250.962
-250.544
-250.142
-249.755
-249.383
-249.022
-248.681
-248.365
-248.079
-247.83
-247.62
-247.445
-247.299
-247.178
-247.08
-247.001
-246.943
-246.905
-246.886
-246.882
-246.893
-246.916
-246.95
-246.996
-247.051
-247.112
-247.179
-247.244
-247.305
-247.355
-247.394
-247.416
-247.411
-247.373
-247.288
-247.14
-246.878
14204.1
14212.7
14213.1
14217.5
14211.2
12608.7
10622.9
8376.62
5572.63
2451.94
-814.426
-448.193
-268.744
-265.657
-265.011
-264.174
-263.546
-263.11
-262.731
-262.302
-261.854
-261.421
-261.01
-260.612
-260.226
-259.848
-259.479
-259.116
-258.762
-258.422
-258.104
-257.819
-257.571
-257.358
-257.178
-257.025
-256.896
-256.79
-256.703
-256.635
-256.587
-256.557
-256.543
-256.542
-256.553
-256.573
-256.603
-256.644
-256.689
-256.736
-256.781
-256.818
-256.844
-256.86
-256.859
-256.832
-256.776
-256.675
-256.506
-256.206
14183.8
14201.8
14203.2
14198.2
12894.8
11090
8992.29
6396.82
3465.58
368.367
-1288.04
-288.67
-275.215
-275.229
-274.189
-273.463
-272.943
-272.593
-272.246
-271.859
-271.473
-271.104
-270.744
-270.388
-270.034
-269.682
-269.331
-268.982
-268.637
-268.3
-267.986
-267.709
-267.465
-267.252
-267.068
-266.91
-266.776
-266.662
-266.569
-266.494
-266.437
-266.397
-266.373
-266.36
-266.358
-266.366
-266.385
-266.41
-266.439
-266.471
-266.498
-266.517
-266.525
-266.516
-266.484
-266.43
-266.353
-266.246
-266.098
-265.918
14141.3
14190.7
14179.6
12922
11365.6
9338.51
6955.34
4238.05
1374.17
-1345.31
-232.62
-278.975
-286.096
-284.455
-283.591
-282.955
-282.545
-282.235
-281.904
-281.564
-281.24
-280.929
-280.617
-280.299
-279.977
-279.652
-279.321
-278.987
-278.647
-278.319
-278.02
-277.752
-277.513
-277.302
-277.116
-276.954
-276.816
-276.698
-276.598
-276.517
-276.454
-276.406
-276.372
-276.35
-276.336
-276.334
-276.341
-276.353
-276.369
-276.385
-276.397
-276.4
-276.395
-276.374
-276.333
-276.268
-276.178
-276.067
-275.94
-275.822
12144.4
13812.8
12859.7
11486.4
9590.69
7408.96
4929.87
2243.58
-641.32
-673.275
-303.87
-294.435
-294.6
-293.704
-293.093
-292.641
-292.341
-292.05
-291.744
-291.456
-291.187
-290.922
-290.649
-290.365
-290.07
-289.767
-289.456
-289.13
-288.8
-288.492
-288.208
-287.951
-287.72
-287.512
-287.326
-287.162
-287.021
-286.899
-286.795
-286.71
-286.641
-286.587
-286.544
-286.513
-286.49
-286.478
-286.475
-286.476
-286.48
-286.484
-286.481
-286.472
-286.456
-286.426
-286.379
-286.315
-286.232
-286.135
-286.03
-285.936
122337
127424
127392
127338
127257
127145
126995
126797
126536
126194
125745
125152
124364
123306
121866
119868
116998
112580
105122
91437.9
112157
117230
117194
117133
117043
116920
116755
116537
116253
115881
115393
114750
113894
112742
111163
108948
105730
100749
92427.9
77519.3
102006
107063
107024
106957
106860
106728
106551
106319
106018
105627
105116
104447
103562
102377
100767
98538
95384.7
90796.8
83867.6
73017.3
91883.8
96924.9
96883.1
96812.9
96710.8
96571.4
96386.9
96146.9
95836.6
95436.4
94919
94246.9
93367.9
92208.1
90661.5
88576
85736.3
81839.5
76413.2
68828.5
81793.3
86817.8
86774.4
86701.6
86596.2
86452.9
86264.5
86020.8
85708.4
85309
84798
84142.3
83297.4
82202.5
80775.4
78905.3
76447.9
73225.9
69027.4
63659.8
71735.1
76743
76698.7
76624.6
76517.7
76373.1
76184
75941.2
75632.4
75241.4
74746.8
74120.9
73327.1
72317.8
71032
69392.5
67306
64670.1
61391.8
57411.6
61709.6
66701
66656.6
66582.4
66475.6
66331.9
66144.9
65906.5
65605.8
65228.7
64757.2
64168.4
63433.4
62515.8
61371.4
59947.3
58183.9
56020.6
53410.3
50336.5
51716.7
56692.1
56648.2
56574.9
56469.8
56328.7
56146.1
55914.8
55625.4
55265.7
54820.7
54271.9
53596.6
52767.5
51752.6
50515.7
49018
47222.1
45100.8
42649.1
41755.8
46715.9
46673.2
46601.9
46499.6
46362.5
46186
45964
45688.1
45347.7
44930.3
44421.2
43802.6
43053.9
42151.9
41071.5
39786.3
38271.7
36509.8
34496.1
31825.8
36771.5
36731
36662.9
36564.3
36432
36263.5
36052.7
35791.9
35472.1
35083.1
34612.6
34046.9
33370.2
32565.1
31612.7
30493.2
29187.1
27677.2
25951.1
21923.1
26858.4
26822
26758.6
26663.3
26537.2
26379
26181.4
25936.4
25636.3
25271.8
24831.9
24305.2
23679.1
22938.7
22067.4
21047.1
19859.8
18486.1
16909.2
12033.3
16977.2
16947.3
16884.8
16789.9
16668.8
16514.1
16318.1
16074.7
15777.8
15418.2
14985.1
14470.9
13865.2
13153.7
12328.6
11377.7
10267.6
8988.15
7541.62
2348.29
7134.78
7106.6
7021.05
6920.92
6801.16
6647.18
6450.54
6204.44
5905.48
5534.94
5095.67
4591.28
4018.66
3390.36
2728.08
2053.98
1438.04
943.021
417.322
-440.711
-149.645
-115.851
-145.182
-183.981
-218.019
-256.614
-304.329
-354.45
-401.158
-427.486
-427.664
-428.344
-429.106
-429.831
-430.45
-430.373
-422.922
-419.517
-420.841
-441.075
-433.4
-433.551
-433.668
-433.705
-433.684
-433.667
-433.694
-433.772
-433.959
-434.409
-434.649
-434.793
-434.918
-435.012
-435.05
-434.912
-434.253
-434.343
-434.732
-449.344
-444.232
-444.103
-443.998
-443.911
-443.863
-443.842
-443.818
-443.765
-443.677
-443.69
-443.776
-443.868
-443.961
-444.046
-444.117
-444.15
-444.098
-444.115
-444.231
-458.963
-454.03
-453.944
-453.862
-453.793
-453.743
-453.709
-453.678
-453.641
-453.601
-453.592
-453.626
-453.682
-453.746
-453.807
-453.86
-453.895
-453.908
-453.93
-453.975
-468.729
-463.767
-463.72
-463.674
-463.63
-463.593
-463.562
-463.535
-463.508
-463.484
-463.475
-463.488
-463.519
-463.56
-463.603
-463.644
-463.679
-463.707
-463.735
-463.767
-478.516
-473.547
-473.512
-473.485
-473.459
-473.433
-473.408
-473.387
-473.368
-473.354
-473.347
-473.353
-473.372
-473.399
-473.43
-473.463
-473.496
-473.527
-473.557
-473.587
-488.315
-483.349
-483.326
-483.309
-483.291
-483.272
-483.254
-483.238
-483.225
-483.217
-483.214
-483.218
-483.231
-483.251
-483.276
-483.305
-483.336
-483.367
-483.397
-483.428
-498.135
-493.173
-493.155
-493.142
-493.128
-493.115
-493.101
-493.09
-493.082
-493.078
-493.078
-493.083
-493.094
-493.111
-493.134
-493.161
-493.19
-493.222
-493.253
-493.286
-507.935
-503.003
-502.986
-502.976
-502.967
-502.958
-502.949
-502.943
-502.939
-502.939
-502.942
-502.949
-502.96
-502.977
-502.999
-503.026
-503.056
-503.089
-503.124
-503.16
-517.706
-512.813
-512.81
-512.808
-512.805
-512.801
-512.797
-512.795
-512.795
-512.798
-512.805
-512.815
-512.829
-512.847
-512.87
-512.898
-512.93
-512.965
-513.003
-513.043
-527.435
-522.614
-522.633
-522.64
-522.642
-522.643
-522.643
-522.644
-522.647
-522.654
-522.664
-522.677
-522.694
-522.716
-522.741
-522.771
-522.805
-522.843
-522.883
-522.927
39724.7
38985.3
38120.2
38489.6
41889
47545.6
54455.9
61413.1
67295.8
71261.9
72785
71606.7
67439.9
59462.4
44890.1
48078.5
32865.4
28381.6
28352.7
31195.9
36246.3
42606
49102
54621
58322.1
59696
58492.4
54520.1
47460.8
37085.5
57053.7
38146.1
27421.2
23708.1
24616.8
28571.8
34068.2
39762.3
44534.2
47617.9
48612.7
47389.3
43958
38433.5
31212.8
59174
46877.7
36626.2
30243
27831.5
28571.5
31304.4
34609.1
37419.2
39067.8
39220.4
37780.5
34796.8
30428.1
24994.2
56975.5
48982.6
41556.6
35842.3
32294.8
30771.4
30761.7
31442.7
32064.4
32116.8
31291.7
29449.6
26573.2
22753.3
18221.8
52619.1
46959.5
41431.9
36670.2
33022.6
30528
28975.6
27958.8
27038.4
25854.2
24159
21821.7
18819.5
15224.7
11189.5
46737.1
42501.5
38219
34236.5
30786.6
27952.4
25626
23608.4
21651.9
19546
17154.1
14401.8
11254.3
7722.68
3992.32
39818.4
36488.7
33039.6
29655.4
26470.1
23515.2
20751.5
18106.1
15501.1
12848.9
10041.1
6993.63
3793.35
1043.03
-29.0308
32181.7
29439.9
26524.8
23510.9
20463.7
17438.6
14483
11600.8
8737.93
5811.01
2940.26
728.056
-153.908
-382.421
-372.293
23949.1
21528.2
18886.1
16086.1
13205.3
10289.4
7377.4
4523.35
1934.24
517.263
-360.881
-388.682
-380.032
-385.117
-386.496
15073
12864.6
10477.5
7899.35
5313.53
2757.95
892.459
116.176
-435.812
-389.94
-392.102
-395.002
-395.563
-395.427
-395.517
5894.71
3946.56
2164.44
864.503
113.03
-436.907
-406.808
-400.615
-404.118
-405.824
-405.859
-405.331
-405.169
-405.176
-405.245
-91.2785
-433.506
-433.06
-410.162
-410.49
-414.079
-415.658
-416.026
-415.433
-415.201
-415.136
-415.038
-415.001
-415.012
-415.063
-421.862
-424.218
-426.209
-425.203
-425.538
-425.081
-425.036
-424.991
-424.928
-424.883
-424.852
-424.826
-424.828
-424.86
-424.919
-434.836
-434.579
-434.773
-434.701
-434.707
-434.662
-434.659
-434.651
-434.641
-434.634
-434.636
-434.649
-434.679
-434.729
-434.798
-444.303
-444.308
-444.367
-444.381
-444.387
-444.384
-444.391
-444.403
-444.419
-444.441
-444.468
-444.504
-444.552
-444.615
-444.692
-454.019
-454.053
-454.09
-454.117
-454.139
-454.159
-454.183
-454.212
-454.247
-454.287
-454.331
-454.382
-454.442
-454.512
-454.595
-463.801
-463.836
-463.873