/*--------------------------------*- C++ -*----------------------------------*\
| =========                 |                                                 |
| \\      /  F ield         | OpenFOAM: The Open Source CFD Toolbox           |
|  \\    /   O peration     | Version:  v1912                                 |
|   \\  /    A nd           | Website:  www.openfoam.com                      |
|    \\/     M anipulation  |                                                 |
\*---------------------------------------------------------------------------*/
FoamFile
{
    version     2.0;
    format      ascii;
    class       volScalarField;
    location    "22";
    object      p_rgh;
}
// * * * * * * * * * * * * * * * * * * * * * * * * * * * * * * * * * * * * * //

dimensions      [1 -1 -2 0 0 0 0];


internalField   nonuniform List<scalar> 
20320
(
433687
433766
433795
433849
433923
434013
434118
434235
434362
434495
434631
434767
434901
435030
435149
435258
435355
435438
435508
435554
433574
433675
433713
433769
433844
433935
434041
434159
434286
434419
434556
434693
434827
434956
435075
435184
435278
435355
435412
435454
433349
433491
433529
433586
433662
433753
433859
433977
434104
434238
434374
434510
434644
434771
434889
434997
435090
435162
435212
435252
433040
433221
433259
433316
433390
433481
433587
433704
433830
433962
434098
434233
434364
434489
434606
434711
434803
434870
434917
434959
432657
432874
432911
432967
433040
433130
433233
433349
433474
433604
433738
433870
434000
434122
434236
434340
434428
434491
434535
434581
432212
432458
432494
432549
432620
432708
432809
432922
433044
433172
433302
433432
433559
433678
433789
433891
433974
434032
434075
434123
431714
431985
432020
432072
432141
432226
432324
432433
432551
432674
432800
432926
433048
433163
433271
433369
433447
433499
433540
433591
431172
431463
431496
431546
431612
431692
431785
431889
432001
432118
432238
432357
432473
432582
432684
432777
432848
432894
432933
432985
430597
430903
430934
430980
431041
431116
431202
431298
431402
431510
431621
431731
431838
431938
432032
432116
432178
432216
432251
432305
429997
430313
430341
430383
430438
430505
430583
430669
430761
430858
430956
431052
431145
431233
431314
431385
431434
431461
431490
431543
429382
429703
429727
429764
429811
429869
429935
430008
430086
430166
430246
430324
430397
430465
430527
430579
430609
430621
430639
430688
428759
429081
429101
429131
429169
429215
429267
429324
429382
429441
429497
429549
429594
429633
429666
429690
429692
429679
429681
429721
428139
428456
428472
428494
428521
428553
428588
428624
428658
428689
428714
428730
428737
428735
428725
428706
428666
428614
428588
428612
427527
427837
427847
427860
427875
427890
427905
427916
427921
427918
427902
427873
427827
427767
427694
427611
427505
427392
427320
427311
426932
427230
427234
427237
427238
427236
427228
427211
427182
427137
427072
426983
426868
426727
426565
426385
426176
425964
425810
425739
426360
426643
426641
426633
426620
426598
426565
426517
426450
426356
426232
426071
425868
425620
425331
425006
424637
424257
423958
423763
425817
426082
426073
426055
426026
425985
425926
425845
425736
425590
425399
425154
424843
424458
423997
423460
422840
422172
421598
421152
425306
425552
425536
425508
425464
425403
425318
425204
425052
424852
424590
424252
423817
423268
422585
421755
420750
419588
418460
417458
424830
425056
425034
424996
424939
424858
424749
424604
424411
424157
423825
423391
422827
422096
421153
419947
418394
416412
414142
411731
424393
424597
424570
424523
424453
424356
424225
424050
423820
423518
423122
422600
421913
421003
419792
418166
415938
412771
408296
402045
106066
106021
106037
106358
106732
107083
107422
107710
107970
109484
108916
102072
97876.8
91366.3
88258.3
87535.9
87193.3
86668.3
85733.2
87749.5
189014
300144
278955
229325
178213
133140
97426.9
71623.5
54362.7
43493.5
36942
33112.4
31005.6
29859.4
29263.4
28976.7
28856.8
28826.1
28837.4
28867.2
28901.5
28930.8
28953
28969
28980.8
28995.4
29016.7
29045
29081.4
29128.6
29192.6
29279.9
29388.3
29510.3
29644.8
29794.9
29954.1
30096.5
30206.4
30274.7
106071
106079
106077
106098
106302
106556
106933
107545
108611
111235
112863
107611
104287
86475.6
83281.9
82725.3
82648.7
82640.7
82725.8
82636.2
117888
228425
236794
205383
163768
124247
92037.6
68492
52667.7
42675.7
36663.4
33116
31104.9
30006.2
29427.6
29143
29017.8
28977.1
28975.9
28989.6
29004.5
29012.9
29014
29011.6
29009.6
29011.9
29021.6
29039.8
29068.6
29112
29174.2
29260.3
29371.1
29499
29639.3
29791.6
29953.7
30103
30223.7
30303.2
106368
106187
104759
106066
106048
106200
106584
107475
109471
110864
111950
108738
92113
82695.9
82457.1
82399.6
82383.1
82449.2
82671.6
82630
117869
197402
204363
183624
149529
114683
85594.7
64291.9
50090.3
41206
35865.4
32758
31004.6
30040.9
29530.6
29276.7
29161.9
29119.5
29110.3
29112.1
29112.2
29103.9
29087.4
29067.2
29048.6
29036.5
29034.3
29042.4
29062.7
29099.6
29157.6
29241.3
29355
29488.3
29631.9
29787.7
29959.8
30118.3
30250.7
30345.7
106550
105305
103382
106198
105942
105968
106236
106970
104852
96729.4
108677
107433
97149.9
82258.1
82468.8
82416
82387.2
82399.8
82619.1
82531.9
125421
178646
180689
164487
135290
103897
77440.7
58396.9
46097.9
38678.2
34340.5
31885.1
30542.7
29820.6
29446.7
29265.3
29188.6
29163.1
29158.6
29160.2
29156.5
29141.7
29117
29086.4
29054.3
29029.8
29021.3
29025.2
29040.1
29070.8
29124.3
29207.1
29328.4
29465.1
29606.8
29768.1
29964.8
30133.7
30277.2
30392
106665
105727
106715
106296
105838
105772
105891
106320
106764
107658
96762.6
100885
102581
94802.7
82287.4
82420.8
82395.7
82320.1
83750.1
80003.3
132607
158448
159813
145714
119674
90908.6
66955.3
50458.8
40465.2
34961.4
31970.8
30419
29690.3
29350.6
29181.6
29120.8
29112.8
29125.4
29138.8
29151.5
29153.6
29140
29114.6
29079.5
29034.5
28996.7
28983.4
28988.7
28999.5
29022
29068.7
29150.4
29289.5
29430.2
29560.5
29727.1
29975.6
30150.8
30303.5
30441.6
106823
105325
106664
106337
104259
104903
105441
105820
106366
107680
111349
98095.9
83649.2
75262.2
83584.3
83342.5
84699.7
82160
82057.5
75169.4
125755
140107
140284
126749
102402
75483.7
53647.8
39693.5
32735.3
30093.2
28880.1
28248.3
28027.2
28085.4
28166.3
28248
28336.6
28385.1
28400.1
28370.5
28253
28008.9
27629.2
27172.5
26633.3
26224.6
26097.9
26042.4
25943.8
25799.8
25825.5
25930.5
26310.5
26888.3
27531.5
28246
29117.6
29641.1
30201.3
30501.8
107042
101271
106730
106505
106273
103597
102702
102847
104927
106588
108162
109770
107256
105301
110489
109287
99816.9
85206.7
63787.3
86282.1
118905
124628
122020
107769
83956.3
56790.3
32748.6
11594.3
78.2256
57.4979
42.4124
32.221
25.3124
19.9469
15.8594
13.17
11.1164
9.54126
8.49697
7.82028
7.22269
6.72983
6.36115
6.02176
5.6055
5.1815
4.80967
4.47265
4.30361
4.22069
4.23032
4.37144
3.9807
4.03148
4.30624
4.87726
4.03297
4.07296
78.2617
307.997
107393
100742
106109
106651
106260
105908
105651
105047
105010
104832
106199
107379
107977
108433
108787
107411
101443
87084.2
68231.1
105192
111926
111496
105381
89701
62947.8
7569.14
128.296
110.251
85.5925
69.361
55.0581
43.3247
34.1723
27.1283
21.7686
17.7967
14.8156
12.5469
11.1007
10.0426
9.13174
8.34691
7.68551
7.24582
6.82174
6.43147
6.05291
5.6943
5.40662
5.2015
5.06617
4.97588
4.80326
4.71205
4.74956
4.74224
4.21648
2.8479
1.16214
2.69482
106701
105198
106590
106857
106346
105804
105377
104916
103473
104046
104091
104857
105319
105952
106958
107004
103612
90456.7
66907.6
110534
105635
100464
91019.3
71881.4
5896.73
134.662
124.512
99.1793
78.9043
63.5909
50.9384
40.6424
32.5078
26.1683
21.2798
17.5993
14.8368
12.789
11.2299
10.0395
9.10152
8.34243
7.70554
7.14293
6.65748
6.22249
5.82336
5.46443
5.16917
4.94762
4.7919
4.67884
4.53523
4.43925
4.41312
4.3322
3.89148
3.0426
2.23347
2.99298
108342
107840
89685.3
107161
106510
105733
105178
104358
103958
100389
98002.5
102257
102504
102972
104517
106273
106256
68698.4
102756
109855
100670
91517.4
78913.2
18352.1
140.423
127.619
109.116
88.5792
72.0888
58.6389
47.5481
38.4473
31.1322
25.3539
20.8391
17.3681
14.7175
12.7057
11.1768
9.99354
9.04965
8.27577
7.62451
7.06311
6.57045
6.12872
5.7276
5.37113
5.06891
4.82989
4.64906
4.50959
4.37612
4.26829
4.19053
4.05981
3.70747
3.12164
2.70055
3.22544
108880
108241
97941.9
107560
106832
105702
103395
104790
102837
93047.6
92372
100721
99781
99242.5
100827
103061
108800
92860.4
125912
109835
96995.5
84583.8
63786.8
141.288
120.603
110.034
93.1556
77.7033
64.3498
53.0035
43.4752
35.568
29.1338
23.9922
19.9262
16.747
14.2859
12.3918
10.9281
9.78317
8.86515
8.10807
7.46873
6.91631
6.42886
5.99185
5.59683
5.24542
4.94235
4.69511
4.49886
4.34073
4.20577
4.08976
3.98557
3.838
3.56504
3.18874
2.99112
3.38139
109519
106567
108034
107565
107397
105297
85094.5
105124
94978
102643
101870
100117
97450.7
94954.9
95363.1
96972
91419.3
117424
128132
109881
94298.9
78834.2
8404.55
104.135
102.474
91.1385
79.0812
67.2487
56.5954
47.2138
39.1365
32.35
26.7749
22.2745
18.6787
15.8349
13.6055
11.8653
10.5055
9.43246
8.56687
7.84957
7.24137
6.71303
6.24451
5.82503
5.44353
5.09954
4.79988
4.55178
4.34771
4.17969
4.03626
3.913
3.79937
3.65724
3.45043
3.22231
3.15589
3.47917
106798
109211
82305.8
108707
108165
88173
105996
104357
104586
103359
101843
99793
96651.4
75862.9
62401.3
57183
76832.6
148535
128437
109531
92151
67769.3
93.226
88.1639
83.7726
75.7875
66.8198
57.7851
49.2943
41.5555
34.7641
28.9953
24.219
20.3338
17.2058
14.7075
12.7289
11.1699
9.93951
8.96062
8.16833
7.5103
6.94819
6.45743
6.0199
5.62507
5.26253
4.9319
4.64007
4.39353
4.18615
4.01133
3.86404
3.73828
3.62201
3.49539
3.34773
3.22281
3.24343
3.53867
94890.6
106634
73711.1
109229
101412
108344
88172.3
106344
105130
104130
102780
101001
61015.4
16196.7
17036.8
20857.9
31525.2
152568
126931
108445
89805.7
10123.2
73.1837
73.4923
69.016
63.1818
56.4184
49.4491
42.6241
36.2317
30.5448
25.6787
21.6253
18.3049
15.6135
13.4502
11.7265
10.3577
9.26914
8.39966
7.69427
7.10653
6.60178
6.15753
5.75846
5.39345
5.05539
4.7434
4.46248
4.21886
4.01126
3.83484
3.68606
3.5599
3.44763
3.34212
3.24492
3.19554
3.2794
3.57585
113251
110960
110052
109831
93531.4
109405
81712.5
107066
105984
105590
104692
92956.2
16085
16225
16762.3
18119.1
73562.3
138262
123160
106659
86915.6
85.4575
63.9432
61.303
57.481
52.8673
47.6951
42.2186
36.6388
31.3415
26.6019
22.5244
19.1065
16.2899
13.9951
12.1436
10.6622
9.48093
8.53815
7.78364
7.17054
6.65769
6.21575
5.82295
5.46593
5.13464
4.82406
4.53466
4.26714
4.02832
3.82196
3.64698
3.49921
3.3746
3.27109
3.18751
3.13386
3.14379
3.27885
3.59109
115089
83429
112954
36877.4
110470
110697
107267
107845
87917.2
72901.2
30428.3
15234.7
15463
15927.5
16321
17732.4
108197
126082
118452
104477
22308.2
55.5226
55.8256
51.6759
48.2371
44.4837
40.4018
35.9219
31.3122
26.9336
23.0023
19.603
16.7353
14.3602
12.4181
10.8474
9.58899
8.58476
7.78361
7.14303
6.62107
6.18237
5.80309
5.46333
5.14948
4.85388
4.57267
4.30597
4.05415
3.82322
3.62035
3.44809
3.30228
3.18169
3.08832
3.02621
3.00992
3.06988
3.2497
3.58823
118670
34323.4
22381.5
27058.9
114712
112023
74028.5
68999.2
14740.2
14855.6
14898.4
15083.2
15341.2
15669.3
15975.5
15610.2
116035
119593
114930
102530
125.443
47.7805
47.0967
43.7055
40.6552
37.5702
34.1697
30.4289
26.6209
23.0132
19.7651
16.9422
14.5481
12.5571
10.9248
9.60347
8.54522
7.70383
7.03569
6.50168
6.06633
5.69829
5.37851
5.09006
4.81819
4.55769
4.30529
4.0599
3.82415
3.60441
3.40655
3.23508
3.0924
2.97874
2.89578
2.85258
2.86862
2.97164
3.1929
3.56143
81960.9
111443
100607
118236
114794
34810.6
14623.1
14707.8
14750.1
14797.7
14880.1
15015.3
15210.6
15451.2
15643
77430.2
116910
117708
113523
59911.1
35.0693
42.6435
39.5935
36.8734
34.305
31.6896
28.7797
25.6509
22.5155
19.5566
16.8838
14.5491
12.5603
10.9005
9.53876
8.4374
7.55759
6.86269
6.3147
5.87764
5.52138
5.21976
4.95468
4.71216
4.47967
4.252
4.02634
3.80085
3.58063
3.37242
3.18025
3.01099
2.87102
2.76357
2.69108
2.66608
2.70996
2.84863
3.10752
3.511
14580.4
24451.8
56982.5
44687.5
14596
14645
14649.1
14678.2
14721.1
14771.7
14842.6
14947.3
15088.8
15259
15749.9
117735
119886
118744
114044
8959.67
35.8756
34.955
33.007
30.9187
28.8199
26.577
24.1021
21.5068
18.9434
16.5293
14.3392
12.4166
10.7738
9.40047
8.27391
7.36483
6.64364
6.07837
5.63546
5.2842
4.99903
4.75705
4.54059
4.33783
4.1405
3.9419
3.73966
3.53331
3.32747
3.12884
2.94178
2.77504
2.6384
2.53602
2.47237
2.46361
2.53159
2.70006
2.99281
3.432
14578.9
14564.7
14561.9
14559.7
14595.2
14617.4
14639.3
14662.3
14697.3
14742.1
14801.8
14882.2
14981.3
15058.9
21936
124809
123913
121546
116896
49.8215
27.0672
28.1726
27.1294
25.6544
23.9815
22.0942
20.0365
17.9176
15.8436
13.8873
12.1038
10.531
9.18423
8.05805
7.13551
6.3949
5.81243
5.35929
5.00684
4.73083
4.50721
4.31655
4.14199
3.97338
3.80599
3.63241
3.45049
3.26174
3.0683
2.87658
2.69444
2.53227
2.39833
2.29861
2.24239
2.24747
2.33565
2.52946
2.85106
3.32335
14590.3
14567.2
14560.7
14562.5
14581.8
14603
14624.8
14646.4
14675.3
14713.1
14761.6
14822
14896.6
15070.9
111879
130661
128724
125409
44445.8
9.47812
21.7998
22.2886
21.9263
20.9598
19.6759
18.1532
16.4992
14.8102
13.1561
11.587
10.1487
8.87548
7.78172
6.86877
6.12333
5.52995
5.06709
4.70981
4.43471
4.22212
4.05102
3.90233
3.76325
3.62438
3.48136
3.32844
3.16394
2.98951
2.80611
2.61997
2.443
2.28532
2.15288
2.0552
2.00528
2.02054
2.12464
2.34029
2.68573
3.18451
14613.8
14568.9
14564.7
14565.6
14576.2
14592.2
14611
14630.6
14654.1
14685.6
14724.3
14766.8
14820.4
14478.3
138660
136636
133954
130172
1802.89
16.128
15.9144
17.2057
17.3032
16.7716
15.8524
14.6958
13.4254
12.1192
10.827
9.58926
8.44705
7.4312
6.55569
5.82591
5.23462
4.7677
4.40694
4.13123
3.9214
3.76108
3.63271
3.51829
3.40797
3.29472
3.17132
3.03448
2.88416
2.72017
2.54469
2.36443
2.19185
2.03685
1.90543
1.80962
1.76437
1.78714
1.90302
2.13495
2.49944
3.01902
14623.8
14566.6
14564.2
14564.8
14571.2
14583.1
14599.1
14616.2
14634.3
14659.6
14692.9
14724.2
14739.2
90653.9
144898
142674
139350
125821
-12.3672
8.85369
11.2954
12.8071
13.2501
13.0646
12.4842
11.6783
10.7583
9.78826
8.81007
7.85939
6.97216
6.17829
5.4919
4.92077
4.46253
4.10357
3.82922
3.62223
3.46719
3.34985
3.25421
3.1671
3.07934
2.98571
2.87858
2.75421
2.61397
2.45748
2.2882
2.11392
1.94444
1.78991
1.65945
1.56549
1.52231
1.54984
1.67364
1.91561
2.29352
2.83009
14806.4
14565.6
14561.5
14561
14565
14574.8
14588.6
14602.8
14615.3
14654.9
14656.5
14690.7
14812.6
152776
151528
148758
144912
28241.1
9.39772
4.89898
7.64275
9.11092
9.75325
9.83293
9.55456
9.06482
8.45436
7.77629
7.06963
6.36645
5.70004
5.09767
4.57485
4.14223
3.79763
3.53124
3.33013
3.18058
3.07039
2.98696
2.91636
2.84967
2.77889
2.69836
2.60398
2.48971
2.35632
2.20537
2.04066
1.87111
1.70423
1.54955
1.41997
1.3262
1.28245
1.3116
1.43896
1.68538
2.07094
2.61889
14816.6
14563.5
14558.1
14555.5
14578.5
14563
14579.7
14707.5
14622.9
14623.2
14628.5
14664.2
53334.4
160304
158099
154838
151436
10.6146
0.968253
2.85773
4.79253
6.07576
6.79477
7.06897
7.04241
6.82196
6.47595
6.04734
5.57248
5.0819
4.60666
4.16982
3.7891
3.47664
3.22923
3.04191
2.9031
2.80116
2.72648
2.66892
2.61738
2.56546
2.50673
2.43433
2.34859
2.24242
2.11348
1.96715
1.80621
1.63907
1.47475
1.32136
1.19143
1.09526
1.04899
1.07634
1.20201
1.4482
1.83477
2.38593
15032.2
14564
14554.3
14574.7
14683.5
14550.2
14683.1
14580
14575.9
14589.6
14608.7
14680.7
158742
167305
164655
160937
85300.9
-15.4957
-0.553084
0.786639
2.41274
3.58199
4.33229
4.74988
4.92315
4.91985
4.78964
4.56955
4.28986
3.98092
3.6691
3.37519
3.11814
2.90938
2.74561
2.62517
2.5392
2.47583
2.42949
2.39187
2.35441
2.31291
2.26146
2.19494
2.11431
2.01317
1.88803
1.74535
1.58817
1.42253
1.26005
1.10886
0.977109
0.876468
0.826566
0.848841
0.967142
1.20752
1.58862
2.1342
15851.1
14557.6
14548.6
14557.3
14571.4
14535.8
14740.7
14570.6
14559.9
14571.6
14598.7
34776.1
176592
174354
171199
167325
9029.25
2.56773
-2.60578
-0.884246
0.49876
1.56238
2.32186
2.84021
3.16179
3.32464
3.3642
3.31291
3.19556
3.03816
2.8653
2.69558
2.54562
2.42599
2.33512
2.27098
2.22796
2.19652
2.17282
2.15064
2.12417
2.08912
2.04092
1.97933
1.90172
1.80258
1.6816
1.54213
1.38841
1.22554
1.06409
0.913735
0.780044
0.674877
0.619246
0.633151
0.739893
0.967945
1.3363
1.86928
15905.8
14608.9
14535.2
14681.5
14537.1
14524.2
14977.7
14973.5
14536.8
14556.4
14609.2
170539
183893
181309
177690
167431
-21.6801
-5.21389
-3.93214
-2.27486
-1.01977
-0.0463444
0.711272
1.29289
1.71549
1.99952
2.16888
2.24984
2.26407
2.23183
2.17604
2.11288
2.05589
2.01301
1.98479
1.96875
1.9598
1.95422
1.949
1.93943
1.92095
1.88936
1.84322
1.78444
1.70841
1.61067
1.49404
1.35841
1.20775
1.04892
0.889651
0.738931
0.603654
0.495412
0.431758
0.433656
0.525849
0.735021
1.08282
1.59707
15973.1
14982
14515.6
14522.6
14524
14521.8
14739
14749.6
14536.3
14550.3
44068.9
193481
191286
188199
184270
32270.4
1.4051
-6.51854
-4.66555
-3.29315
-2.1887
-1.29955
-0.555904
0.0586273
0.542271
0.908342
1.17293
1.35493
1.47281
1.54288
1.58489
1.61174
1.63409
1.65692
1.68138
1.70571
1.72501
1.74015
1.74989
1.75022
1.73674
1.70792
1.66483
1.60677
1.53148
1.4363
1.3238
1.19317
1.04658
0.892168
0.737256
0.587971
0.451751
0.340919
0.26909
0.257092
0.331162
0.51575
0.835048
1.32231
14651.8
14533.7
14497.4
14512.5
14518.8
14522.4
14546.5
14550.7
14548.4
14576.3
194092
201116
198513
194994
192060
-5.6453
-5.70596
-6.12698
-5.05413
-3.99426
-3.06316
-2.25672
-1.53574
-0.913546
-0.399371
0.0167744
0.346508
0.604279
0.801716
0.954037
1.07584
1.17762
1.26652
1.34465
1.4125
1.46989
1.51294
1.54437
1.56612
1.57344
1.56397
1.53903
1.49921
1.4422
1.3684
1.27729
1.1689
1.04398
0.904184
0.755838
0.606455
0.461796
0.32696
0.213219
0.135181
0.110998
0.163892
0.318875
0.601334
1.04955
14488.5
14481.7
14490.3
14503.4
14512.6
14519.7
14530.7
14544.4
14584.7
102864
210899
208715
205610
201767
63880.5
-13.5565
-7.50561
-6.47387
-5.44349
-4.52035
-3.71657
-2.97528
-2.28408
-1.67203
-1.14886
-0.706649
-0.334577
-0.0236875
0.23354
0.450431
0.636122
0.797804
0.940377
1.06426
1.16786
1.25099
1.31339
1.35762
1.38817
1.40142
1.39665
1.37619
1.33945
1.28571
1.21608
1.13029
1.02707
0.908558
0.77865
0.639784
0.497484
0.359779
0.229806
0.11557
0.0342163
0.000997806
0.0329144
0.154718
0.391016
0.783672
14487.3
14488
14487.1
14496.8
14506.3
14514.8
14525.8
14553.1
14381.8
221089
218828
216113
212610
209417
11.6739
-9.63415
-8.36835
-6.79102
-5.75082
-4.9188
-4.1982
-3.50466
-2.84857
-2.25884
-1.74189
-1.28983
-0.89336
-0.547273
-0.246628
0.018776
0.254361
0.462219
0.646219
0.805901
0.938219
1.04056
1.11691
1.17177
1.20861
1.22798
1.22937
1.21402
1.18172
1.13368
1.0705
0.991503
0.896113
0.786168
0.667605
0.541513
0.410099
0.281874
0.160344
0.0513651
-0.0293217
-0.0685372
-0.0538094
0.0348126
0.215973
0.529534
14485.9
14482.1
14483.7
14491.2
14500.1
14508.9
14520.8
14544.5
201505
228874
226547
223362
219618
91021.2
-16.1326
-9.55512
-8.21958
-6.88923
-5.9342
-5.19967
-4.53662
-3.88276
-3.26629
-2.70796
-2.20684
-1.75679
-1.35014
-0.983183
-0.651968
-0.352088
-0.0801681
0.162677
0.378216
0.564312
0.715631
0.830763
0.91682
0.98146
1.0258
1.05187
1.06027
1.05084
1.02509
0.985224
0.930184
0.859777
0.774945
0.677125
0.570988
0.458447
0.342333
0.227657
0.118214
0.0209958
-0.0532563
-0.0936074
-0.0887542
-0.0274197
0.0948479
0.296456
14476.2
14477.2
14479.4
14485.5
14494
14502.1
14549.2
92804
238972
236893
234006
230532
227456
23.4589
-9.89334
-9.22124
-7.82883
-6.78727
-5.99641
-5.36412
-4.74951
-4.13825
-3.56684
-3.04567
-2.56789
-2.12859
-1.72207
-1.34467
-0.994923
-0.671716
-0.375559
-0.107425
0.129168
0.32721
0.487768
0.614697
0.712433
0.789066
0.84557
0.881384
0.898779
0.8971
0.878371
0.845795
0.798666
0.737646
0.664386
0.581478
0.489862
0.391015
0.292313
0.195382
0.102029
0.0211645
-0.0402893
-0.0733191
-0.0672213
-0.0183094
0.059203
0.102735
14472.1
14473.5
14475
14480
14488.7
14490.8
16725.6
249122
247159
244559
241330
237775
97923.1
-15.8729
-9.36645
-8.39645
-7.36705
-6.57049
-5.96343
-5.421
-4.8554
-4.29632
-3.77519
-3.29437
-2.84501
-2.42173
-2.02275
-1.64424
-1.28513
-0.948331
-0.638299
-0.356769
-0.112065
0.0931354
0.261698
0.399253
0.509146
0.597284
0.665705
0.712986
0.740548
0.749548
0.742165
0.720213
0.684719
0.635362
0.573156
0.502726
0.424505
0.340757
0.259552
0.182033
0.109319
0.0480859
0.0048115
-0.011925
0.00715894
0.0669033
0.155802
0.169677
14469.3
14470.8
14471.5
14475.8
14487.5
14464.3
253694
257397
255018
252005
248673
246063
13.667
-9.02361
-8.80385
-7.6943
-6.91112
-6.32136
-5.86096
-5.3839
-4.87437
-4.37653
-3.90978
-3.47096
-3.05218
-2.65022
-2.264
-1.89139
-1.53096
-1.18911
-0.873571
-0.587814
-0.338855
-0.128819
0.0467811
0.192863
0.313365
0.411813
0.490156
0.54861
0.586202
0.605896
0.60984
0.598513
0.575481
0.541594
0.495622
0.440728
0.379081
0.312863
0.24707
0.18677
0.136173
0.0970017
0.0757514
0.0805421
0.118615
0.203166
0.35162
0.613957
14466
14470.2
14470.2
14475.2
14468.2
236545
267646
265400
262596
259475
256209
67876
-11.7209
-8.63378
-7.98747
-7.1507
-6.52317
-6.08699
-5.70751
-5.27849
-4.83024
-4.39792
-3.98613
-3.58914
-3.2027
-2.82509
-2.45545
-2.09287
-1.73816
-1.39869
-1.08022
-0.795726
-0.547817
-0.334672
-0.15441
-0.00172056
0.126877
0.233695
0.320671
0.38856
0.43604
0.466051
0.480736
0.48105
0.470402
0.450822
0.420015
0.379697
0.334453
0.2872
0.242599
0.205592
0.179302
0.163329
0.164736
0.191179
0.2472
0.347946
0.517434
0.816894
14455.5
14469.1
14470.3
14465.1
223390
277818
275720
273124
270193
267096
261847
-21.9421
-8.48792
-8.50129
-7.46177
-6.73609
-6.21532
-5.86593
-5.51807
-5.13163
-4.74594
-4.37667
-4.01702
-3.66035
-3.30657
-2.95495
-2.6039
-2.25467
-1.90996
-1.57243
-1.25896
-0.981647
-0.73795
-0.524316
-0.340432
-0.182722
-0.0480963
0.0651508
0.158913
0.233931
0.290704
0.330251
0.354836
0.367059
0.368968
0.361049
0.342834
0.317381
0.288062
0.256833
0.229361
0.210207
0.202859
0.21194
0.243481
0.297471
0.374072
0.481803
0.629816
0.809684
14423.2
14467.3
14456.2
243734
287971
285944
283561
280843
277979
275260
25427.6
-2.36991
-9.49064
-7.84989
-6.98596
-6.34976
-5.93938
-5.63007
-5.29929
-4.95932
-4.6353
-4.32375
-4.01186
-3.69417
-3.37216
-3.04644
-2.7162
-2.38141
-2.04198
-1.71359
-1.41475
-1.14644
-0.908278
-0.697231
-0.510963
-0.349299
-0.2109
-0.0925346
0.00673186
0.0877052
0.151271
0.198913
0.233033
0.255652
0.269002
0.271347
0.26379
0.251976
0.23664
0.219626
0.208534
0.204714
0.210059
0.231184
0.27239
0.337629
0.426968
0.538296
0.665359
0.783379
73223.9
46902.7
299519
298146
296250
294069
291589
288903
286018
161584
-17.2102
-7.77578
-7.94058
-7.04448
-6.43299
-5.98133
-5.68152
-5.39072
-5.08453
-4.79603
-4.52725
-4.2624
-3.98949
-3.70503
-3.41034
-3.10733
-2.79631
-2.47071
-2.14067
-1.83208
-1.54889
-1.29128
-1.06003
-0.852731
-0.666077
-0.50236
-0.361845
-0.238942
-0.135433
-0.0502737
0.0181362
0.0726777
0.115642
0.146833
0.169426
0.181955
0.184378
0.183046
0.179409
0.175438
0.178279
0.187404
0.20336
0.233343
0.280072
0.344853
0.427442
0.524326
0.629496
0.724039
423994
424177
424145
424090
424010
423898
423748
423549
423289
422946
422497
421904
421116
420058
418619
416621
413751
409333
401874
388190
423625
423793
423757
423696
423606
423482
423317
423100
422815
422443
421955
421312
420457
419305
417725
415510
412292
407312
398990
384082
423283
423435
423396
423330
423233
423100
422923
422692
422391
421999
421489
420820
419934
418750
417140
414910
411757
407169
400240
389390
422971
423107
423066
422995
422893
422754
422569
422329
422019
421619
421101
420429
419550
418391
416844
414758
411919
408022
402596
395011
422691
422810
422767
422694
422589
422445
422257
422013
421701
421301
420790
420135
419290
418195
416768
414898
412440
409218
405020
399652
422443
422546
422501
422427
422320
422176
421986
421744
421435
421044
420549
419923
419130
418120
416835
415195
413109
410473
407194
403214
422227
422314
422269
422195
422088
421944
421757
421519
421218
420841
420370
419781
419046
418128
416984
415560
413796
411633
409023
405949
422044
422115
422071
421997
421892
421751
421569
421337
421048
420688
420243
419694
419019
418190
417175
415938
414440
412645
410523
408072
421893
421948
421906
421834
421732
421595
421418
421197
420921
420580
420163
419654
419035
418286
417384
416304
415019
413504
411742
409729
421773
421814
421773
421705
421607
421475
421306
421095
420834
420515
420126
419655
419089
418413
417608
416655
415536
414230
412720
410994
421681
421711
421675
421611
421516
421390
421232
421034
420789
420489
420124
419684
419158
418532
417791
416920
415900
414712
413339
411762
421601
421640
421610
421547
421452
421331
421177
420981
420737
420440
420081
419648
419133
418528
417816
416991
416040
414930
413651
412204
383788
421607
421579
421494
421393
421274
421120
420923
420677
420378
420007
419568
419055
417792
413806
404017
384306
349718
289857
193091
-11.5236
54034.9
57372.8
50382.6
42927.1
37151.7
30492.3
22020
13075.4
4852.65
-3.20377
-3.38168
-4.06198
-4.82313
-5.54847
-6.16771
-6.09065
1.36007
4.76538
3.44142
-2.07779
0.69257
0.541819
0.424286
0.387942
0.408572
0.425384
0.398121
0.320708
0.13325
-0.316406
-0.556414
-0.700635
-0.825635
-0.919671
-0.957916
-0.819394
-0.160101
-0.250871
-0.639714
-0.536997
-0.329313
-0.200903
-0.0956053
-0.00876615
0.0390531
0.0606399
0.0840033
0.137457
0.225511
0.212351
0.126841
0.0341328
-0.0581876
-0.143834
-0.21476
-0.247762
-0.195318
-0.212289
-0.328783
-0.34557
-0.317958
-0.231243
-0.149072
-0.0800975
-0.0303181
0.00396585
0.0345982
0.0717014
0.111571
0.120483
0.0868586
0.0307276
-0.0331065
-0.0947713
-0.147152
-0.182319
-0.195237
-0.217305
-0.262362
-0.301351
-0.244293
-0.197428
-0.151103
-0.107767
-0.0705155
-0.0396025
-0.0121063
0.0148375
0.0383629
0.047101
0.0341402
0.00343911
-0.037244
-0.0804694
-0.121183
-0.15633
-0.184742
-0.212579
-0.24462
-0.278132
-0.214973
-0.179896
-0.152992
-0.126245
-0.100107
-0.0757782
-0.0541476
-0.0354444
-0.0210432
-0.0149858
-0.0208718
-0.0390059
-0.0662223
-0.0978697
-0.130921
-0.16357
-0.194632
-0.224667
-0.254923
-0.267057
-0.20654
-0.183144
-0.166059
-0.148409
-0.129625
-0.111171
-0.0950725
-0.0827192
-0.0745508
-0.0715488
-0.0756118
-0.0881347
-0.108359
-0.133759
-0.162479
-0.193118
-0.224225
-0.254995
-0.285881
-0.277521
-0.220711
-0.202835
-0.18901
-0.175801
-0.162005
-0.148376
-0.137024
-0.129484
-0.125706
-0.125668
-0.130503
-0.141357
-0.158516
-0.181208
-0.208042
-0.237758
-0.269048
-0.300896
-0.333574
-0.26795
-0.240251
-0.223476
-0.213344
-0.204703
-0.19576
-0.186934
-0.18009
-0.176549
-0.176327
-0.179422
-0.18636
-0.197862
-0.214716
-0.236904
-0.263522
-0.293656
-0.326502
-0.361104
-0.397424
-0.228297
-0.24018
-0.237694
-0.235543
-0.232509
-0.22875
-0.224956
-0.222459
-0.222571
-0.225837
-0.232337
-0.242215
-0.256036
-0.274566
-0.29783
-0.325499
-0.357264
-0.392487
-0.430209
-0.470254
-0.147063
-0.231246
-0.250883
-0.257933
-0.259943
-0.260134
-0.260203
-0.26142
-0.264925
-0.271471
-0.281297
-0.294608
-0.31177
-0.333066
-0.358577
-0.388365
-0.422362
-0.460054
-0.50098
-0.544973
336477
335738
334873
335242
338641
344298
351208
358166
364048
368014
369538
368359
364192
356215
341643
354641
339428
334944
334915
337758
342809
349168
355665
361184
364885
366258
365055
361083
354023
343648
373426
354519
343794
340081
340989
344944
350441
356135
360907
363990
364985
363762
360330
354806
347585
385357
373060
362809
356425
354014
354754
357487
360792
363602
365250
365403
363963
360979
356611
351177
392968
384975
377549
371835
368287
366764
366754
367435
368057
368109
367284
365442
362566
358746
354214
398422
392762
387234
382473
378825
376331
374778
373761
372841
371657
369962
367624
364622
361027
356992
402350
398114
393832
389849
386399
383565
381238
379221
377264
375159
372767
370014
366867
363335
359605
405241
401911
398462
395078
391893
388938
386174
383529
380924
378271
375464
372416
369216
354199
148116
407414
404672
401757
398743
395696
392671
389716
386833
383970
381044
378173
342966
97880.8
-7.18896
2.93932
408992
406571
403929
401129
398248
395332
392420
389566
386977
309911
26858.6
-3.63962
5.01006
-0.0744635
-1.45301
409925
407717
405330
402752
400166
397610
363849
184582
-40.9597
4.91258
2.75043
-0.149625
-0.710957
-0.574497
-0.664023
410557
408609
399529
332992
163346
-32.2441
-2.14566
4.04715
0.544588
-1.16168
-1.19609
-0.668126
-0.506053
-0.51301
-0.582459
84848.4
-19.0335
-18.5876
4.31096
3.98203
0.393769
-1.18517
-1.55393
-0.960447
-0.728056
-0.663886
-0.565651
-0.528315
-0.539273
-0.590793
2.42048
0.0640655
-1.92615
-0.920317
-1.25571
-0.798313
-0.75369
-0.708633
-0.645529
-0.600007
-0.569639
-0.543689
-0.545882
-0.577642
-0.636971
-0.743457
-0.486513
-0.68091
-0.608581
-0.614116
-0.569504
-0.566229
-0.558895
-0.548575
-0.541845
-0.543984
-0.556855
-0.586959
-0.636407
-0.705541
-0.400292
-0.405856
-0.464389
-0.478095
-0.484051
-0.481649
-0.488016
-0.50009
-0.516952
-0.53822
-0.565424
-0.601491
-0.649777
-0.712124
-0.789213
-0.30665
-0.34006
-0.377124
-0.404839
-0.426374
-0.446309
-0.470198
-0.499754
-0.534961
-0.574633
-0.618812
-0.66949
-0.729283
-0.799871
-0.882203
-0.278527
-0.313966
-0.350512
-0.385863
-0.419919
-0.454873
-0.493008
-0.536187
-0.584761
-0.637076
-0.69246
-0.752521
-0.819942
-0.896232
-0.981692
-0.286831
-0.32299
-0.362201
-0.403948
-0.447664
-0.493841
-0.543103
-0.596438
-0.654347
-0.715887
-0.779938
-0.847412
-0.919286
-0.996982
-1.08185
-0.318862
-0.357385
-0.400268
-0.447699
-0.499422
-0.554758
-0.613526
-0.675707
-0.740787
-0.807995
-0.876947
-0.948436
-1.02303
-1.1013
-1.18446
-0.369332
-0.412215
-0.460242
-0.514105
-0.573389
-0.636143
-0.700871
-0.767587
-0.836429
-0.906947
-0.97922
-1.05341
-1.12963
-1.20774
-1.28865
-0.437726
-0.485617
-0.53831
-0.596648
-0.660225
-0.727085
-0.795398
-0.864883
-0.936126
-1.00906
-1.08418
-1.16137
-1.2394
-1.31771
-1.39631
-0.514615
-0.566604
-0.623172
-0.684896
-0.751505
-0.821401
-0.893127
-0.966172
-1.04044
-1.11618
-1.19362
-1.27271
-1.35199
-1.43039
-1.50787
-0.593606
-0.65045
-0.711712
-0.777424
-0.847229
-0.920126
-0.995267
-1.0719
-1.14956
-1.2283
-1.308
-1.38822
-1.46783
-1.54604
-1.62297
313130
311497
309365
306718
304391
301896
299212
296408
245011
-17.1426
-4.77166
-6.27791
-6.00477
-5.68464
-5.40715
-5.23328