/*--------------------------------*- C++ -*----------------------------------*\
| =========                 |                                                 |
| \\      /  F ield         | OpenFOAM: The Open Source CFD Toolbox           |
|  \\    /   O peration     | Version:  v1912                                 |
|   \\  /    A nd           | Website:  www.openfoam.com                      |
|    \\/     M anipulation  |                                                 |
\*---------------------------------------------------------------------------*/
FoamFile
{
    version     2.0;
    format      ascii;
    class       surfaceScalarField;
    location    "22";
    object      phi;
}
// * * * * * * * * * * * * * * * * * * * * * * * * * * * * * * * * * * * * * //

dimensions      [0 3 -1 0 0 0 0];
oriented        oriented;


internalField   nonuniform List<scalar> 
40282
(
0.00277403
0.00264352
1.92534
-1.93196
1.92642
0.00553323
-1.91737
1.90517
0.0121967
-1.89006
1.87201
0.0180556
-1.85102
1.82722
0.0237982
-1.80064
1.77137
0.0292701
-1.73947
1.70497
0.0344989
-1.66798
1.62851
0.0394653
-1.58664
1.54244
0.0441905
-1.49601
1.44737
0.0486491
-1.39665
1.34388
0.0527676
-1.28913
1.23259
0.0565379
-1.1742
1.11431
0.0598953
-1.0528
0.989972
0.0628227
-0.925752
0.860366
0.0653862
-0.794036
0.726605
0.0674313
-0.658958
0.59
0.0689588
-0.521526
0.451115
0.070411
-0.37571
0.289614
0.0860964
-0.179979
0.0659802
0.113999
-0.00421804
0.00559228
1.86021
-1.85575
1.84882
-0.0140699
0.0209979
-1.83918
1.82678
-0.0255826
0.0379867
-1.8116
1.79366
-0.0368276
0.0547673
-1.773
1.74967
-0.0478396
0.0711675
-1.72371
1.69516
-0.0585767
0.0871218
-1.66407
1.63047
-0.0689616
0.102561
-1.59442
1.55595
-0.0789318
0.117399
-1.51513
1.47202
-0.0884496
0.131562
-1.42666
1.37915
-0.0974516
0.144967
-1.32951
1.27782
-0.105857
0.157542
-1.22418
1.16859
-0.113636
0.16923
-1.11116
1.05194
-0.120751
0.179972
-0.990969
0.928373
-0.127035
0.18963
-0.86421
0.798526
-0.132333
0.198016
-0.731596
0.663464
-0.136633
0.204765
-0.59431
0.524987
-0.139515
0.208837
-0.454794
0.382098
-0.142009
0.214705
-0.306273
0.229533
-0.16583
0.24257
-0.155744
0.0814979
-0.192455
0.266702
-0.00700033
0.00834709
1.79355
-1.78937
1.78257
-0.0281213
0.0349238
-1.77311
1.76103
-0.0505805
0.0626677
-1.74632
1.729
-0.0727713
0.0900876
-1.70909
1.68661
-0.0945152
0.116998
-1.66158
1.63403
-0.115688
0.143237
-1.604
1.57153
-0.136186
0.168658
-1.53666
1.49944
-0.155899
0.193116
-1.45994
1.41819
-0.174712
0.216455
-1.37428
1.32826
-0.192516
0.238533
-1.28021
1.23021
-0.209233
0.259237
-1.17832
1.12463
-0.224798
0.278494
-1.0692
1.0121
-0.239147
0.296247
-0.953391
0.893143
-0.252187
0.312435
-0.831412
0.768286
-0.263709
0.326834
-0.703868
0.638309
-0.273051
0.33861
-0.57181
0.50407
-0.278775
0.346515
-0.434129
0.361762
-0.289061
0.361428
-0.288201
0.21523
-0.318434
0.391405
-0.143831
0.0729324
-0.339902
0.4108
-0.00963063
0.0109064
1.72932
-1.72546
1.71905
-0.0416325
0.0480492
-1.71008
1.69856
-0.074684
0.086202
-1.68451
1.66794
-0.107355
0.123923
-1.64887
1.62733
-0.139441
0.160986
-1.60333
1.5769
-0.170747
0.197178
-1.54806
1.51686
-0.201112
0.232316
-1.48332
1.44748
-0.230357
0.266194
-1.40939
1.36909
-0.258284
0.298585
-1.32663
1.28208
-0.284705
0.329254
-1.23551
1.18698
-0.309454
0.357983
-1.13658
1.0844
-0.332422
0.384604
-1.03052
0.975058
-0.353538
0.409005
-0.918096
0.859739
-0.37276
0.431117
-0.800096
0.739277
-0.389855
0.450674
-0.67739
0.614546
-0.403861
0.466705
-0.550572
0.484765
-0.414362
0.480169
-0.416645
0.346761
-0.43371
0.503593
-0.27629
0.206224
-0.463782
0.533849
-0.13689
0.0679618
-0.481696
0.550623
-0.0121265
0.0133337
1.66739
-1.66374
1.65765
-0.0544178
0.0605035
-1.64914
1.6382
-0.097641
0.108576
-1.62486
1.60911
-0.140388
0.156133
-1.59098
1.57048
-0.18241
0.202913
-1.54762
1.52243
-0.223478
0.24867
-1.49493
1.46514
-0.263387
0.293176
-1.43309
1.39881
-0.30191
0.336187
-1.36234
1.32371
-0.33879
0.377416
-1.28298
1.24018
-0.37375
0.416549
-1.19537
1.14862
-0.406526
0.45328
-1.09998
1.04955
-0.436886
0.487319
-0.997402
0.943633
-0.464652
0.51842
-0.888353
0.83168
-0.489695
0.546368
-0.77375
0.714696
-0.511682
0.570736
-0.654647
0.593622
-0.529671
0.590696
-0.531247
0.466962
-0.546236
0.610521
-0.400803
0.333483
-0.573071
0.640391
-0.265823
0.198334
-0.603097
0.670586
-0.13111
0.0642141
-0.619032
0.685929
-0.0144815
0.0156105
1.60779
-1.60418
1.59846
-0.0665211
0.072243
-1.59045
1.58017
-0.119391
0.129679
-1.5676
1.55277
-0.171718
0.186554
-1.53566
1.51631
-0.223226
0.242584
-1.4947
1.47087
-0.273652
0.297488
-1.44481
1.41655
-0.322752
0.35101
-1.38611
1.35351
-0.370262
0.402866
-1.31877
1.28192
-0.415861
0.452706
-1.24301
1.20206
-0.459206
0.500154
-1.15913
1.11426
-0.499945
0.544814
-1.06751
1.01894
-0.537737
0.5863
-0.968639
0.916678
-0.572264
0.624226
-0.863157
0.808194
-0.603217
0.65818
-0.751921
0.694475
-0.63005
0.687496
-0.635973
0.576341
-0.65207
0.711702
-0.515182
0.452244
-0.675141
0.738079
-0.387872
0.322718
-0.707394
0.772547
-0.257318
0.191919
-0.737219
0.802618
-0.126505
0.061387
-0.751972
0.817091
-0.0166769
0.0177178
1.55
-1.54697
1.54165
-0.0778703
0.0831871
-1.53421
1.52464
-0.139801
0.14937
-1.51294
1.49911
-0.201167
0.214997
-1.48315
1.46506
-0.261671
0.279761
-1.44484
1.4225
-0.321024
0.343368
-1.39803
1.37144
-0.37896
0.405546
-1.34275
1.31196
-0.435171
0.465965
-1.27908
1.24413
-0.489283
0.524229
-1.20714
1.16813
-0.540884
0.57989
-1.12715
1.08422
-0.589535
0.632464
-1.03939
0.992726
-0.634801
0.681469
-0.944278
0.894122
-0.676227
0.726382
-0.842345
0.789055
-0.713302
0.766592
-0.73437
0.67842
-0.745231
0.801182
-0.621286
0.562825
-0.771792
0.830254
-0.502729
0.441025
-0.801406
0.86311
-0.378184
0.314747
-0.837588
0.901025
-0.251068
0.187258
-0.867265
0.931074
-0.123255
0.0595618
-0.881236
0.944929
-0.018693
0.0196356
1.49465
-1.49188
1.48702
-0.0883763
0.0932383
-1.48021
1.47144
-0.158717
0.167484
-1.46071
1.448
-0.228524
0.24123
-1.43332
1.41664
-0.297482
0.314161
-1.39796
1.37726
-0.365304
0.385997
-1.35455
1.3298
-0.431704
0.456446
-1.30303
1.27421
-0.49634
0.525158
-1.24335
1.21045
-0.558793
0.591688
-1.17553
1.13859
-0.618574
0.655512
-1.09966
1.05875
-0.675161
0.716065
-1.01591
0.971172
-0.728015
0.772754
-0.924587
0.876216
-0.776545
0.824915
-0.826137
0.774444
-0.820035
0.871728
-0.721246
0.666658
-0.857446
0.912033
-0.610722
0.55326
-0.889236
0.946698
-0.494099
0.433453
-0.925279
0.985925
-0.371819
0.309642
-0.964595
1.02677
-0.247177
0.184473
-0.994347
1.05705
-0.121456
0.0589284
-1.00783
1.07035
-0.0205082
0.0213405
1.44116
-1.43851
1.43416
-0.0979368
0.102288
-1.42806
1.42019
-0.175968
0.183835
-1.41054
1.3991
-0.253545
0.264988
-1.38584
1.37074
-0.330366
0.345466
-1.35378
1.33493
-0.406157
0.425004
-1.31417
1.29148
-0.480627
0.503317
-1.26684
1.24021
-0.553421
0.58005
-1.21158
1.18094
-0.62407
0.654711
-1.14827
1.11358
-0.692013
0.726708
-1.07685
1.03811
-0.756644
0.795389
-0.997355
0.954623
-0.817307
0.860039
-0.909945
0.863368
-0.873265
0.919842
-0.814957
0.764795
-0.923585
0.973747
-0.712978
0.659608
-0.966989
1.02036
-0.604685
0.548043
-1.00477
1.06141
-0.489635
0.429779
-1.04719
1.10705
-0.368952
0.307539
-1.08941
1.15083
-0.245753
0.183629
-1.11961
1.18174
-0.121099
0.0596804
-1.13298
1.1944
-0.0220986
0.0228079
1.38974
-1.38742
1.38364
-0.106437
0.110219
-1.37833
1.37146
-0.19135
0.198214
-1.36303
1.35299
-0.275946
0.285984
-1.34132
1.32798
-0.359972
0.373311
-1.31294
1.29615
-0.443178
0.459964
-1.27758
1.25718
-0.525294
0.545696
-1.2349
1.21071
-0.605965
0.630157
-1.18456
1.15642
-0.684681
0.712824
-1.12625
1.09402
-0.760821
0.79305
-1.05971
1.0233
-0.833687
0.870092
-0.984793
0.944186
-0.902497
0.943104
-0.901495
0.856747
-0.966356
1.0111
-0.809992
0.761294
-1.02408
1.07278
-0.71074
0.658411
-1.07417
1.1265
-0.604282
0.548221
-1.11878
1.17484
-0.490278
0.430817
-1.16775
1.22721
-0.370287
0.309045
-1.21311
1.27435
-0.247306
0.185126
-1.24426
1.30644
-0.12244
0.0622039
-1.2581
1.31834
-0.0234391
0.0240132
1.34
-1.33806
1.33491
-0.113759
0.116912
-1.33046
1.32471
-0.204653
0.210405
-1.31762
1.30914
-0.295432
0.30391
-1.29924
1.28786
-0.385922
0.397297
-1.27496
1.26048
-0.475918
0.490398
-1.24436
1.22653
-0.565204
0.583037
-1.20692
1.18547
-0.653441
0.674888
-1.16212
1.13679
-0.740098
0.765423
-1.10943
1.07998
-0.824507
0.853958
-1.04839
1.0146
-0.905878
0.939661
-0.978597
0.940337
-0.983302
1.02156
-0.899811
0.857022
-1.0557
1.09849
-0.811993
0.764767
-1.12164
1.16886
-0.71541
0.663985
-1.17932
1.23075
-0.610453
0.554722
-1.23176
1.28749
-0.496906
0.437375
-1.2878
1.34734
-0.376562
0.314834
-1.33697
1.3987
-0.252453
0.189533
-1.36978
1.4327
-0.125984
0.0670745
-1.38489
1.4438
-0.0245062
0.0249345
1.29214
-1.29041
1.28794
-0.119782
0.122251
-1.28446
1.27992
-0.215658
0.220196
-1.27429
1.26752
-0.311691
0.318457
-1.25957
1.25036
-0.407804
0.417011
-1.23983
1.22791
-0.503876
0.515797
-1.21452
1.19956
-0.599776
0.614731
-1.18296
1.16461
-0.695201
0.713546
-1.14443
1.12231
-0.789638
0.811755
-1.09817
1.0719
-0.882392
0.908659
-1.04342
1.01266
-0.972593
1.00336
-0.979523
0.943955
-1.05921
1.09478
-0.9059
0.865322
-1.14099
1.18157
-0.822206
0.77656
-1.21619
1.26183
-0.72842
0.677822
-1.28271
1.33331
-0.624722
0.569063
-1.34423
1.39989
-0.510979
0.450824
-1.40835
1.4685
-0.389027
0.326002
-1.46247
1.5255
-0.262106
0.197579
-1.49795
1.56247
-0.13225
0.0746236
-1.51522
1.57285
-0.0252802
0.025555
1.24614
-1.24485
1.24311
-0.124399
0.126138
-1.24064
1.2374
-0.224167
0.227407
-1.23335
1.22842
-0.324426
0.329348
-1.22257
1.21572
-0.425213
0.432066
-1.20778
1.19867
-0.526539
0.535649
-1.18829
1.17653
-0.628377
0.640135
-1.16329
1.14843
-0.730508
0.745364
-1.13184
1.11338
-0.832482
0.850937
-1.09293
1.07036
-0.933607
0.956184
-1.04552
1.0183
-1.03297
1.0602
-0.988563
0.956195
-1.12946
1.16183
-0.921087
0.883148
-1.22163
1.25957
-0.842305
0.798512
-1.30744
1.35123
-0.751754
0.702028
-1.38443
1.43416
-0.649283
0.59347
-1.45669
1.5125
-0.534702
0.473293
-1.53055
1.59196
-0.409678
0.344354
-1.5914
1.65673
-0.277836
0.210576
-1.63098
1.69824
-0.141994
0.0857585
-1.65141
1.70765
-0.0257474
0.0258648
1.20145
-1.2008
1.19982
-0.127525
0.128503
-1.19841
1.19653
-0.23002
0.2319
-1.19413
1.19116
-0.333381
0.336356
-1.18754
1.18319
-0.437785
0.442128
-1.17804
1.17197
-0.543409
0.549481
-1.16487
1.15662
-0.650361
0.658606
-1.1471
1.13614
-0.758561
0.769513
-1.12361
1.10934
-0.867674
0.881945
-1.09316
1.0749
-0.977069
0.99533
-1.05438
1.03141
-1.08586
1.10883
-1.00581
0.977388
-1.1929
1.22132
-0.945973
0.911392
-1.29662
1.3312
-0.873491
0.832138
-1.3947
1.43606
-0.787232
0.738705
-1.48427
1.5328
-0.686477
0.630471
-1.56952
1.62553
-0.570718
0.50745
-1.65568
1.71895
-0.441104
0.372295
-1.726
1.79481
-0.301781
0.230387
-1.77189
1.84329
-0.156663
0.102389
-1.79747
1.85175
-0.0259024
0.0258634
1.15862
-1.15843
1.15822
-0.129108
0.129317
-1.15789
1.15739
-0.233112
0.233609
-1.15668
1.15571
-0.338372
0.339349
-1.15439
1.15266
-0.44523
0.446963
-1.15042
1.14755
-0.554048
0.55691
-1.14396
1.1395
-0.665108
0.66957
-1.13402
1.12737
-0.778525
0.785178
-1.11937
1.10982
-0.894141
0.903682
-1.09854
1.08531
-1.01146
1.0247
-1.06989
1.05204
-1.12974
1.14758
-1.03152
1.00807
-1.24789
1.27134
-0.981406
0.95127
-1.36433
1.39447
-0.91739
0.879508
-1.47658
1.51446
-0.837393
0.790855
-1.58136
1.6279
-0.739739
0.683875
-1.68264
1.7385
-0.623125
0.557547
-1.78491
1.85048
-0.487526
0.413809
-1.86887
1.94259
-0.337495
0.260031
-1.92462
2.00208
-0.178368
0.126641
-1.95843
2.01015
-0.02575
0.0255609
1.11727
-1.11735
1.11789
-0.129143
0.128599
-1.11862
1.11948
-0.233415
0.232549
-1.12045
1.12146
-0.339324
0.33831
-1.12246
1.12336
-0.447383
0.44648
-1.12408
1.12452
-0.558149
0.557711
-1.12456
1.12407
-0.672109
0.672601
-1.1229
1.12087
-0.789631
0.791654
-1.11782
1.11352
-0.91079
0.915084
-1.10777
1.1003
-1.03534
1.0428
-1.09087
1.07916
-1.16277
1.17447
-1.06488
1.04768
-1.29223
1.30943
-1.0272
1.00306
-1.42234
1.44649
-0.974838
0.942119
-1.55068
1.5834
-0.904473
0.861519
-1.67375
1.7167
-0.812937
0.75837
-1.79501
1.84957
-0.697361
0.629606
-1.91889
1.98665
-0.555262
0.475134
-2.02308
2.10321
-0.390718
0.304454
-2.09463
2.18089
-0.210908
0.162169
-2.14199
2.19073
-0.0253052
0.0249777
1.0774
-1.0781
1.07935
-0.127676
0.126421
-1.08107
1.08324
-0.230995
0.228832
-1.0858
1.08873
-0.336289
0.333362
-1.09196
1.09543
-0.444237
0.440765
-1.09907
1.10279
-0.555585
0.55187
-1.10648
1.11002
-0.671047
0.667506
-1.11327
1.11608
-0.79127
0.788463
-1.11826
1.11962
-0.916622
0.915266
-1.11992
1.11891
-1.04719
1.0482
-1.11631
1.11179
-1.18286
1.18738
-1.105
1.09555
-1.3232
1.33266
-1.08298
1.06681
-1.4673
1.48347
-1.04649
1.0214
-1.61322
1.63831
-0.990886
0.95428
-1.75768
1.79428
-0.910996
0.860356
-1.90366
1.9543
-0.801378
0.733034
-2.05672
2.12507
-0.654823
0.567232
-2.1915
2.27909
-0.471945
0.372726
-2.28938
2.3886
-0.261615
0.214473
-2.36015
2.40729
-0.0245936
0.0241438
1.03882
-1.0399
1.0418
-0.124805
0.122906
-1.04443
1.04778
-0.22601
0.222664
-1.05181
1.0565
-0.32946
0.324769
-1.06181
1.06769
-0.435976
0.430099
-1.07408
1.08092
-0.546468
0.539629
-1.08812
1.0956
-0.661874
0.654401
-1.10322
1.11087
-0.783126
0.775477
-1.11839
1.1256
-0.910913
0.903706
-1.13229
1.13823
-1.04573
1.03979
-1.14314
1.14673
-1.18796
1.18437
-1.14862
1.14841
-1.33776
1.33797
-1.14562
1.13971
-1.49501
1.50092
-1.13003
1.11582
-1.65878
1.67298
-1.09622
1.07025
-1.8268
1.85277
-1.03699
0.995398
-2.00212
2.04371
-0.943782
0.879884
-2.19368
2.25758
-0.801699
0.70835
-2.37502
2.46837
-0.600619
0.483084
-2.5187
2.63623
-0.347001
0.294471
-2.63294
2.68547
-0.0236487
0.0230959
1.00171
-1.00331
1.00577
-0.120675
0.118217
-1.0092
1.01358
-0.21871
0.214331
-1.0189
1.02514
-0.319171
0.312925
-1.03229
1.04032
-0.422982
0.414954
-1.04919
1.05887
-0.531174
0.521493
-1.06931
1.08044
-0.644884
0.633755
-1.09218
1.10445
-0.765292
0.753022
-1.11714
1.13011
-0.8934
0.880431
-1.1432
1.15624
-1.03013
1.01709
-1.169
1.18122
-1.17636
1.16413
-1.19262
1.20283
-1.33299
1.32278
-1.21142
1.2179
-1.50088
1.49441
-1.22163
1.22186
-1.68054
1.68031
-1.21766
1.2079
-1.87173
1.88148
-1.19142
1.16696
-2.07857
2.10303
-1.13239
1.08416
-2.31674
2.36496
-1.01782
0.929204
-2.56622
2.65484
-0.815324
0.677603
-2.79171
2.92943
-0.510147
0.432163
-2.9965
3.07448
-0.0225099
0.0218753
0.966059
-0.967764
0.970681
-0.115467
0.11255
-0.974757
0.979989
-0.209414
0.204181
-0.986379
0.993923
-0.305869
0.298325
-1.00262
1.01246
-0.405809
0.395964
-1.02345
1.03558
-0.510335
0.498212
-1.04882
1.06315
-0.620724
0.60639
-1.07855
1.09497
-0.738341
0.721921
-1.11236
1.13065
-0.864437
0.846145
-1.14976
1.16958
-1.00029
0.980475
-1.18997
1.2108
-1.14726
1.12644
-1.23185
1.25292
-1.30686
1.28579
-1.27372
1.2939
-1.48092
1.46074
-1.31304
1.33057
-1.67153
1.654
-1.34581
1.35784
-1.88095
1.86892
-1.36566
1.36834
-2.11538
2.11271
-1.36431
1.35008
-2.39944
2.41367
-1.31987
1.26614
-2.73434
2.78807
-1.18043
1.05098
-3.09734
3.2268
-0.878846
0.790171
-3.50891
3.59759
0.0646827
-0.0496227
-0.0150601
0.00390496
-0.0706811
0.0667761
0.112052
-0.132459
0.0204072
0.128439
-0.109226
-0.019213
0.0858768
-0.0598935
-0.0259833
0.0316805
-0.00196485
-0.0297156
-0.0279597
0.0563558
-0.0283961
-0.0813237
0.099874
-0.0185503
-0.102728
0.0646132
0.0381144
0.0609566
-0.330722
0.269766
0.731914
-1.15367
0.42176
1.53128
-1.84846
0.317179
2.07915
-2.24573
0.166576
2.43064
-2.58309
0.152444
2.62104
-2.63552
0.0144865
2.6356
-2.61583
-0.01977
2.60083
-2.58537
-0.0154578
2.57568
-2.57752
0.00183601
2.59843
-2.65089
0.0524661
2.7537
-2.85504
0.101338
2.6429
-1.40014
-1.24276
-0.20064
1.48479
-1.28415
-2.43486
3.17527
-0.740405
-3.77911
4.28533
-0.506217
-4.71466
5.07908
-0.364421
-5.3863
5.64215
-0.255848
-5.85183
6.02032
-0.16849
-6.15269
6.25394
-0.10125
-6.32878
6.38174
-0.0529562
-6.41696
6.43777
-0.0208105
-6.44773
6.44937
-0.00164474
-6.4436
6.43355
0.0100413
-6.42053
6.40545
0.0150873
-6.38905
6.37187
0.0171828
-6.35426
6.33646
0.0177967
-6.31866
6.30101
0.0176516
-6.28361
6.26654
0.0170741
-6.24982
6.23351
0.0163146
-6.21766
6.20235
0.0153053
-6.18767
6.1737
0.0139734
-6.16049
6.1481
0.0123905
-6.13658
6.12596
0.0106143
-6.11626
6.10743
0.00882856
-6.0994
6.09205
0.00735186
-6.08529
6.07906
0.00623517
-6.07334
6.06813
0.00520431
-6.06348
6.0594
0.00408341
-6.05588
6.05288
0.00300854
-6.05031
6.04808
0.00222411
-6.04612
6.04436
0.0017576
-6.04277
6.04133
0.00143547
-6.04005
6.03888
0.0011691
-6.03778
6.03665
0.00112842
-6.03539
6.03394
0.00144344
-6.03232
6.03064
0.00168569
-6.02903
6.02761
0.00141924
-6.02646
6.02539
0.00107
-6.02443
6.02327
0.00115584
-6.02209
6.02061
0.00147582
-6.01918
6.01744
0.00173245
0.0220605
0.00685442
-0.0289149
0.0296576
-0.0383922
-0.0939155
0.10265
0.053735
-0.0650614
-0.0354444
0.0467707
0.0670043
-0.0573918
0.0320285
-0.0416409
0.0403847
-0.0192965
0.0491545
-0.0702428
-0.00396983
0.0279009
0.0551377
-0.0790688
-0.050352
0.0687025
0.0489002
-0.0672507
-0.0799492
0.0815727
0.0247816
-0.0264051
-0.073122
0.0535528
-0.0645847
0.084154
-0.0155869
-0.0610204
-0.417599
0.494206
0.20705
-0.436107
-0.749782
0.978839
0.717981
-1.01513
-0.646154
0.943301
1.31501
-1.60691
-0.423439
0.71533
1.93946
-2.34948
-0.393431
0.803447
2.57771
-2.67631
-0.0656363
0.164233
2.71232
-2.71705
0.02655
-0.0218268
2.70826
-2.69707
0.0313359
-0.0425267
2.68587
-2.67029
0.0213528
-0.0369332
2.64089
-2.58423
0.021159
-0.0778154
2.3556
-1.57425
0.211519
-0.992875
0.941646
-0.0531197
2.17017
-3.05869
-0.762235
1.59248
2.32722
-3.15746
-2.37109
3.05971
1.46402
-2.15264
-3.65779
4.17566
1.02036
-1.53823
-4.62371
5.00945
0.740318
-1.12607
-5.33843
5.61535
0.523597
-0.800516
-5.84459
6.03079
0.347488
-0.53369
-6.17908
6.29455
0.211278
-0.326748
-6.38212
6.44677
0.113339
-0.177994
-6.49286
6.52416
0.0483866
-0.0796902
-6.54384
6.55494
0.00808585
-0.0191914
-6.55963
6.55921
-0.0141114
0.014529
-6.55541
6.54927
-0.0248363
0.0309825
-6.54153
6.53267
-0.029502
0.0383544
-6.52303
6.51284
-0.0312268
0.0414226
-6.5023
6.49158
-0.0313628
0.0420864
-6.4808
6.47006
-0.03057
0.0413053
-6.45942
6.44895
-0.0293103
0.0397824
-6.43873
6.4288
-0.0275663
0.0374955
-6.41925
6.41017
-0.0251861
0.0342619
-6.40162
6.39366
-0.0222722
0.0302263
-6.38636
6.37973
-0.0189706
0.0255997
-6.37381
6.36858
-0.0156279
0.0208537
-6.364
6.36001
-0.0127957
0.0167866
-6.35652
6.35349
-0.0106307
0.0136666
-6.35088
6.34868
-0.00866491
0.0108556
-6.34693
6.34562
-0.00656721
0.00788113
-6.34471
6.34418
-0.00459829
0.00513523
-6.34392
6.34386
-0.00320465
0.00326255
-6.34393
6.34405
-0.00242766
0.00230626
-6.34419
6.34437
-0.00192819
0.00175512
-6.34459
6.3449
-0.00146589
0.00115649
-6.34529
6.34569
-0.00135574
0.000957692
-6.34598
6.34607
-0.001968
0.00188007
-6.34593
6.34562
-0.00253199
0.0028395
-6.3453
6.34511
-0.00209302
0.00227613
-6.34512
6.34528
-0.00141435
0.00126187
-6.34539
6.3454
-0.00160066
0.00158869
-6.34521
6.34486
-0.00228753
0.00263889
-6.34433
6.34361
-0.0028945
0.00361151
-0.034738
0.0606233
-0.0258853
0.0318742
-0.0306357
-0.103888
0.102649
0.0340459
-0.0363442
-0.0539148
0.0562132
0.0336344
-0.0266292
0.0494504
-0.0564555
0.013962
0.0034705
0.0891479
-0.10658
-0.0243617
0.0474143
0.102012
-0.125064
-0.0707224
0.0917173
0.0857948
-0.10679
-0.106521
0.1102
0.0272317
-0.0309105
-0.100102
0.0791408
-0.10132
0.12228
-0.0635343
0.0558999
-0.525421
0.533055
-0.0413641
-0.0103144
-1.11061
1.16229
0.111664
-0.244196
-1.16108
1.29362
0.365093
-0.372925
-0.93994
0.947772
-0.16338
0.190599
-1.565
1.53778
0.640753
-1.31339
-0.32137
0.994009
1.65715
-1.84398
0.0013518
0.185476
1.99381
-2.18321
0.0302605
0.159139
2.43143
-2.58218
-0.0148303
0.165585
2.44336
-2.14909
0.113787
-0.408058
1.96862
-1.0062
1.8383
-2.80072
-0.363541
1.0651
3.94925
-4.6508
-1.53632
2.03365
3.78803
-4.28536
-2.58392
3.13961
2.77319
-3.32889
-3.66721
4.15116
2.03924
-2.5232
-4.58424
4.96481
1.50886
-1.88943
-5.29322
5.57063
1.07746
-1.35487
-5.80016
5.98662
0.720089
-0.906552
-6.13476
6.25012
0.442488
-0.557851
-6.33815
6.404
0.243563
-0.309419
-6.45242
6.48727
0.11293
-0.147784
-6.51164
6.52809
0.03307
-0.049524
-6.53858
6.54475
-0.0116332
0.0054662
-6.54781
6.54871
-0.0336512
0.032747
-6.54813
6.54643
-0.0437035
0.0454053
-6.54384
6.54051
-0.0482309
0.0515574
-6.5366
6.53224
-0.049641
0.0539978
-6.52759
6.52272
-0.0491284
0.0539909
-6.51771
6.51263
-0.0475492
0.0526278
-6.50755
6.50251
-0.0449432
0.049981
-6.49764
6.49299
-0.0411032
0.0457483
-6.48864
6.48467
-0.036158
0.0401293
-6.48112
6.47803
-0.0304175
0.0335085
-6.47545
6.47338
-0.0244827
0.0265595
-6.47178
6.47063
-0.0193369
0.0204907
-6.46984
6.46937
-0.015382
0.0158528
-6.4692
6.46933
-0.0118493
0.0117183
-6.46978
6.47056
-0.00812064
0.00734103
-6.47164
6.47298
-0.00471414
0.00337958
-6.47447
6.47604
-0.00249426
0.000930898
-6.47759
6.47907
-0.00149254
1.27481e-05
-6.48044
6.48173
-0.00101058
-0.000270409
-6.48296
6.48423
-0.000348079
-0.00092483
-6.4856
6.48702
-3.91662e-05
-0.00138139
-6.48835
6.48944
-0.00127658
0.000189874
-6.49021
6.49071
-0.00271146
0.00220967
-6.49112
6.49167
-0.00206332
0.00151197
-6.49248
6.49347
-0.000687446
-0.000299572
-6.49439
6.49513
-0.00119984
0.000461585
-6.49563
6.49599
-0.00261624
0.00225982
-6.49611
6.49608
-0.00395473
0.00398828
-0.0860988
0.109282
-0.0231828
0.0329027
-0.0341802
-0.102358
0.103636
0.0303587
-0.0203184
-0.0520133
0.041973
0.011989
-0.00423174
0.0630673
-0.0708245
-0.00728446
0.0230604
0.122714
-0.13849
-0.0428984
0.0667212
0.14821
-0.172033
-0.0933875
0.121946
0.131178
-0.159736
-0.150282
0.174491
0.0424006
-0.0666095
-0.188539
0.183852
-0.147149
0.151837
-0.142423
0.120562
-0.536989
0.558849
-0.159865
0.208981
-1.1475
1.09839
-0.231291
0.214457
-1.35788
1.37471
-0.16317
0.0900569
-1.01782
1.09094
-0.0280216
0.0683037
-0.939846
0.899564
-0.363663
0.130374
-1.55763
1.79092
0.219405
-0.474158
-0.453605
0.708357
0.635812
-0.758832
-0.366047
0.489067
0.947203
-1.09235
-0.343729
0.488877
0.767607
-0.13342
0.889122
-1.52331
-0.39752
0.587926
3.57436
-3.76477
-1.41173
1.84389
5.24158
-5.67373
-2.18128
2.54008
4.69099
-5.04979
-2.94531
3.38184
3.81469
-4.25122
-3.82243
4.24873
2.97482
-3.40112
-4.64359
4.9984
2.25576
-2.61056
-5.30663
5.56747
1.62356
-1.88441
-5.78174
5.95404
1.08587
-1.25817
-6.08984
6.19543
0.668324
-0.773912
-6.27615
6.33799
0.373073
-0.434913
-6.38541
6.42213
0.183156
-0.219876
-6.4506
6.47281
0.0684058
-0.0906219
-6.49023
6.50406
0.00415708
-0.0179835
-6.51524
6.52453
-0.0279182
0.0186252
-6.53243
6.53913
-0.0431038
0.0364046
-6.54476
6.54934
-0.0510745
0.0464895
-6.55296
6.55577
-0.0548359
0.0520253
-6.55793
6.55953
-0.0556541
0.0540583
-6.56066
6.56136
-0.0548167
0.0541146
-6.56173
6.56182
-0.0524235
0.0523299
-6.56177
6.56166
-0.0480872
0.0481976
-6.5616
6.56162
-0.0420594
0.0420405
-6.5618
6.56218
-0.0348106
0.0344278
-6.56283
6.56378
-0.0270771
0.0261345
-6.56502
6.56653
-0.0202705
0.0187662
-6.56823
6.57008
-0.0151181
0.0132671
-6.57207
6.57422
-0.0105369
0.00838875
-6.57656
6.57913
-0.00563114
0.00306749
-6.5819
6.58483
-0.00121819
-0.00171114
-6.58782
6.59075
0.00134126
-0.00427801
-6.59356
6.59618
0.00205445
-0.00467696
-6.59858
6.60076
0.00201445
-0.00419151
-6.60277
6.60477
0.00258132
-0.00457669
-6.6069
6.60919
0.00324206
-0.00552739
-6.61142
6.61336
0.00132787
-0.00326677
-6.61486
6.61595
-0.00139931
0.000316048
-6.61681
6.61783
-0.00069561
-0.000326
-6.61929
6.62104
0.00166559
-0.00341462
-6.62267
6.62399
0.000578032
-0.00189321
-6.62502
6.62593
-0.00161132
0.00069721
-6.62664
6.6271
-0.00375499
0.0032889
-0.127808
0.140594
-0.0127861
0.0306568
-0.0327578
-0.105623
0.107724
0.0269516
-0.016329
-0.0302924
0.0196698
0.00582959
0.00543706
0.0804835
-0.0917501
-0.0190256
0.0360118
0.15433
-0.171317
-0.0566724
0.0816673
0.196187
-0.221182
-0.1111
0.14528
0.191213
-0.225393
-0.184071
0.227267
0.10277
-0.145966
-0.274557
0.327956
-0.110923
0.0575239
-0.392107
0.464756
-0.542644
0.469995
-0.540602
0.563433
-1.08535
1.06252
-0.546931
0.5403
-1.37172
1.37835
-0.498725
0.414028
-1.1671
1.2518
-0.314298
0.205984
-0.972217
1.08053
0.0458561
0.112474
-1.85923
1.7009
-0.227942
0.181234
-0.866041
0.91275
-0.154766
0.335642
-0.468335
0.28746
-0.645854
0.878213
-0.489613
0.257253
-1.31006
1.18537
2.0466
-1.9219
-1.44754
2.06186
3.82737
-4.4417
-2.18169
2.38848
5.93481
-6.1416
-2.66885
2.97919
5.37715
-5.68749
-3.31785
3.67933
4.64159
-5.00307
-4.05331
4.42256
3.79316
-4.1624
-4.77156
5.08721
2.94357
-3.25923
-5.36037
5.58879
2.12834
-2.35676
-5.77314
5.91901
1.4169
-1.56277
-6.03372
6.12426
0.871145
-0.96168
-6.1956
6.25387
0.493782
-0.55205
-6.30287
6.3449
0.258064
-0.300096
-6.38133
6.4132
0.116723
-0.148592
-6.44112
6.46569
0.0365495
-0.0611241
-6.48747
6.50703
-0.00453542
-0.0150234
-6.52495
6.54106
-0.0251305
0.00901962
-6.55572
6.56872
-0.0377469
0.0247417
-6.58013
6.59021
-0.0455588
0.0354791
-6.59913
6.60706
-0.0492367
0.0413055
-6.61409
6.6203
-0.0505791
0.0443653
-6.62576
6.63058
-0.0497815
0.0449626
-6.63488
6.63882
-0.0461837
0.0422457
-6.64248
6.64595
-0.040183
0.0367102
-6.6493
6.65258
-0.0324988
0.0292152
-6.65587
6.65922
-0.0238915
0.0205362
-6.66268
6.66624
-0.0161503
0.0125971
-6.66983
6.67344
-0.0104723
0.00687113
-6.67702
6.68064
-0.00544647
0.0018228
-6.68433
6.68812
0.000166573
-0.00395994
-6.69205
6.69605
0.00522552
-0.00923155
-6.70003
6.70389
0.00771312
-0.0115727
-6.70755
6.71096
0.00771814
-0.0111328
-6.71409
6.7169
0.00669359
-0.00950206
-6.71941
6.7218
0.00679106
-0.00917904
-6.72436
6.72725
0.00813029
-0.0110154
-6.73018
6.73279
0.00554892
-0.00816193
-6.73489
6.73641
0.000982138
-0.00250264
-6.73751
6.73868
0.00145179
-0.00262013
-6.74054
6.74292
0.00548535
-0.00787183
-6.74511
6.74678
0.00340478
-0.00507686
-6.74808
6.74936
0.000420106
-0.00170409
-6.75057
6.75142
-0.00262632
0.00177534
-0.148337
0.153248
-0.00491158
0.0194413
-0.0290456
-0.113322
0.122926
0.0258068
-0.0188338
-0.0102475
0.00327451
0.00919065
0.00287037
0.103826
-0.115887
-0.0176599
0.0369335
0.189539
-0.208812
-0.0608963
0.0878887
0.246819
-0.273812
-0.119949
0.15722
0.260912
-0.298183
-0.200461
0.249744
0.192348
-0.24163
-0.304541
0.365669
-7.83713e-05
-0.0610491
-0.437558
0.524626
-0.384003
0.296935
-0.630071
0.74863
-0.953375
0.834815
-0.861661
0.936355
-1.40632
1.33163
-0.927794
0.824309
-1.34994
1.45342
-0.687437
0.588272
-1.22881
1.32798
-0.574956
0.579165
-1.44686
1.44265
-0.52596
0.454263
-0.999753
1.07145
-0.404478
0.41744
-0.209694
0.196732
-0.611357
1.13839
0.388641
-0.915672
-1.21141
1.37714
1.983
-2.14872
-1.81481
2.41577
5.18515
-5.78611
-2.64382
2.84916
6.34712
-6.55245
-3.09444
3.36922
5.97831
-6.25308
-3.66516
3.97838
5.33647
-5.64969
-4.30077
4.61962
4.50295
-4.8218
-4.91939
5.18743
3.54896
-3.817
-5.41359
5.5961
2.56157
-2.74407
-5.7399
5.85217
1.69097
-1.80324
-5.94477
6.02453
1.04477
-1.12453
-6.09534
6.16182
0.61113
-0.677605
-6.22417
6.28198
0.347704
-0.405514
-6.33505
6.38329
0.187376
-0.235625
-6.42672
6.46547
0.0922037
-0.130956
-6.49977
6.53023
0.0400543
-0.0705122
-6.5574
6.582
0.0115622
-0.0361537
-6.60413
6.62421
-0.00806007
-0.0120268
-6.64158
6.65739
-0.0223543
0.00654365
-6.67145
6.68402
-0.0308181
0.0182483
-6.69531
6.70545
-0.0359772
0.0258434
-6.71451
6.72258
-0.0383272
0.0302544
-6.72982
6.7364
-0.0368066
0.0302291
-6.74245
6.74808
-0.0319879
0.0263577
-6.75336
6.75833
-0.0249372
0.0199685
-6.76308
6.76769
-0.0164051
0.0117958
-6.77222
6.77671
-0.00843919
0.00394698
-6.78109
6.78558
-0.00273902
-0.0017533
-6.79002
6.79441
0.00221414
-0.00660388
-6.79878
6.80312
0.00807711
-0.012418
-6.80748
6.81184
0.0134724
-0.0178366
-6.81612
6.82027
0.0156259
-0.0197751
-6.82424
6.828
0.0147435
-0.0185087
-6.83153
6.83477
0.0125099
-0.0157456
-6.83763
6.84014
0.0116254
-0.0141376
-6.84269
6.84579
0.0140291
-0.0171272
-6.84905
6.85204
0.0109885
-0.0139787
-6.85467
6.85676
0.00424377
-0.00633571
-6.85823
6.8593
0.00374569
-0.00481731
-6.86116
6.8639
0.0104648
-0.0132022
-6.86628
6.86805
0.00680978
-0.00857897
-6.86935
6.87075
0.00307491
-0.00447745
-6.87238
6.87358
-0.000745814
-0.000461626
-0.155857
0.153087
0.00277042
0.0117396
-0.0209466
-0.133587
0.142794
0.0220178
-0.020106
0.00130622
-0.00321798
0.013311
-0.00289408
0.12708
-0.137497
-0.0110985
0.0286158
0.227328
-0.244845
-0.0506888
0.0791478
0.301843
-0.330302
-0.114001
0.155182
0.337228
-0.37841
-0.202239
0.255828
0.292375
-0.345964
-0.315823
0.381127
0.12412
-0.189423
-0.453999
0.537432
-0.212708
0.129275
-0.633828
0.743035
-0.720352
0.611146
-0.857542
0.957179
-1.23551
1.13587
-1.02144
1.03
-1.4736
1.46504
-0.970359
0.881172
-1.44671
1.53589
-0.813821
0.767222
-1.47912
1.52572
-0.729056
0.699569
-1.11805
1.14754
-0.68211
0.697688
-0.200936
0.185358
-0.81372
0.932095
1.16813
-1.2865
-1.09109
1.40474
2.27798
-2.59163
-2.6298
2.89903
6.24955
-6.51878
-3.08826
3.27488
6.74969
-6.9363
-3.4874
3.72329
6.50632
-6.74221
-3.97836
4.24914
5.93735
-6.20813
-4.52399
4.79325
5.11374
-5.383
-5.04014
5.24932
4.05527
-4.26445
-5.41334
5.5336
2.89703
-3.01729
-5.63013
5.71144
1.89712
-1.97843
-5.80316
5.90075
1.20652
-1.30411
-6.0029
6.10771
0.758166
-0.862975
-6.1975
6.2773
0.475039
-0.554844
-6.34939
6.41386
0.292967
-0.357436
-6.47118
6.52176
0.176209
-0.226783
-6.56586
6.60381
0.104824
-0.142777
-6.63643
6.66495
0.062804
-0.0913194
-6.69033
6.71311
0.0336348
-0.0564195
-6.73336
6.75136
0.0104563
-0.0284566
-6.76755
6.782
-0.00471994
-0.00972124
-6.79497
6.80662
-0.014825
0.00317381
-6.8171
6.82658
-0.0214294
0.0119513
-6.83514
6.84289
-0.0230538
0.0152993
-6.84997
6.85649
-0.0202565
0.0137371
-6.86255
6.86823
-0.0146607
0.00897876
-6.87356
6.87855
-0.00699642
0.00200593
-6.88329
6.8878
0.000515474
-0.00502035
-6.89224
6.8968
0.00637626
-0.0109331
-6.90154
6.90639
0.0111771
-0.0160182
-6.91121
6.91593
0.0168505
-0.0215757
-6.9205
6.92484
0.0221788
-0.0265209
-6.929
6.93306
0.023871
-0.027934
-6.93707
6.941
0.022321
-0.0262558
-6.94483
6.94861
0.0191973
-0.0229802
-6.95236
6.95604
0.0168192
-0.0205013
-6.95953
6.96268
0.0202951
-0.0234501
-6.96558
6.96852
0.0169722
-0.0199109
-6.97158
6.97478
0.00887913
-0.0120786
-6.97793
6.98065
0.006098
-0.00881802
-6.98267
6.98436
0.0158722
-0.0175655
-6.98629
6.98839
0.0103915
-0.0124901
-6.99018
6.99157
0.00586371
-0.00725678