/*--------------------------------*- C++ -*----------------------------------*\
| =========                 |                                                 |
| \\      /  F ield         | OpenFOAM: The Open Source CFD Toolbox           |
|  \\    /   O peration     | Version:  v1912                                 |
|   \\  /    A nd           | Website:  www.openfoam.com                      |
|    \\/     M anipulation  |                                                 |
\*---------------------------------------------------------------------------*/
FoamFile
{
    version     2.0;
    format      ascii;
    class       volVectorField;
    location    "22";
    object      U;
}
// * * * * * * * * * * * * * * * * * * * * * * * * * * * * * * * * * * * * * //

dimensions      [0 1 -1 0 0 0 0];


internalField   nonuniform List<vector> 
20320
(
(1.86103 0.0062921 0)
(1.85955 -0.00548376 0)
(1.84399 0.00449872 0)
(1.81469 0.0120143 0)
(1.77376 0.0193153 0)
(1.72251 0.0260732 0)
(1.66119 0.0324806 0)
(1.58991 0.0383947 0)
(1.50914 0.0440549 0)
(1.4196 0.0494496 0)
(1.32183 0.0543695 0)
(1.21622 0.0588306 0)
(1.10355 0.0626526 0)
(0.984822 0.0661498 0)
(0.8609 0.0699548 0)
(0.73267 0.0729047 0)
(0.602166 0.0753431 0)
(0.470532 0.0796602 0)
(0.326594 0.0997352 0)
(0.110792 0.161026 0)
(1.86116 0.0112533 0)
(1.85252 0.0355739 0)
(1.833 0.0665616 0)
(1.80274 0.0975773 0)
(1.76165 0.128014 0)
(1.70976 0.157722 0)
(1.6476 0.186553 0)
(1.57555 0.214303 0)
(1.49396 0.240832 0)
(1.40329 0.265979 0)
(1.30404 0.289572 0)
(1.19676 0.311496 0)
(1.08192 0.331645 0)
(0.960012 0.34966 0)
(0.831727 0.365145 0)
(0.697959 0.377645 0)
(0.559796 0.385765 0)
(0.41867 0.394822 0)
(0.267121 0.454161 0)
(0.116766 0.510102 0)
(1.86115 0.0170272 0)
(1.85259 0.0697163 0)
(1.83284 0.125195 0)
(1.80234 0.180129 0)
(1.76118 0.234117 0)
(1.70931 0.286805 0)
(1.64706 0.337863 0)
(1.57477 0.387 0)
(1.49285 0.433911 0)
(1.40177 0.478319 0)
(1.30212 0.520006 0)
(1.19452 0.55882 0)
(1.07955 0.594619 0)
(0.957794 0.627236 0)
(0.829807 0.656192 0)
(0.696522 0.67979 0)
(0.558494 0.694622 0)
(0.412566 0.722579 0)
(0.25993 0.789051 0)
(0.1111 0.835013 0)
(1.86115 0.0228075 0)
(1.85283 0.0996224 0)
(1.83342 0.178787 0)
(1.80323 0.257042 0)
(1.76234 0.3339 0)
(1.71075 0.408917 0)
(1.64875 0.481711 0)
(1.57664 0.551851 0)
(1.49472 0.618861 0)
(1.4034 0.682268 0)
(1.30321 0.741642 0)
(1.19479 0.79668 0)
(1.07888 0.847195 0)
(0.956331 0.893088 0)
(0.828121 0.93383 0)
(0.695477 0.967241 0)
(0.55734 0.9937 0)
(0.410173 1.04154 0)
(0.258537 1.1089 0)
(0.109218 1.14934 0)
(1.86115 0.0282735 0)
(1.85296 0.127646 0)
(1.83385 0.229105 0)
(1.80411 0.329467 0)
(1.76378 0.428157 0)
(1.71281 0.524651 0)
(1.65148 0.618465 0)
(1.58001 0.709072 0)
(1.49867 0.795867 0)
(1.40779 0.87819 0)
(1.30783 0.955408 0)
(1.19932 1.02694 0)
(1.08294 1.09231 0)
(0.959579 1.15115 0)
(0.8305 1.20264 0)
(0.697057 1.24476 0)
(0.557012 1.28511 0)
(0.409073 1.3484 0)
(0.258071 1.41575 0)
(0.108253 1.45511 0)
(1.86116 0.0334151 0)
(1.85316 0.154122 0)
(1.8345 0.276712 0)
(1.80546 0.398082 0)
(1.766 0.517605 0)
(1.71604 0.634673 0)
(1.65578 0.748725 0)
(1.58537 0.859154 0)
(1.50501 0.965209 0)
(1.41497 1.06609 0)
(1.31563 1.16097 0)
(1.20744 1.24903 0)
(1.09099 1.3295 0)
(0.967117 1.40157 0)
(0.837159 1.46391 0)
(0.702214 1.51518 0)
(0.55964 1.57009 0)
(0.41057 1.64442 0)
(0.259167 1.71158 0)
(0.108116 1.75214 0)
(1.86116 0.0381905 0)
(1.85344 0.17888 0)
(1.83545 0.321266 0)
(1.80741 0.462415 0)
(1.76921 0.60165 0)
(1.72072 0.738316 0)
(1.66202 0.871814 0)
(1.59319 1.00143 0)
(1.51431 1.12631 0)
(1.42556 1.24549 0)
(1.3272 1.35795 0)
(1.21962 1.46267 0)
(1.10332 1.55856 0)
(0.979048 1.64438 0)
(0.848166 1.71824 0)
(0.711287 1.77994 0)
(0.566015 1.84932 0)
(0.41523 1.93175 0)
(0.262336 1.99889 0)
(0.108971 2.04182 0)
(1.86116 0.042556 0)
(1.85383 0.201711 0)
(1.83674 0.362411 0)
(1.81006 0.521973 0)
(1.77361 0.679689 0)
(1.72714 0.834919 0)
(1.67063 0.987021 0)
(1.60402 1.13522 0)
(1.52724 1.27856 0)
(1.44034 1.4159 0)
(1.34345 1.54604 0)
(1.23682 1.66772 0)
(1.12084 1.77955 0)
(0.99621 1.87982 0)
(0.864247 1.96611 0)
(0.725037 2.03983 0)
(0.576827 2.12341 0)
(0.423533 2.2125 0)
(0.267982 2.2801 0)
(0.110974 2.32596 0)
(1.86116 0.0464616 0)
(1.85435 0.222379 0)
(1.83845 0.399748 0)
(1.81357 0.57619 0)
(1.77943 0.75104 0)
(1.73566 0.923698 0)
(1.6821 1.09351 0)
(1.6185 1.2597 0)
(1.54461 1.42118 0)
(1.4603 1.57667 0)
(1.3655 1.72478 0)
(1.26029 1.86398 0)
(1.14491 1.99254 0)
(1.01997 2.10827 0)
(0.886707 2.20822 0)
(0.744717 2.29568 0)
(0.593061 2.39342 0)
(0.436174 2.48892 0)
(0.276572 2.55777 0)
(0.114175 2.60679 0)
(1.86116 0.0498536 0)
(1.85502 0.240628 0)
(1.84064 0.432823 0)
(1.81807 0.62443 0)
(1.78691 0.814913 0)
(1.74666 1.00373 0)
(1.69695 1.19029 0)
(1.63734 1.37383 0)
(1.56735 1.55317 0)
(1.48659 1.72692 0)
(1.39473 1.89347 0)
(1.29163 2.051 0)
(1.1773 2.19744 0)
(1.05217 2.33003 0)
(0.917385 2.44527 0)
(0.772107 2.54841 0)
(0.616192 2.66084 0)
(0.454301 2.76347 0)
(0.28892 2.83463 0)
(0.118856 2.88671 0)
(1.86116 0.0526773 0)
(1.85584 0.256194 0)
(1.84335 0.461158 0)
(1.82367 0.666023 0)
(1.79626 0.870439 0)
(1.76045 1.07398 0)
(1.71569 1.2762 0)
(1.66126 1.47636 0)
(1.59643 1.67328 0)
(1.52047 1.86545 0)
(1.43273 2.05107 0)
(1.33273 2.22805 0)
(1.22016 2.3939 0)
(1.09519 2.54525 0)
(0.958728 2.67799 0)
(0.809609 2.79914 0)
(0.648326 2.92765 0)
(0.479634 3.03909 0)
(0.306321 3.11404 0)
(0.125681 3.16853 0)
(1.86116 0.0548824 0)
(1.85683 0.268815 0)
(1.84663 0.484274 0)
(1.83044 0.700279 0)
(1.8076 0.916699 0)
(1.77729 1.13332 0)
(1.73871 1.3499 0)
(1.6909 1.5658 0)
(1.63278 1.7799 0)
(1.56323 1.99066 0)
(1.4812 2.19609 0)
(1.38574 2.39387 0)
(1.27608 2.58108 0)
(1.15196 2.75369 0)
(1.01392 2.90689 0)
(0.86045 3.04902 0)
(0.69242 3.19616 0)
(0.514601 3.31924 0)
(0.330463 3.40011 0)
(0.134945 3.45605 0)
(1.86117 0.0564286 0)
(1.85799 0.278263 0)
(1.85045 0.501751 0)
(1.83837 0.726554 0)
(1.82096 0.952811 0)
(1.79726 1.18062 0)
(1.76626 1.40999 0)
(1.7267 1.64048 0)
(1.67715 1.87116 0)
(1.61606 2.10049 0)
(1.54186 2.32646 0)
(1.453 2.54656 0)
(1.34807 2.75748 0)
(1.22612 2.95453 0)
(1.08709 3.13206 0)
(0.929012 3.29917 0)
(0.752703 3.46907 0)
(0.562864 3.60811 0)
(0.36392 3.69807 0)
(0.147403 3.75375 0)
(1.86117 0.0572901 0)
(1.8593 0.284363 0)
(1.85477 0.513257 0)
(1.84737 0.744313 0)
(1.83623 0.977996 0)
(1.82026 1.21479 0)
(1.79828 1.45501 0)
(1.76878 1.69858 0)
(1.72996 1.94483 0)
(1.67982 2.19243 0)
(1.61622 2.43943 0)
(1.53685 2.68332 0)
(1.43944 2.92057 0)
(1.32202 3.1459 0)
(1.18354 3.35274 0)
(1.02125 3.55023 0)
(0.835257 3.74922 0)
(0.629885 3.91089 0)
(0.410833 4.01498 0)
(0.164283 4.06934 0)
(1.86117 0.0574606 0)
(1.86073 0.287028 0)
(1.8595 0.518598 0)
(1.85726 0.7532 0)
(1.85312 0.991669 0)
(1.84591 1.23491 0)
(1.83438 1.48365 0)
(1.81679 1.73826 0)
(1.79108 1.99852 0)
(1.75482 2.26344 0)
(1.70524 2.53144 0)
(1.63925 2.80022 0)
(1.55348 3.06632 0)
(1.44455 3.32421 0)
(1.30982 3.56647 0)
(1.1452 3.80161 0)
(0.948943 4.03903 0)
(0.724086 4.23367 0)
(0.477653 4.3602 0)
(0.187192 4.41359 0)
(1.86118 0.0569564 0)
(1.86223 0.286272 0)
(1.86449 0.517762 0)
(1.86776 0.753112 0)
(1.87116 0.99354 0)
(1.87358 1.24038 0)
(1.87373 1.49485 0)
(1.86984 1.75788 0)
(1.85966 2.02981 0)
(1.84046 2.31025 0)
(1.80898 2.59823 0)
(1.76131 2.89209 0)
(1.69293 3.1889 0)
(1.59873 3.48349 0)
(1.47373 3.76809 0)
(1.31159 4.05016 0)
(1.10685 4.33941 0)
(0.859014 4.58342 0)
(0.575374 4.74693 0)
(0.220351 4.80427 0)
(1.86118 0.0558171 0)
(1.86375 0.282226 0)
(1.86957 0.510945 0)
(1.8785 0.744241 0)
(1.88976 0.983696 0)
(1.90235 1.23106 0)
(1.91513 1.48803 0)
(1.9264 1.75622 0)
(1.93397 2.0366 0)
(1.93502 2.32959 0)
(1.92601 2.63515 0)
(1.90251 2.95264 0)
(1.85897 3.28037 0)
(1.78854 3.61446 0)
(1.68336 3.94801 0)
(1.53377 4.28767 0)
(1.32805 4.64679 0)
(1.05716 4.96612 0)
(0.724049 5.19344 0)
(0.273821 5.27148 0)
(1.86119 0.0541041 0)
(1.86524 0.275136 0)
(1.87456 0.498551 0)
(1.88909 0.727097 0)
(1.90821 0.962654 0)
(1.93116 1.20732 0)
(1.95703 1.46328 0)
(1.98441 1.73277 0)
(2.0114 2.01749 0)
(2.03543 2.31876 0)
(2.05308 2.6377 0)
(2.05986 2.97507 0)
(2.04983 3.33106 0)
(2.01498 3.70429 0)
(1.94482 4.09059 0)
(1.82602 4.49722 0)
(1.63858 4.94705 0)
(1.35647 5.38084 0)
(0.964519 5.7231 0)
(0.376261 5.86721 0)
(1.86119 0.0518952 0)
(1.86665 0.265346 0)
(1.87926 0.481177 0)
(1.89912 0.702488 0)
(1.9258 0.931361 0)
(1.95884 1.17014 0)
(1.99769 1.42143 0)
(2.04142 1.68799 0)
(2.08864 1.97218 0)
(2.13739 2.27627 0)
(2.18489 2.60251 0)
(2.22733 2.95322 0)
(2.25935 3.33087 0)
(2.27325 3.73745 0)
(2.25778 4.17362 0)
(2.19756 4.64955 0)
(2.06719 5.20506 0)
(1.81689 5.80218 0)
(1.38452 6.35263 0)
(0.611361 6.68649 0)
(1.86119 0.0492797 0)
(1.86791 0.253272 0)
(1.88352 0.459565 0)
(1.90825 0.671465 0)
(1.94189 0.891142 0)
(1.98432 1.12106 0)
(2.03545 1.36412 0)
(2.09489 1.62342 0)
(2.16204 1.90186 0)
(2.23581 2.20243 0)
(2.31458 2.52834 0)
(2.39594 2.88327 0)
(2.47634 3.2717 0)
(2.55038 3.69899 0)
(2.60956 4.17131 0)
(2.64134 4.70343 0)
(2.62659 5.35481 0)
(2.50873 6.14305 0)
(2.16518 7.02606 0)
(1.31753 7.85317 0)
(-0.0629381 -0.11225 0)
(-0.254446 0.110044 0)
(-0.510407 0.0274766 0)
(-0.450063 -0.0291406 -1.31506e-21)
(-0.267643 -0.0346831 0)
(-0.0471913 -0.0412965 0)
(0.184328 -0.0431193 0)
(0.370952 -0.0345943 0)
(0.343261 0.0515243 0)
(-0.73439 0.427373 -6.29663e-21)
(-3.93966 0.569942 0)
(-6.80863 0.36622 0)
(-8.27767 0.137426 -5.5291e-21)
(-9.88779 0.230665 -8.15684e-21)
(-10.1275 0.0133109 0)
(-10.0928 -0.0547619 1.86026e-21)
(-9.97352 -0.041331 -1.67163e-21)
(-9.90866 -0.00225036 4.37782e-21)
(-10.1033 0.0553392 0)
(-11.3747 -0.039358 -5.04842e-20)
(-6.8932 -2.52686 2.92647e-19)
(4.01277 -2.0526 1.83771e-20)
(11.2023 -1.11774 1.17651e-19)
(15.8146 -0.755303 -1.28617e-19)
(19.0636 -0.545195 0)
(21.3906 -0.387358 -9.5053e-20)
(22.9783 -0.261713 0)
(23.9759 -0.165335 4.90141e-20)
(24.5335 -0.0953507 6.32156e-20)
(24.7884 -0.0470705 0)
(24.8519 -0.0142278 1.1477e-20)
(24.8062 -0.00106389 -6.43604e-21)
(24.7012 0.00393181 1.7405e-21)
(24.573 0.00672104 -9.26727e-22)
(24.4365 0.00802738 0)
(24.2988 0.00853505 0)
(24.1646 0.00857244 -6.8104e-23)
(24.0357 0.00834727 0)
(23.9136 0.00783034 -3.08343e-23)
(23.8008 0.0069301 0)
(23.6991 0.00571165 0)
(23.6107 0.00431936 -2.77744e-23)
(23.5362 0.00296345 0)
(23.4744 0.00196433 0)
(23.4225 0.00138581 7.98542e-24)
(23.3787 0.000848278 1.39389e-23)
(23.343 0.000202551 0)
(23.316 -0.000417051 -1.4275e-23)
(23.2964 -0.000799515 1.9299e-23)
(23.2814 -0.000922374 -2.69363e-23)
(23.2693 -0.000945718 0)
(23.2594 -0.000936554 5.16719e-23)
(23.251 -0.000777181 0)
(23.2414 -0.000371057 -3.42933e-23)
(23.2289 -2.85438e-05 0)
(23.2166 -8.26873e-05 0)
(23.2078 -0.000198656 -3.06796e-26)
(23.2004 3.41043e-05 9.19774e-27)
(23.1912 0.000482916 0)
(23.1796 0.000842427 0)
(-0.109119 -0.0130032 0)
(-0.222596 0.197757 0)
(-0.272532 0.083384 -5.5211e-22)
(-0.208635 -0.0746256 0)
(-0.0600017 -0.120171 0)
(0.121456 -0.134232 9.1998e-23)
(0.281707 -0.115451 8.53325e-22)
(0.336511 -0.0507671 0)
(0.184318 0.150035 1.01351e-23)
(-0.419681 0.928489 -7.95875e-21)
(-1.88237 1.76581 1.77039e-23)
(-3.95557 1.61345 1.37723e-20)
(-5.8811 1.16509 -1.77711e-20)
(-8.50646 0.823578 0)
(-10.0513 0.140812 0)
(-10.2684 -0.0467607 1.50119e-20)
(-10.204 -0.0596456 0)
(-10.1265 -0.0429388 0)
(-9.92693 -0.0115779 -4.85324e-22)
(-8.10239 -0.0714203 0)
(0.143434 -5.03397 0)
(6.16861 -5.53134 0)
(11.4836 -3.62997 6.56488e-20)
(15.6632 -2.55473 -9.0626e-20)
(18.8284 -1.85862 8.80848e-20)
(21.1476 -1.31711 7.46721e-20)
(22.7489 -0.876001 0)
(23.7713 -0.53416 0)
(24.3652 -0.288516 2.5743e-20)
(24.6696 -0.126253 -1.11366e-23)
(24.7933 -0.0275774 0)
(24.8136 0.0294011 3.60335e-25)
(24.7784 0.0570699 -2.81955e-21)
(24.7174 0.0692016 0)
(24.6438 0.0739518 0)
(24.5645 0.0746522 -1.9991e-22)
(24.4838 0.0729899 0)
(24.4045 0.0701063 0)
(24.3284 0.0659705 0)
(24.2577 0.0602682 7.63855e-23)
(24.1946 0.0532116 6.21409e-23)
(24.141 0.0451828 -9.14354e-23)
(24.0978 0.0369992 3.07787e-23)
(24.0644 0.0300191 0)
(24.039 0.0246688 -1.79327e-23)
(24.0201 0.019829 0)
(24.0076 0.0146794 2.30673e-23)
(24.0014 0.00987746 -1.48183e-23)
(23.9999 0.00653011 -1.99335e-23)
(24.0006 0.00473325 2.73506e-23)
(24.0018 0.00363548 -3.76164e-23)
(24.0037 0.00255074 -5.00591e-23)
(24.0066 0.0022887 1.21701e-22)
(24.0088 0.00390016 0)
(24.0077 0.00543699 0)
(24.0054 0.00441898 0)
(24.0056 0.00273824 0)
(24.0066 0.00327888 -1.71579e-23)
(24.0054 0.00506311 1.93124e-23)
(24.0015 0.00666986 0)
(-0.13298 0.095064 0)
(-0.214069 0.204765 -8.01586e-22)
(-0.187568 0.112252 0)
(-0.0674481 -0.104672 -3.55786e-22)
(0.0670225 -0.194366 -1.6628e-22)
(0.23444 -0.224745 1.98058e-22)
(0.389734 -0.189057 0)
(0.437273 -0.0542152 5.01653e-21)
(0.245218 0.224929 0)
(-0.240483 1.05619 0)
(-0.831924 2.27755 0)
(-1.6403 2.4673 0)
(-2.41652 1.88191 0)
(0.679316 5.46231 0)
(-4.34965 1.32629 0)
(-6.60436 0.0816901 0)
(-7.73655 0.0300272 0)
(-9.54977 0.137434 2.07194e-19)
(-8.23469 -0.416051 0)
(-11.1513 -4.93223 0)
(6.48368 -8.60567 0)
(9.12383 -8.03874 0)
(12.5552 -6.07387 0)
(15.9561 -4.53096 0)
(18.7946 -3.36971 0)
(20.9303 -2.41107 0)
(22.3952 -1.61312 0)
(23.3144 -0.992362 0)
(23.8432 -0.548528 2.19524e-20)
(24.124 -0.258075 0)
(24.259 -0.0807431 -8.12739e-21)
(24.3125 0.0184428 0)
(24.3239 0.067466 0)
(24.3149 0.0900095 0)
(24.2941 0.100514 0)
(24.265 0.104211 0)
(24.2314 0.103554 -4.24246e-23)
(24.1956 0.100506 0)
(24.1595 0.0951813 0)
(24.1255 0.0870572 0)
(24.0957 0.0764807 -1.60392e-23)
(24.0718 0.0641344 3.68649e-24)
(24.055 0.0512724 6.23118e-24)
(24.0452 0.040087 0)
(24.0408 0.0315073 1.1265e-23)
(24.0407 0.0238481 0)
(24.0452 0.015769 0)
(24.0542 0.00842751 0)
(24.0658 0.00375054 0)
(24.0776 0.00179215 2.0222e-23)
(24.0879 0.00097644 0)
(24.0972 -0.00036201 8.84784e-23)
(24.1074 -0.00110418 0)
(24.1171 0.00166354 0)
(24.1227 0.00503202 3.42195e-23)
(24.1258 0.00368366 -3.79867e-23)
(24.132 0.000566443 7.83332e-23)
(24.1389 0.00179613 -1.68226e-23)
(24.1427 0.00497193 0)
(24.1437 0.00800008 -1.80583e-24)
(-0.163426 0.193056 0)
(-0.225971 0.20282 0)
(-0.138681 0.0932398 0)
(0.0305871 -0.131299 0)
(0.171221 -0.257618 6.18877e-22)
(0.340738 -0.315529 0)
(0.51958 -0.28513 0)
(0.643683 -0.10173 -1.39463e-23)
(0.582551 0.294883 0)
(-0.0504479 1.11454 2.98944e-22)
(-0.251544 2.2334 -8.328e-21)
(-0.243184 2.69778 0)
(-0.424967 2.09128 0)
(-0.524527 1.69496 -3.35681e-22)
(-0.0645289 3.57216 2.46312e-22)
(-1.80373 1.17938 1.08431e-22)
(-2.84398 0.882368 -2.82883e-20)
(-4.32029 0.858397 0)
(-0.713339 -2.08041 -2.35188e-19)
(0.958116 -5.99852 0)
(10.1089 -10.8306 8.40305e-23)
(11.6661 -9.62457 1.81266e-22)
(14.04 -7.97617 -2.11828e-22)
(16.6829 -6.30214 4.963e-20)
(19.0711 -4.80737 -5.83437e-20)
(20.896 -3.46564 0)
(22.1111 -2.31683 0)
(22.8416 -1.42576 -7.71634e-23)
(23.2544 -0.79812 5.48239e-23)
(23.4916 -0.396803 0)
(23.6362 -0.155015 6.87744e-21)
(23.7295 -0.0195671 0)
(23.7953 0.0482342 0)
(23.846 0.0806488 0)
(23.8839 0.0982934 -1.13707e-21)
(23.9092 0.107231 0)
(23.9254 0.109838 0)
(23.9347 0.108874 -8.63801e-24)
(23.939 0.104567 -1.0709e-23)
(23.9409 0.0960512 6.19146e-24)
(23.9432 0.0838897 -4.56374e-24)
(23.9475 0.0690961 0)
(23.9551 0.0531723 -4.42608e-23)
(23.9666 0.0390993 0)
(23.9808 0.0285129 -2.823e-23)
(23.9967 0.0191027 1.87185e-23)
(24.0152 0.00896843 0)
(24.0365 -0.000137466 -1.90568e-24)
(24.0587 -0.00523838 0)
(24.0793 -0.00638152 1.55317e-23)
(24.0967 -0.00591783 2.66985e-23)
(24.1115 -0.00690801 -4.20368e-23)
(24.1271 -0.00845924 5.72408e-23)
(24.1431 -0.00433546 5.89235e-23)
(24.1538 0.00181892 0)
(24.1602 0.000447746 -3.89766e-23)
(24.171 -0.00484158 -4.13549e-23)
(24.1828 -0.00231818 1.66139e-23)
(24.1903 0.00239197 0)
(24.1953 0.00705569 0)
(-0.157168 0.265035 -6.59095e-22)
(-0.2224 0.208114 2.51946e-23)
(-0.10332 0.0489553 0)
(0.0777752 -0.168557 -1.49906e-21)
(0.243445 -0.31895 1.22431e-21)
(0.431153 -0.4095 0)
(0.638312 -0.408228 0)
(0.841059 -0.241911 -1.09825e-23)
(0.991822 0.174614 1.45314e-23)
(1.11628 0.98582 -1.50122e-20)
(1.23268 2.09471 3.01571e-20)
(0.863377 2.75005 -1.61845e-22)
(0.722029 2.37063 -7.26181e-21)
(0.182958 2.01218 0)
(-1.78484 3.56067 2.66233e-21)
(0.0902826 1.74876 -5.33014e-20)
(0.377559 1.02513 0)
(2.29665 0.826637 3.68591e-21)
(5.64854 -3.91201 -1.40266e-19)
(9.54019 -8.06379 0)
(12.1097 -11.8759 -6.34531e-20)
(13.6119 -10.8712 -1.62127e-22)
(15.5148 -9.48153 0)
(17.6052 -7.82379 0)
(19.5276 -6.09966 5.40223e-20)
(20.9516 -4.4126 1.43166e-22)
(21.8242 -2.93234 0)
(22.3153 -1.8018 0)
(22.6089 -1.02596 7.32094e-23)
(22.8282 -0.545629 0)
(23.0137 -0.257825 -1.11336e-20)
(23.1725 -0.093497 -2.13274e-23)
(23.3082 -0.00809985 1.54482e-21)
(23.4261 0.0354321 -1.68316e-21)
(23.5254 0.0627987 8.27169e-22)
(23.6042 0.0807156 3.6849e-22)
(23.6671 0.0897539 0)
(23.7175 0.0938952 -3.76191e-25)
(23.7575 0.0935526 0)
(23.7902 0.0872291 -1.73208e-24)
(23.8192 0.0758078 8.26281e-24)
(23.8461 0.0608014 1.94134e-23)
(23.8728 0.0437441 2.81128e-23)
(23.9001 0.0283175 -3.74042e-23)
(23.9276 0.0170902 4.46066e-23)
(23.9547 0.00722817 2.7644e-23)
(23.9825 -0.00411784 -2.13987e-23)
(24.0117 -0.0143382 1.97019e-25)
(24.0406 -0.0190863 -3.54432e-24)
(24.0667 -0.0186347 1.10807e-23)
(24.0887 -0.0159923 -2.22996e-23)
(24.1066 -0.0157881 0)
(24.1252 -0.0189069 -6.22552e-23)
(24.1456 -0.0134916 5.22417e-23)
(24.1601 -0.0033792 0)
(24.168 -0.0040363 -4.26296e-23)
(24.1815 -0.0131286 -4.71692e-23)
(24.197 -0.00832253 -1.53384e-26)
(24.2063 -0.00205549 0)
(24.2145 0.00439181 5.85339e-24)
(-0.14953 0.294293 -5.99582e-22)
(-0.206046 0.230267 0)
(-0.0870795 0.012147 7.37909e-25)
(0.0883496 -0.214821 0)
(0.273192 -0.389319 0)
(0.490131 -0.507573 -1.55671e-21)
(0.72768 -0.545161 0)
(0.974221 -0.423644 -2.34447e-22)
(1.19879 -0.0594328 1.60348e-21)
(1.39684 0.667884 -5.60006e-21)
(1.7032 1.74817 4.55334e-21)
(2.12561 2.65485 -4.39618e-20)
(2.05065 2.74849 2.88071e-19)
(1.15882 2.49557 -1.81519e-20)
(0.967192 2.80835 0)
(0.976553 2.01295 9.45181e-21)
(1.23691 0.294111 0)
(4.2201 -2.32577 0)
(5.78265 -4.05575 7.33661e-20)
(11.4041 -10.9183 0)
(13.7951 -12.6019 0)
(15.2317 -11.9597 -3.65709e-21)
(16.8345 -10.7455 -4.64775e-20)
(18.5166 -9.12364 0)
(19.9866 -7.21099 -5.26223e-20)
(20.9372 -5.19586 0)
(21.4076 -3.42151 3.8015e-20)
(21.6784 -2.13179 0)
(21.938 -1.27371 2.28163e-20)
(22.23 -0.746197 0)
(22.5162 -0.418367 -2.01818e-21)
(22.771 -0.219224 7.04628e-22)
(22.9852 -0.107472 0)
(23.1621 -0.0456156 -6.41031e-23)
(23.3092 -0.00318453 1.7718e-22)
(23.4266 0.0290818 -6.96251e-23)
(23.5219 0.0498269 6.57068e-24)
(23.5994 0.0625644 1.55439e-22)
(23.6626 0.069177 -1.88072e-22)
(23.7145 0.0675347 -2.21888e-24)
(23.7592 0.0588731 0)
(23.7989 0.0455174 -2.12078e-22)
(23.8353 0.0289034 -2.08013e-22)
(23.8696 0.0129541 0)
(23.9024 0.00164794 1.51227e-24)
(23.9349 -0.007568 -1.68406e-22)
(23.9669 -0.0188749 1.29685e-22)
(23.9986 -0.0294212 1.12289e-22)
(24.0289 -0.0335339 -1.13772e-22)
(24.0564 -0.0315976 -4.94647e-23)
(24.0806 -0.0269113 3.82412e-23)
(24.1004 -0.0248034 -4.56639e-25)
(24.119 -0.0298671 5.47139e-23)
(24.141 -0.0239839 0)
(24.1586 -0.0101791 6.59792e-24)
(24.1688 -0.00853731 0)
(24.1821 -0.0227148 -5.36295e-23)
(24.1989 -0.0149575 0)
(24.2082 -0.0072982 0)
(24.2185 0.00024112 0)
(-0.127509 0.301698 4.54018e-22)
(-0.191773 0.26874 0)
(-0.0738224 -0.00565328 0)
(0.0912471 -0.257911 7.32427e-22)
(0.279039 -0.459846 0)
(0.500138 -0.616118 0)
(0.771958 -0.695458 0)
(1.05879 -0.6188 0)
(1.332 -0.304079 0)
(1.56531 0.331081 0)
(1.83696 1.2927 0)
(2.22125 2.31283 -3.87704e-21)
(2.46359 2.86952 0)
(2.07402 2.9208 0)
(1.60991 2.91642 -7.1409e-22)
(1.64199 2.20633 0)
(2.20591 0.384922 5.67279e-23)
(3.85744 -2.40774 0)
(5.5755 -4.62802 1.16108e-22)
(14.0497 -12.378 0)
(15.3889 -13.3161 0)
(16.6267 -12.893 -7.31386e-21)
(17.9474 -11.8234 -2.50874e-20)
(19.2666 -10.2217 4.27889e-20)
(20.2601 -8.10412 -5.38535e-20)
(20.6408 -5.77566 0)
(20.7128 -3.83901 1.23267e-22)
(20.9089 -2.41063 3.70926e-23)
(21.3551 -1.44056 0)
(21.8229 -0.877519 3.53349e-20)
(22.2271 -0.527089 0)
(22.567 -0.308789 3.37164e-20)
(22.8397 -0.178086 -2.38736e-22)
(23.0474 -0.102078 2.66975e-20)
(23.2116 -0.0510179 0)
(23.343 -0.0135885 -2.31206e-20)
(23.4498 0.0139272 2.13212e-20)
(23.5356 0.0350374 1.92211e-20)
(23.6061 0.047239 8.83819e-21)
(23.6654 0.0496922 8.08984e-21)
(23.7159 0.0436464 0)
(23.7599 0.032063 -6.9859e-21)
(23.7995 0.0162393 -6.48836e-21)
(23.8347 0.00028373 2.10279e-23)
(23.8668 -0.0102573 0)
(23.9005 -0.0192811 -5.07137e-21)
(23.935 -0.0301163 4.67796e-21)
(23.9676 -0.0403703 -4.25931e-21)
(23.9963 -0.0439025 0)
(24.0234 -0.0411259 -1.74132e-21)
(24.0491 -0.0352545 0)
(24.0743 -0.0308299 0)
(24.0989 -0.0366992 0)
(24.1183 -0.0304314 0)
(24.1384 -0.0151896 0)
(24.1598 -0.0102992 0)
(24.1747 -0.028238 0)
(24.1873 -0.0183171 2.12432e-22)
(24.1994 -0.0100374 7.64768e-23)
(24.2103 -0.00296949 -3.13194e-23)
(-0.112084 0.274315 0)
(-0.158158 0.296861 1.3511e-23)
(-0.0681349 -0.00125271 2.92718e-22)
(0.0941948 -0.292599 1.16318e-21)
(0.277292 -0.521117 0)
(0.493748 -0.716166 0)
(0.768768 -0.853889 0)
(1.08867 -0.832761 2.47405e-21)
(1.3884 -0.560207 0)
(1.65481 0.0103595 0)
(1.91963 0.883205 0)
(2.22859 1.91166 -1.99993e-21)
(2.43737 2.74967 0)
(2.29201 3.13414 0)
(1.9648 3.10053 -3.85388e-21)
(2.03019 2.27914 0)
(2.84322 0.268586 0)
(4.23876 -2.68811 0)
(7.9243 -6.97571 1.81892e-19)
(15.2776 -13.446 2.18607e-20)
(16.6511 -13.959 0)
(17.7338 -13.6734 -1.24538e-20)
(18.7926 -12.7251 -2.73859e-20)
(19.7427 -11.1043 -4.46887e-20)
(20.143 -8.75185 -6.37602e-20)
(19.913 -6.21822 0)
(19.7723 -4.01798 0)
(20.6639 -2.98186 0)
(21.1218 -2.07697 0)
(21.5225 -1.34106 0)
(21.8244 -0.872579 0)
(22.0274 -0.566286 1.93076e-20)
(22.1642 -0.364161 0)
(22.2518 -0.234819 0)
(22.3024 -0.148607 -8.38136e-21)
(22.332 -0.0814943 -6.31936e-21)
(22.3489 -0.0347165 -1.22495e-23)
(22.3567 -0.00224215 0)
(22.3604 0.015993 0)
(22.3669 0.0224056 0)
(22.3733 0.020389 0)
(22.3805 0.012417 0)
(22.3877 -8.82324e-05 0)
(22.3969 -0.0155197 0)
(22.409 -0.0291559 0)
(22.425 -0.0412681 0)
(22.444 -0.0527797 0)
(22.4631 -0.0619899 0)
(22.4819 -0.0649083 0)
(22.5026 -0.0622574 1.83558e-22)
(22.5263 -0.0566874 0)
(22.5542 -0.0527732 0)
(22.5829 -0.0564323 0)
(22.6091 -0.050741 0)
(22.645 -0.0393798 -2.82348e-24)
(22.697 -0.0378537 0)
(22.7636 -0.060256 0)
(22.8677 -0.0921808 0)
(23.0266 -0.120166 0)
(23.1584 -0.0776894 -5.48978e-23)
(-0.132932 0.256442 7.37425e-22)
(-0.111208 0.306246 0)
(-0.0543966 0.0374097 9.07888e-22)
(0.0932051 -0.31706 0)
(0.271564 -0.572365 0)
(0.474553 -0.799403 0)
(0.732527 -0.998038 -1.77258e-21)
(1.0495 -1.04277 0)
(1.36777 -0.825892 5.88134e-21)
(1.65944 -0.312579 0)
(1.93366 0.498273 -2.28497e-21)
(2.20817 1.52142 2.37285e-21)
(2.39229 2.53622 0)
(2.32827 3.20808 0)
(2.09159 3.27957 2.10218e-21)
(2.13025 2.36161 -3.64032e-21)
(3.00505 0.0805182 4.72208e-20)
(4.66215 -3.08292 4.81898e-20)
(13.9639 -12.8689 -1.47205e-20)
(16.3511 -14.2447 0)
(17.5799 -14.5835 1.17352e-20)
(18.5094 -14.3309 -1.75454e-20)
(19.327 -13.4526 0)
(19.8459 -11.7444 5.70397e-20)
(19.6124 -9.31643 0)
(20.5202 -6.22329 -2.49363e-19)
(20.2949 -4.66667 4.08555e-20)
(20.4878 -3.26541 0)
(20.6816 -2.26839 0)
(20.8124 -1.54882 0)
(20.9658 -1.01979 2.03151e-20)
(21.0841 -0.661435 1.58132e-20)
(21.1577 -0.422579 -2.42101e-20)
(21.1931 -0.265914 0)
(21.1973 -0.162018 6.87004e-21)
(21.1833 -0.0876713 -1.01526e-20)
(21.1603 -0.0370587 -3.71395e-21)
(21.1342 -0.0035265 5.51694e-21)
(21.1096 0.0165558 -2.11263e-21)
(21.089 0.0247193 -1.61675e-21)
(21.0729 0.0223801 6.48346e-22)
(21.0608 0.0125132 3.04263e-26)
(21.0527 -0.00162563 -4.65485e-22)
(21.0482 -0.0170472 -4.04455e-22)
(21.0483 -0.0321214 -3.60121e-22)
(21.0531 -0.0462777 3.27995e-22)
(21.0616 -0.0589271 0)
(21.0722 -0.0685767 2.64606e-22)
(21.085 -0.0730417 -5.69567e-25)
(21.1017 -0.0728169 0)
(21.1238 -0.0702306 0)
(21.1519 -0.0690348 0)
(21.1829 -0.071469 0)
(21.2163 -0.0698039 -5.35321e-23)
(21.2615 -0.0670674 0)
(21.3239 -0.0760381 0)
(21.3987 -0.107012 -2.31153e-22)
(21.4799 -0.153368 -1.8757e-22)
(21.5405 -0.169041 -3.15439e-24)
(21.5888 -0.114619 6.68184e-23)
(-0.106077 0.230356 0)
(-0.0842508 0.304978 0)
(-0.0614169 0.0965997 0)
(0.0892822 -0.327693 0)
(0.264565 -0.613554 0)
(0.451834 -0.858566 0)
(0.675135 -1.11447 0)
(0.974168 -1.2386 0)
(1.27932 -1.08592 0)
(1.56824 -0.631675 0)
(1.86913 0.120168 0)
(2.14138 1.12751 0)
(2.30118 2.26736 0)
(2.25197 3.18486 0)
(2.04429 3.44627 0)
(2.00793 2.53391 0)
(2.76706 -0.132997 0)
(5.33352 -3.76505 0)
(15.9696 -13.9291 0)
(17.2124 -14.8805 0)
(18.2108 -15.1282 0)
(18.9681 -14.8758 0)
(19.551 -14.0036 0)
(19.5719 -12.2932 0)
(20.4344 -8.89618 0)
(19.4947 -7.031 0)
(19.4066 -4.9847 4.49948e-20)
(19.4124 -3.51662 0)
(19.4816 -2.45489 0)
(19.5588 -1.7065 0)
(19.6557 -1.15193 0)
(19.7492 -0.755211 0)
(19.8181 -0.480544 0)
(19.8575 -0.294775 0)
(19.8692 -0.16994 0)
(19.8618 -0.0839483 0)
(19.8441 -0.026436 0)
(19.8219 0.00996764 0)
(19.7998 0.0298455 0)
(19.7802 0.0364665 0)
(19.7642 0.0325015 0)
(19.7516 0.0209277 0)
(19.7425 0.00475302 0)
(19.7368 -0.0132868 0)
(19.735 -0.0312288 0)
(19.7372 -0.0480233 0)
(19.7427 -0.0627337 0)
(19.7511 -0.0741195 0)
(19.7628 -0.0810243 -2.13964e-22)
(19.7792 -0.0840075 -1.67354e-22)
(19.8016 -0.0850425 0)
(19.8304 -0.0869049 0)
(19.8634 -0.0907526 0)
(19.9015 -0.0936753 0)
(19.9497 -0.0987339 -3.70969e-23)
(20.0094 -0.114784 4.2437e-23)
(20.072 -0.146689 -8.52475e-23)
(20.1216 -0.182728 0)
(20.1423 -0.184553 3.54875e-24)
(20.1587 -0.135603 0)
(-0.0945878 0.206145 -2.67959e-22)
(-0.0836909 0.297311 0)
(-0.0674661 0.131918 -5.55686e-21)
(0.0819289 -0.321835 6.40425e-22)
(0.25494 -0.647571 0)
(0.432886 -0.898515 0)
(0.621053 -1.1866 0)
(0.881187 -1.40137 2.76618e-21)
(1.14523 -1.31751 2.61527e-21)
(1.44668 -0.952917 0)
(1.75885 -0.27156 -4.82366e-21)
(2.01267 0.73707 0)
(2.14055 1.96456 0)
(2.08289 3.09801 5.01663e-21)
(1.88088 3.59119 -2.22987e-24)
(1.77472 2.81708 -4.70879e-21)
(2.36415 -0.228567 2.46079e-22)
(11.6226 -11.9119 0)
(16.6351 -14.7533 -3.23132e-20)
(17.7256 -15.381 4.19333e-20)
(18.5449 -15.5849 5.41803e-23)
(19.1458 -15.312 -5.185e-20)
(19.4295 -14.4354 4.07471e-20)
(19.4947 -13.0472 4.37684e-19)
(18.8655 -9.65595 0)
(18.1168 -7.16264 1.76936e-22)
(17.8066 -5.20606 3.59219e-20)
(17.7369 -3.72681 0)
(17.7968 -2.64016 2.49345e-20)
(17.9008 -1.86044 2.01265e-20)
(18.0189 -1.2832 -1.63456e-20)
(18.137 -0.85848 1.30579e-20)
(18.2395 -0.553883 0)
(18.3178 -0.34096 0)
(18.3703 -0.194619 0)
(18.4018 -0.0945334 0)
(18.4189 -0.02817 3.60341e-21)
(18.4271 0.0130673 -2.7482e-21)
(18.4306 0.0351302 3.72863e-24)
(18.4322 0.0422965 -1.66459e-21)
(18.4334 0.0380639 -1.3473e-21)
(18.435 0.0257307 0)
(18.4373 0.00838785 4.74688e-22)
(18.4408 -0.0112578 0)
(18.4462 -0.0311588 0)
(18.4536 -0.049955 0)
(18.4634 -0.0665455 0)
(18.4754 -0.0799168 0)
(18.4907 -0.0894719 0)
(18.5104 -0.0957963 1.75453e-22)
(18.5356 -0.100475 0)
(18.5664 -0.105493 6.07136e-23)
(18.6017 -0.11178 5.44293e-23)
(18.6418 -0.118796 -4.40609e-23)
(18.6886 -0.129053 -4.58778e-23)
(18.7398 -0.14745 0)
(18.7858 -0.174111 -6.08367e-23)
(18.8132 -0.19615 -6.0597e-23)
(18.8183 -0.188347 0)
(18.8229 -0.145742 1.60366e-23)
(-0.0854246 0.183971 4.02915e-22)
(-0.0794114 0.278589 0)
(-0.0261999 0.180013 0)
(0.0811909 -0.294899 -3.38538e-23)
(0.24237 -0.672408 0)
(0.407003 -0.9251 1.94666e-21)
(0.576925 -1.23297 2.91471e-21)
(0.788339 -1.51514 0)
(1.01156 -1.52131 6.01384e-21)
(1.2783 -1.25175 -4.82498e-21)
(1.52847 -0.630835 1.10555e-20)
(1.74308 0.349239 0)
(1.86329 1.63265 0)
(1.80141 2.95464 0)
(1.62982 3.68967 -4.19389e-21)
(1.49252 3.13922 -6.16353e-23)
(2.20912 -0.132121 0)
(15.4421 -14.2739 0)
(16.8767 -15.3191 5.15883e-20)
(17.8919 -15.8331 0)
(18.6286 -15.9801 -4.94601e-20)
(19.0825 -15.6523 0)
(19.1791 -14.8575 7.68472e-20)
(18.7129 -12.4486 5.58179e-20)
(17.1534 -9.59635 2.4698e-20)
(16.4098 -7.20384 3.11586e-20)
(16.0313 -5.36466 0)
(15.9228 -3.92953 0)
(15.9788 -2.84455 -2.08203e-20)
(16.1075 -2.04163 0)
(16.2598 -1.44063 1.42182e-20)
(16.4159 -0.99041 1.14867e-20)
(16.5616 -0.658651 0)
(16.688 -0.419563 7.16623e-21)
(16.7911 -0.250708 5.6123e-21)
(16.8724 -0.133584 -9.98141e-24)
(16.936 -0.0549544 3.37932e-21)
(16.9862 -0.00532154 2.61232e-21)
(17.0266 0.0222629 0)
(17.0601 0.0329979 1.61326e-21)
(17.0885 0.0310695 -1.30745e-21)
(17.1131 0.0201317 1.08667e-21)
(17.135 0.00343957 -4.6142e-22)
(17.155 -0.0162411 4.0106e-22)
(17.1741 -0.0367336 -3.54463e-22)
(17.193 -0.0564629 -3.16902e-22)
(17.2124 -0.0742498 0)
(17.2329 -0.0892273 -2.49741e-22)
(17.2556 -0.101052 2.12736e-22)
(17.2817 -0.110234 1.7664e-22)
(17.3119 -0.11798 0)
(17.3463 -0.125701 0)
(17.3841 -0.134244 0)
(17.4249 -0.143902 0)
(17.4681 -0.156237 0)
(17.5101 -0.173074 -3.14385e-23)
(17.5427 -0.191867 -4.01038e-23)
(17.5579 -0.201764 0)
(17.558 -0.188174 -7.71512e-26)
(17.5591 -0.151253 1.21329e-23)
(-0.0462548 0.155829 0)
(-0.0532378 0.245297 0)
(-0.015313 0.234652 4.54265e-22)
(0.112148 -0.238546 0)
(0.242835 -0.678015 0)
(0.398633 -0.950823 -1.70936e-21)
(0.569865 -1.24743 1.13267e-20)
(0.722641 -1.57708 0)
(0.882388 -1.67081 0)
(1.05884 -1.48391 -6.81472e-24)
(1.23099 -0.944022 0)
(1.3739 -0.0197601 0)
(1.43885 1.28866 -1.68767e-20)
(1.33093 2.72731 -2.90163e-20)
(1.2599 3.66454 -3.17796e-21)
(1.13893 3.46169 7.02366e-20)
(3.59544 -2.90558 9.5628e-18)
(15.3902 -15.2847 -1.64773e-22)
(16.8967 -15.8748 -5.97187e-20)
(17.8726 -16.2805 0)
(18.5418 -16.3331 0)
(18.8142 -15.9309 -5.53126e-20)
(18.9507 -15.1385 -3.32109e-19)
(16.9933 -12.0876 1.61151e-20)
(15.6021 -9.40648 2.28451e-20)
(14.8056 -7.21513 0)
(14.3894 -5.48224 -2.18626e-20)
(14.2395 -4.11324 1.97532e-20)
(14.2661 -3.0506 -1.71374e-20)
(14.388 -2.23956 0)
(14.5516 -1.62068 1.21651e-20)
(14.7297 -1.14901 -9.89729e-21)
(14.9061 -0.79355 0)
(15.0702 -0.53043 6.35751e-21)
(15.2158 -0.339485 -5.02433e-21)
(15.3417 -0.203845 -3.92512e-21)
(15.4493 -0.11047 6.13359e-21)
(15.541 -0.0494285 0)
(15.6195 -0.0131659 1.87762e-21)
(15.6871 0.00414276 0)
(15.7458 0.00721666 -1.21177e-21)
(15.7971 5.8284e-05 -3.44113e-24)