/*--------------------------------*- C++ -*----------------------------------*\
| =========                 |                                                 |
| \\      /  F ield         | OpenFOAM: The Open Source CFD Toolbox           |
|  \\    /   O peration     | Version:  v1912                                 |
|   \\  /    A nd           | Website:  www.openfoam.com                      |
|    \\/     M anipulation  |                                                 |
\*---------------------------------------------------------------------------*/
FoamFile
{
    version     2.0;
    format      ascii;
    class       surfaceScalarField;
    location    "12";
    object      alphaPhi0.water;
}
// * * * * * * * * * * * * * * * * * * * * * * * * * * * * * * * * * * * * * //

dimensions      [0 3 -1 0 0 0 0];
oriented        oriented;


internalField   nonuniform List<scalar> 
40282
(
0.00292054
0.00235979
1.94562
-1.95277
1.94795
0.0048166
-1.94002
1.92958
0.0104314
-1.91662
1.90093
0.0156908
-1.88294
1.86286
0.0200739
-1.84044
1.81571
0.0247358
-1.78914
1.76113
0.0280089
-1.73139
1.69983
0.0315601
-1.66708
1.63349
0.033592
-1.59885
1.56354
0.0353025
-1.52839
1.49369
0.0346926
-1.45972
1.42673
0.0329852
-1.39396
1.35911
0.0348453
-1.31908
1.27067
0.0484078
-1.21112
1.1383
0.0728228
-1.05057
0.946928
0.103642
-0.827131
0.691109
0.136023
-0.53983
0.379354
0.160476
-0.223343
0.0902301
0.133113
0.00270654
-0.0398886
0.0371821
-0.00378857
0.00504408
1.87976
-1.87575
1.86957
-0.012482
0.0186589
-1.86103
1.85005
-0.0223942
0.033376
-1.83667
1.82099
-0.0319352
0.0476219
-1.80296
1.7827
-0.0407827
0.0610444
-1.76039
1.73606
-0.0492556
0.0735904
-1.70962
1.68121
-0.0568077
0.085227
-1.65102
1.61911
-0.0635511
0.0954651
-1.58551
1.55061
-0.0688522
0.103757
-1.51456
1.47709
-0.0722427
0.109712
-1.43797
1.39665
-0.0732026
0.114524
-1.35156
1.3007
-0.0763175
0.127171
-1.24308
1.17921
-0.0881066
0.151982
-1.11033
1.03774
-0.113538
0.18613
-0.962456
0.88525
-0.150575
0.227781
-0.806776
0.727723
-0.193723
0.272776
-0.648948
0.57157
-0.234288
0.311666
-0.496631
0.424037
-0.254302
0.326895
-0.351793
0.276188
-0.221542
0.297147
-0.193951
0.102668
-0.125929
0.217212
-0.00635838
0.00761018
1.81237
-1.80854
1.8023
-0.0251077
0.0313432
-1.79362
1.78262
-0.0447345
0.055729
-1.76933
1.75363
-0.0636114
0.0793056
-1.73567
1.71553
-0.081633
0.101779
-1.69307
1.66849
-0.098557
0.123145
-1.64195
1.6132
-0.114176
0.142923
-1.58234
1.5499
-0.128347
0.160789
-1.51568
1.47928
-0.139642
0.176043
-1.44087
1.39975
-0.149268
0.190388
-1.35399
1.30237
-0.161934
0.213554
-1.24525
1.18373
-0.18663
0.24815
-1.11887
1.05151
-0.220379
0.287732
-0.982391
0.912194
-0.259669
0.329866
-0.841625
0.771382
-0.302993
0.373235
-0.702128
0.634422
-0.346461
0.414166
-0.568627
0.504749
-0.381297
0.445175
-0.442243
0.379854
-0.393418
0.455808
-0.31566
0.24743
-0.369451
0.437681
-0.173131
0.0912075
-0.306511
0.388435
-0.00882562
0.0100669
1.74742
-1.74378
1.73777
-0.0376148
0.0436282
-1.7294
1.71854
-0.0667611
0.0776191
-1.70531
1.68987
-0.0952236
0.110659
-1.6721
1.65199
-0.12234
0.142443
-1.62977
1.60522
-0.148055
0.172606
-1.57828
1.54951
-0.172495
0.201256
-1.51892
1.48585
-0.193978
0.227047
-1.45045
1.41256
-0.213829
0.251718
-1.37053
1.32298
-0.235609
0.283158
-1.27019
1.21335
-0.269838
0.326679
-1.15359
1.09172
-0.311631
0.373498
-1.02834
0.963927
-0.355089
0.419505
-0.898921
0.833764
-0.398768
0.463926
-0.768889
0.704704
-0.441425
0.505611
-0.641542
0.579607
-0.479731
0.541666
-0.518907
0.45919
-0.507658
0.567375
-0.399904
0.340206
-0.517757
0.577456
-0.279052
0.215353
-0.504722
0.568421
-0.148139
0.0766378
-0.466095
0.537595
-0.0112526
0.0124148
1.68484
-1.68134
1.67542
-0.049657
0.0555761
-1.66711
1.65662
-0.0885923
0.0990835
-1.64387
1.62866
-0.126225
0.141431
-1.61118
1.59152
-0.162698
0.182363
-1.56943
1.54516
-0.197664
0.221925
-1.51913
1.49081
-0.230184
0.258504
-1.45986
1.42667
-0.260999
0.294189
-1.39046
1.34942
-0.291676
0.332713
-1.30296
1.25199
-0.333876
0.384849
-1.19776
1.14127
-0.384784
0.441281
-1.08315
1.02386
-0.435343
0.494634
-0.963747
0.903126
-0.483171
0.543792
-0.842289
0.781516
-0.52793
0.588704
-0.721062
0.661141
-0.568616
0.628537
-0.601896
0.543372
-0.602818
0.661342
-0.485493
0.42804
-0.626932
0.684385
-0.370657
0.312875
-0.63724
0.695022
-0.254156
0.193956
-0.63138
0.69158
-0.131789
0.067236
-0.606481
0.671034
-0.0135363
0.0146755
1.62456
-1.62098
1.61533
-0.0615383
0.0671896
-1.60756
1.59743
-0.109512
0.119642
-1.58491
1.57031
-0.156716
0.171312
-1.55356
1.53441
-0.20216
0.22131
-1.51323
1.4902
-0.245984
0.269017
-1.46467
1.43662
-0.287387
0.315438
-1.40641
1.37286
-0.327964
0.361523
-1.33423
1.29037
-0.3762
0.420055
-1.24242
1.19161
-0.436994
0.487804
-1.13881
1.08456
-0.49779
0.55204
-1.02922
0.973064
-0.55343
0.609585
-0.916325
0.859215
-0.603683
0.660793
-0.801933
0.74466
-0.648711
0.705984
-0.68755
0.630719
-0.687872
0.744702
-0.574233
0.518091
-0.719639
0.775781
-0.462226
0.406498
-0.741971
0.7977
-0.350699
0.294575
-0.752988
0.809112
-0.237846
0.180233
-0.751465
0.809078
-0.121488
0.0613993
-0.734251
0.79434
-0.0157741
0.0168393
1.56616
-1.56315
1.55792
-0.0726951
0.0779244
-1.55039
1.54067
-0.129844
0.139563
-1.52909
1.51541
-0.185671
0.199354
-1.49933
1.4813
-0.240338
0.258364
-1.46148
1.43921
-0.292077
0.314339
-1.41459
1.38788
-0.34336
0.370065
-1.35774
1.32247
-0.396515
0.431779
-1.28209
1.23779
-0.465233
0.509535
-1.19077
1.14184
-0.538721
0.587649
-1.09149
1.04
-0.605909
0.657391
-0.987618
0.934508
-0.665201
0.718311
-0.880841
0.826769
-0.717353
0.771425
-0.772433
0.717955
-0.762814
0.817292
-0.663439
0.608959
-0.801311
0.855791
-0.554552
0.50022
-0.831979
0.886311
-0.445923
0.391585
-0.85371
0.908048
-0.337097
0.282324
-0.865541
0.920313
-0.227126
0.171365
-0.866729
0.92249
-0.114921
0.057716
-0.853909
0.911114
-0.017811
0.0187286
1.51028
-1.50752
1.50248
-0.0831514
0.088184
-1.49549
1.48683
-0.148953
0.157608
-1.47616
1.46313
-0.212965
0.225991
-1.44828
1.43185
-0.275919
0.292354
-1.41316
1.39219
-0.336484
0.357445
-1.36928
1.34308
-0.396819
0.423017
-1.31187
1.27559
-0.468393
0.504679
-1.23539
1.19246
-0.554112
0.597039
-1.14759
1.10123
-0.636212
0.682573
-1.05364
1.00501
-0.708357
0.756985
-0.955493
0.905208
-0.770922
0.821206
-0.854283
0.802834
-0.825101
0.876551
-0.750964
0.698767
-0.871545
0.923742
-0.646321
0.593683
-0.910273
0.96291
-0.54089
0.487956
-0.940875
0.993809
-0.434871
0.381605
-0.962789
1.01605
-0.328114
0.274341
-0.975528
1.0293
-0.220225
0.165712
-0.978561
1.03307
-0.110765
0.0553916
-0.968317
1.02369
-0.0195782
0.020412
1.45621
-1.45345
1.44893
-0.0931111
0.0976324
-1.44293
1.43511
-0.16593
0.173755
-1.42505
1.41331
-0.238721
0.250461
-1.40028
1.38527
-0.308341
0.323355
-1.36803
1.34899
-0.377833
0.396873
-1.32709
1.3005
-0.449872
0.476469
-1.26885
1.23318
-0.541513
0.577184
-1.19467
1.15412
-0.639629
0.680179
-1.11197
1.06846
-0.728355
0.771864
-1.02375
0.977956
-0.805056
0.850849
-0.931184
0.883529
-0.871051
0.918706
-0.835087
0.785947
-0.927733
0.976874
-0.736192
0.685901
-0.975883
1.02617
-0.635139
0.583961
-1.01572
1.0669
-0.532411
0.480518
-1.04714
1.09903
-0.428302
0.37577
-1.06987
1.12241
-0.322922
0.269756
-1.0837
1.13686
-0.216267
0.162458
-1.08816
1.14196
-0.108347
0.0540122
-1.07945
1.13379
-0.0212069
0.0219841
1.40418
-1.40175
1.39805
-0.101829
0.105535
-1.39281
1.38555
-0.181453
0.188716
-1.37672
1.36692
-0.261455
0.271249
-1.35552
1.34195
-0.337961
0.351532
-1.32671
1.30923
-0.415391
0.432874
-1.28762
1.26108
-0.503649
0.530186
-1.23037
1.19664
-0.612655
0.646383
-1.16073
1.12308
-0.720048
0.757696
-1.08393
1.04342
-0.814663
0.855173
-1.00164
0.958651
-0.896055
0.939042
-0.914536
0.869365
-0.96596
1.01113
-0.823208
0.776138
-1.02584
1.07291
-0.728224
0.679532
-1.07654
1.12523
-0.630124
0.580058
-1.11841
1.16848
-0.529387
0.478159
-1.15149
1.20272
-0.426416
0.374201
-1.17569
1.2279
-0.321551
0.268507
-1.19087
1.24392
-0.21511
0.161408
-1.19661
1.25031
-0.107464
0.0534262
-1.18885
1.24289
-0.0226952
0.0233437
1.35392
-1.35198
1.34895
-0.10893
0.111959
-1.34423
1.338
-0.195673
0.2019
-1.33106
1.32303
-0.280264
0.28829
-1.31302
1.30138
-0.364446
0.376089
-1.28817
1.27172
-0.450116
0.466559
-1.25069
1.22538
-0.556745
0.582062
-1.19683
1.16593
-0.679382
0.710283
-1.13317
1.09878
-0.794417
0.8288
-1.06289
1.02555
-0.894842
0.932185
-0.986798
0.946681
-0.981373
1.02149
-0.905241
0.862523
-1.05589
1.09861
-0.818578
0.773459
-1.11984
1.16496
-0.727222
0.679923
-1.17409
1.22139
-0.63162
0.582375
-1.21901
1.26826
-0.532248
0.481305
-1.25469
1.30564
-0.429614
0.377247
-1.28109
1.33345
-0.32428
0.270794
-1.29807
1.35155
-0.216875
0.162614
-1.30514
1.3594
-0.108121
0.0536502
-1.298
1.35247
-0.0238872
0.0243358
1.30561
-1.30396
1.3014
-0.11479
0.117347
-1.29745
1.29284
-0.207464
0.212071
-1.28773
1.28109
-0.295737
0.302383
-1.27278
1.26341
-0.386811
0.396182
-1.25194
1.23661
-0.48279
0.498121
-1.21705
1.19407
-0.606782
0.62976
-1.16857
1.14111
-0.740071
0.767533
-1.11194
1.08116
-0.862028
0.892805
-1.04881
1.01488
-0.968518
1.00245
-0.979377
0.942309
-1.06083
1.0979
-0.903686
0.863526
-1.14084
1.181
-0.821851
0.778692
-1.20993
1.25309
-0.734085
0.68807
-1.2689
1.31492
-0.640699
0.59203
-1.31809
1.36676
-0.54213
0.491077
-1.35752
1.40857
-0.438964
0.385893
-1.38706
1.44013
-0.33198
0.277352
-1.40649
1.46111
-0.222147
0.16651
-1.41515
1.47079
-0.110614
0.0549461
-1.40851
1.46417
-0.0246708
0.0249098
1.25918
-1.25793
1.25588
-0.11971
0.121756
-1.2531
1.25022
-0.215867
0.218748
-1.24656
1.24135
-0.308461
0.313674
-1.23521
1.22807
-0.40457
0.411703
-1.21826
1.20463
-0.512963
0.526593
-1.18751
1.16773
-0.651625
0.671396
-1.14593
1.1224
-0.793563
0.817097
-1.09723
1.07044
-0.922179
0.948973
-1.04198
1.01182
-1.03514
1.06531
-0.979905
0.946213
-1.13399
1.16768
-0.91071
0.873377
-1.22051
1.25784
-0.834201
0.793176
-1.296
1.33702
-0.750307
0.705608
-1.36113
1.40583
-0.659109
0.610853
-1.41611
1.46437
-0.560903
0.509341
-1.46078
1.51234
-0.456275
0.401839
-1.49479
1.54922
-0.346193
0.289522
-1.51764
1.57431
-0.232031
0.173944
-1.52843
1.58651
-0.115555
0.0578598
-1.52238
1.58008
-0.0250521
0.0251134
1.21405
-1.21333
1.21199
-0.123507
0.124851
-1.21057
1.20916
-0.220891
0.222296
-1.20676
1.20333
-0.318125
0.321558
-1.19955
1.19452
-0.417888
0.422918
-1.18662
1.17545
-0.539321
0.550496
-1.16158
1.14566
-0.689641
0.705552
-1.12808
1.10893
-0.83889
0.858032
-1.08822
1.06588
-0.974064
0.99641
-1.04181
1.01592
-1.09393
1.11982
-0.988126
0.958345
-1.20009
1.22987
-0.9265
0.89252
-1.29425
1.32823
-0.85634
0.817903
-1.37757
1.41601
-0.777161
0.73408
-1.45059
1.49367
-0.688643
0.640853
-1.51331
1.56109
-0.590744
0.538381
-1.56524
1.61761
-0.48387
0.427365
-1.60563
1.66213
-0.369068
0.309234
-1.63346
1.6933
-0.248168
0.186226
-1.64734
1.70928
-0.123949
0.0634547
-1.64238
1.70287
-0.0250996
0.0250182
1.17075
-1.17041
1.16991
-0.125798
0.126295
-1.16978
1.16959
-0.223086
0.223281
-1.16853
1.16713
-0.324037
0.325438
-1.16562
1.16269
-0.426985
0.429922
-1.15716
1.1491
-0.560365
0.568429
-1.13907
1.12749
-0.719599
0.731172
-1.11455
1.10024
-0.875123
0.889435
-1.08446
1.0671
-1.0167
1.03407
-1.048
1.02703
-1.14377
1.16473
-1.00406
0.978946
-1.25793
1.28305
-0.951552
0.921745
-1.36083
1.39064
-0.889391
0.854359
-1.45355
1.48858
-0.81652
0.775758
-1.53649
1.57725
-0.731969
0.685075
-1.6094
1.65629
-0.635029
0.581832
-1.67138
1.72458
-0.525541
0.466289
-1.721
1.78026
-0.4043
0.339899
-1.75638
1.82079
-0.273527
0.205769
-1.77514
1.84289
-0.137686
0.0737374
-1.77242
1.83637
-0.0248771
0.0246754
1.12894
-1.12882
1.12919
-0.126354
0.125986
-1.13014
1.13102
-0.222924
0.222045
-1.13145
1.1321
-0.325812
0.325168
-1.13271
1.13198
-0.431806
0.432536
-1.12924
1.12473
-0.574871
0.579374
-1.11891
1.11201
-0.740613
0.747516
-1.10406
1.09497
-0.901397
0.910482
-1.0846
1.07278
-1.04901
1.06083
-1.05932
1.04405
-1.18329
1.19856
-1.02677
1.0073
-1.30589
1.32536
-0.985446
0.960991
-1.41845
1.4429
-0.933722
0.90341
-1.52206
1.55237
-0.869821
0.832712
-1.61713
1.65424
-0.791843
0.746983
-1.70323
1.74809
-0.697927
0.644514
-1.77902
1.83243
-0.586652
0.524347
-1.84218
1.90449
-0.457748
0.387192
-1.88942
1.95998
-0.313265
0.236921
-1.91648
1.99283
-0.160259
0.092152
-1.91857
1.98668
-0.024423
0.0241136
1.08862
-1.08911
1.09025
-0.125199
0.124053
-1.09211
1.09401
-0.220626
0.218727
-1.09594
1.09846
-0.323528
0.321005
-1.10104
1.10262
-0.432111
0.43053
-1.1029
1.10216
-0.582054
0.582793
-1.10071
1.09863
-0.752098
0.754173
-1.09588
1.09232
-0.916954
0.920518
-1.08776
1.082
-1.06985
1.07561
-1.07484
1.06606
-1.21092
1.21969
-1.05545
1.04276
-1.34189
1.35457
-1.02775
1.01015
-1.46454
1.48214
-0.989649
0.965926
-1.58017
1.60389
-0.93862
0.907333
-1.68941
1.7207
-0.871638
0.831077
-1.79198
1.83254
-0.785178
0.733472
-1.88635
1.93805
-0.675522
0.610982
-1.96937
2.03391
-0.539667
0.461673
-2.03583
2.11382
-0.377551
0.288667
-2.07811
2.167
-0.198941
0.125472
-2.09099
2.16446
-0.0237608
0.0233549
1.04961
-1.05049
1.05227
-0.122539
0.12075
-1.05486
1.05772
-0.216292
0.213431
-1.06105
1.0652
-0.317572
0.313425
-1.06957
1.07345
-0.427738
0.423857
-1.07676
1.07974
-0.581628
0.578643
-1.08259
1.08531
-0.753827
0.751107
-1.0878
1.08989
-0.921273
0.919182
-1.09139
1.09209
-1.07822
1.07752
-1.09178
1.09023
-1.22503
1.22658
-1.08722
1.08248
-1.36359
1.36833
-1.07574
1.0667
-1.49593
1.50498
-1.055
1.04025
-1.62381
1.63856
-1.02199
0.999684
-1.74846
1.77076
-0.972717
0.940379
-1.87028
1.90262
-0.901854
0.856219
-1.9884
2.03404
-0.802457
0.739493
-2.09973
2.16269
-0.666283
0.581996
-2.19752
2.28181
-0.486356
0.380487
-2.26945
2.37532
-0.270714
0.189072
-2.30766
2.3893
-0.0229139
0.0224261
1.01209
-1.01349
1.01578
-0.118655
0.116366
-1.01895
1.02266
-0.210065
0.206353
-1.02717
1.03265
-0.308484
0.303004
-1.0386
1.0446
-0.418792
0.412792
-1.05071
1.05714
-0.573799
0.567369
-1.064
1.07126
-0.745979
0.738718
-1.0788
1.08646
-0.914193
0.906539
-1.09404
1.10136
-1.07344
1.06612
-1.10821
1.11438
-1.22426
1.21809
-1.11967
1.12383
-1.36872
1.36456
-1.12662
1.12773
-1.5092
1.50808
-1.12686
1.1236
-1.64805
1.6513
-1.1175
1.108
-1.78747
1.79696
-1.09443
1.07594
-1.92932
1.94781
-1.05148
1.01976
-2.0747
2.10643
-0.979128
0.927563
-2.22296
2.27453
-0.862601
0.781396
-2.36933
2.45053
-0.680948
0.559362
-2.49979
2.62137
-0.423438
0.326326
-2.60585
2.70297
-0.0219137
0.0213632
0.976048
-0.977527
0.98018
-0.113833
0.11118
-0.983806
0.988203
-0.2022
0.197804
-0.993613
1.00011
-0.296865
0.290367
-1.00734
1.01511
-0.405725
0.397952
-1.02359
1.03297
-0.559242
0.549857
-1.04335
1.05468
-0.72918
0.717849
-1.06686
1.07973
-0.896029
0.883156
-1.09314
1.10691
-1.05534
1.04157
-1.12089
1.13489
-1.2078
1.1938
-1.14875
1.16229
-1.35557
1.34203
-1.17533
1.18767
-1.50131
1.48897
-1.19908
1.2093
-1.64795
1.63772
-1.21803
1.22489
-1.79868
1.79182
-1.22942
1.231
-1.95716
1.95558
-1.22884
1.22185
-2.12762
2.13461
-1.20855
1.18681
-2.31494
2.33668
-1.15361
1.10456
-2.52408
2.57313
-1.03307
0.92969
-2.75759
2.86097
-0.790842
0.711497
-3.04531
3.12466
-1.07831
2.11572
-1.03678
2.11281
-2.72527
0.612386
3.05593
-3.22317
0.162486
3.32096
-3.37207
0.0511087
3.40187
-3.41688
0.0159365
3.42556
-3.43522
0.00863926
3.44538
-3.45383
0.00844843
3.46664
-3.49084
0.0241856
3.5366
-3.60673
0.0766716
3.71861
-3.86567
0.147069
4.04491
-4.24935
0.197626
4.42982
-4.4994
0.0695836
4.30013
-3.63324
-0.666726
2.49844
-1.20752
-1.2889
0.0211989
1.03876
-1.05996
-1.96226
2.77408
-0.811821
-3.49127
4.1232
-0.63193
-4.67317
5.14161
-0.468438
-5.52932
5.83908
-0.309757
-6.07676
6.25056
-0.1738
-6.37017
6.44553
-0.0753613
-6.48629
6.50112
-0.0148298
-6.49575
6.47558
0.0201765
-6.44643
6.41117
0.0352536
-6.37191
6.33014
0.0417699
-6.28729
6.24456
0.0427298
-6.20277
6.1625
0.0402629
-6.1242
6.08812
0.0360779
-6.05441
6.02312
0.0312914
-5.99425
5.96778
0.0264617
-5.94369
5.92198
0.021707
-5.90285
5.8865
0.0163486
-5.87282
5.86097
0.0118499
-5.84958
5.83752
0.0120675
-5.82448
5.81089
0.0135853
-5.79743
5.78464
0.0127888
-5.7729
5.76236
0.0105344
-5.75316
5.74541
0.00775168
-5.73928
5.73493
0.00434858
-5.73263
5.7328
-0.000176769
-5.73567
5.74154
-0.00587107
-5.75018
5.76054
-0.0103665
-5.77056
5.77758
-0.00702609
-5.77966
5.77619
0.00346947
-5.76876
5.75933
0.00942626
-5.74945
5.74015
0.00929999
-5.73197
5.72541
0.00656052
-5.72098
5.71917
0.00181676
-5.72036
5.72451
-0.00414912
-5.73161
5.74119
-0.00957962
-5.75263
5.76564
-0.0130121
-5.77883
5.79113
-0.0122985
-5.7997
5.80306
-0.0033638
-5.80048
5.79306
0.00742809
-5.78365
5.77332
0.0103289
-5.76402
5.75542
0.008601
-5.74886
5.74467
0.00419566
-5.74329
5.74665
-0.00335981
-5.75012
5.75866
-0.00854118
-5.7642
5.77042
-0.00621423
-3.07582
3.88979
-0.818465
1.71354
-2.34299
-1.24881
1.87667
2.79127
-3.07661
-0.384785
0.670126
3.26892
-3.39791
-0.137201
0.266197
3.47793
-3.5239
-0.0444417
0.0904166
3.54932
-3.56288
-0.0174817
0.0310458
3.56935
-3.57117
-0.0101113
0.0119249
3.56915
-3.56277
-0.0239795
0.0175928
3.55201
-3.53719
-0.0856717
0.070855
3.51756
-3.49082
-0.172688
0.145951
3.45261
-3.40012
-0.240303
0.187816
3.33637
-3.25614
-0.0722638
-0.00796936
3.14353
-2.85917
1.07419
-1.35855
2.24486
-1.35347
2.34026
-3.23824
0.354233
0.608294
2.05778
-3.02031
-1.49794
2.30774
1.61869
-2.42849
-3.03734
3.68912
1.27058
-1.92236
-4.2639
4.76059
0.95003
-1.44672
-5.17833
5.5185
0.636167
-0.976345
-5.7853
5.98583
0.363258
-0.563795
-6.12943
6.22639
0.163373
-0.26033
-6.28719
6.32075
0.0398561
-0.0734125
-6.33582
6.33644
-0.0278515
0.0272359
-6.32787
6.31305
-0.0592963
0.0741168
-6.29417
6.27291
-0.0722997
0.0935556
-6.25068
6.22848
-0.074089
0.0962946
-6.20694
6.18647
-0.0693686
0.0898359
-6.16731
6.14958
-0.0616602
0.0793877
-6.1334
6.11876
-0.0529696
0.0676141
-6.10566
6.09415
-0.044199
0.055713
-6.08416
6.07565
-0.0356119
0.0441187
-6.06862
6.06312
-0.0262404
0.0317468
-6.0592
6.05649
-0.0182802
0.0209918
-6.05402
6.05072
-0.0188924
0.0221966
-6.04612
6.04059
-0.022246
0.0277713
-6.03478
6.02915
-0.0212106
0.0268332
-6.02405
6.01964
-0.0173386
0.0217479
-6.01602
6.01331
-0.0123948
0.0151018
-6.01168
6.01133
-0.00619848
0.00655365
-6.01249
6.01524
0.00196088
-0.0047071
-6.01977
6.02605
0.0120652
-0.0183371
-6.03392
6.04314
0.0201067
-0.029324
-6.05288
6.06147
0.015102
-0.0236888
-6.06685
6.06774
-0.00405156
0.00315778
-6.0648
6.05972
-0.0160861
0.0211727
-6.05393
6.0483
-0.0163689
0.0220074
-6.0433
6.03928
-0.011561
0.0155787
-6.03665
6.03588
-0.00305139
0.00381451
-6.03715
6.04063
0.00795849
-0.0114408
-6.04611
6.05316
0.0176096
-0.0246558
-6.06121
6.06982
0.0233253
-0.0319399
-6.07916
6.08878
0.0230701
-0.0326863
-6.09755
6.10339
0.00828507
-0.0141255
-6.10463
6.10144
-0.0120677
0.0152571
-6.09557
6.08913
-0.0181721
0.0246046
-6.0828
6.07703
-0.0155123
0.021287
-6.07177
6.06769
-0.00844157
0.0125143
-6.0656
6.06546
0.00408458
-0.00393762
-6.06817
6.07164
0.0132593
-0.0167306
-6.07602
6.079
0.0101229
-0.0131021
-4.54341
5.00846
-0.464346
1.16534
-1.66711
-2.45469
2.95646
1.90594
-1.27895
-1.01439
0.271725
0.760976
-0.521194
-0.24623
-1.69127e-11
0.434313
-0.434308
-0.0600276
0
0.502137
-0.563308
-0.0147908
-2.72491e-10
0.569913
-0.517757
-0.00424119
-3.06287e-12
0.438258
-0.421621
-0.00442668
0
0.430879
-0.464272
-0.0227946
-4.45543e-11
0.487057
-0.49701
-0.0384682
-3.84816e-13
0.495635
-0.487138
-0.0275959
-3.96348e-10
0.472497
-0.442822
0.0895636
-1.0693e-11
0.514426
-1.54418
1.20138
-0.607663
1.73158
-1.17845
3.97319
-4.40942
0.38999
0.437405
3.91418
-4.74158
-1.24533
2.0102
3.21507
-3.97994
-2.72034
3.36773
2.57042
-3.21781
-3.94722
4.4531
1.94569
-2.45157
-4.88134
5.23118
1.32042
-1.67025
-5.50674
5.71543
0.768417
-0.977101
-5.86769
5.97493
0.362321
-0.469559
-6.04841
6.09755
0.114594
-0.163727
-6.12928
6.14875
-0.0175952
-0.00187833
-6.15984
6.16513
-0.0792297
0.0739329
-6.16631
6.16468
-0.105155
0.106789
-6.1615
6.15771
-0.109257
0.113041
-6.15378
6.1499
-0.101832
0.105718
-6.14628
6.14302
-0.08962
0.0928776
-6.1402
6.13792
-0.0757812
0.0780607
-6.13623
6.13521
-0.0616744
0.0627011
-6.13493
6.1353
-0.0478978
0.0475244
-6.13619
6.13762
-0.033528
0.0321003
-6.13991
6.14315
-0.0205241
0.017283
-6.14659
6.14891
-0.0225264
0.0202056
-6.14937
6.14848
-0.0307396
0.0316309
-6.14707
6.14565
-0.0301436
0.0315666
-6.1445
6.14372
-0.0241852
0.0249605
-6.14336
6.14355
-0.0162295
0.0160487
-6.14444
6.14622
-0.00573154
0.00394801
-6.149
6.15289
0.00809038
-0.0119809
-6.15794
6.16403
0.0244926
-0.0305855
-6.171
6.17893
0.037852
-0.0457847
-6.1879
6.197
0.0325254
-0.0416208
-6.204
6.20679
-0.00123734
-0.00155107
-6.20563
6.20261
-0.0250583
0.0280847
-6.19915
6.19589
-0.0263611
0.0296161
-6.19304
6.19071
-0.0186978
0.0210331
-6.18921
6.18899
-0.00428556
0.00450767
-6.19027
6.19315
0.0145815
-0.0174608
-6.19754
6.20307
0.0308372
-0.0363688
-6.20902
6.21482
0.0390006
-0.0448008
-6.22096
6.22804
0.0409932
-0.0480727
-6.23577
6.24237
0.0203753
-0.0269758
-6.24543
6.24397
-0.0174489
0.0189066
-6.24
6.23579
-0.0298254
0.03404
-6.23193
6.22835
-0.0259247
0.0295104
-6.22457
6.22095
-0.0163203
0.0199371
-6.21838
6.21728
0.0032953
-0.0022009
-6.21821
6.22023
0.0194196
-0.0214389
-6.22319
6.22497
0.0153668
-0.0171405
-5.30097
5.44528
-0.143487
0.536006
-0.554739
-3.30858
3.29467
3.81504e-11
-2.46547e-11
4.19058e-19
-1.34956e-11
5.69282e-11
1.49358e-12
1.69127e-11
7.32372e-11
-7.85543e-29
-1.09098e-10
5.38048e-23
1.09098e-10
1.05885e-08
-1.066e-08
2.72491e-10
2.09751e-09
1.57359e-09
7.8774e-11
3.06287e-12
5.24004e-10
4.82059e-26
-5.71759e-09
7.43951e-24
5.71759e-09
1.25353e-08
-6.46863e-09
4.45543e-11
5.97401e-10
6.76358e-10
-3.65642e-09
3.84817e-13
4.04773e-10
7.7436e-09
-5.22916e-09
3.96348e-10
-1.05991e-09
2.36159e-10
1.30346e-11
1.0693e-11
1.9709e-12
-3.64122e-09
-0.0634681
0.227223
-0.0187431
0.555445
-0.68427
4.16102
-4.36395
0.105565
0.543123
5.47199
-6.12068
-1.21953
1.89569
4.69792
-5.37408
-2.54756
3.16112
3.84593
-4.45948
-3.72094
4.21553
2.9511
-3.44568
-4.63516
4.97721
2.01514
-2.35719
-5.2453
5.45013
1.18321
-1.38804
-5.60328
5.71715
0.579052
-0.692923
-5.80342
5.87063
0.220623
-0.287835
-5.92376
5.9665
0.0319473
-0.0746878
-6.00157
6.03091
-0.0572901
0.0279512
-6.05533
6.07555
-0.0978307
0.0776094
-6.09281
6.10795
-0.107412
0.092266
-6.12139
6.13333
-0.101541
0.0895985
-6.14404
6.15369
-0.0894564
0.0798045
-6.16253
6.17069
-0.0748683
0.0667025
-6.1784
6.18578
-0.0592564
0.0518746
-6.19308
6.20035
-0.0434743
0.0362028
-6.20736
6.21384
-0.0279496
0.021472
-6.22034
6.22766
-0.0117653
0.00444235
-6.23551
6.24227
-0.0155573
0.00880132
-6.24647
6.2488
-0.0307811
0.0284478
-6.25054
6.25216
-0.0313415
0.0297182
-6.2539
6.25578
-0.0242993
0.0224195
-6.25778
6.25997
-0.0147755
0.0125881
-6.26257
6.26577
-0.00139367
-0.00180193
-6.2696
6.27409
0.0161817
-0.0206686
-6.27925
6.28496
0.0364521
-0.0421607
-6.29078
6.29678
0.0527904
-0.0587904
-6.30394
6.31251
0.0505919
-0.0591576
-6.32069
6.32519
0.00511784
-0.00962148
-6.32519
6.32382
-0.0302957
0.0316625
-6.32244
6.32137
-0.0317585
0.0328302
-6.32053
6.31972
-0.0225821
0.0233965
-6.31915
6.31934
-0.00450473
0.0043166
-6.32058
6.32283
0.0200145
-0.022257
-6.32606
6.33024
0.0412033
-0.0453779
-6.33471
6.33832
0.0493499
-0.0529564
-6.34146
6.34543
0.0536641
-0.0576288
-6.35088
6.35718
0.0335979
-0.0398918
-6.36197
6.36226
-0.0195982
0.0193159
-6.36009
6.35809
-0.0371836
0.0391863
-6.35654
6.35519
-0.0319513
0.0333053
-6.35304
6.34989
-0.0233152
0.026471
-6.34196
6.29371
0.000646655
0.00103197
-6.18651
6.057
0.0225748
-1.92657e-18
-5.84255
5.14937
0.0185926
-5.95565e-18
-5.48325
5.42982
0.0549854
0.0868703
-0.000843034
-3.08736
2.95839
5.46089e-11
-1.5046e-10
-1.23647e-10
2.7666e-10
2.83654e-12
1.36471e-11
-1.45768e-10
3.03987e-10
1.25205e-07
-1.44889e-07
-4.89669e-08
9.68098e-08
7.75202e-08
5.48898e-10
-7.39968e-09
-4.13766e-10
-3.35353e-10
-7.03481e-07
-1.79539e-08
9.87183e-08
6.96824e-07
-9.94155e-07
-1.10348e-07
1.20179e-07
5.27253e-08
-5.09946e-08
-1.73812e-09
-2.56051e-16
1.00088e-07
-7.20659e-08
-2.27618e-09
8.34878e-09
3.12732e-08
-1.4764e-07
-3.07613e-10
9.645e-08
1.58644e-06
-1.80167e-08
-1.54532e-08
-1.88603e-06
-1.81081e-08
1.81081e-08
-2.54193e-19
1.90165e-20
0.17611
-0.185017
4.4806
-3.66413
-0.287361
0.800244
6.6881
-7.20099
-1.34698
1.91698
5.9906
-6.5606
-2.48984
3.04506
5.04049
-5.5957
-3.56503
4.02806
3.92263
-4.38566
-4.42075
4.73533
2.68493
-2.99951
-4.98177
5.17395
1.58552
-1.77771
-5.32807
5.45411
0.810266
-0.936303
-5.56286
5.65853
0.366621
-0.462284
-5.74269
5.81647
0.131252
-0.205031
-5.88123
5.93798
0.014541
-0.0712876
-5.988
6.03166
-0.0461055
0.00244135
-6.06959
6.10264
-0.0680765
0.0350327
-6.13142
6.15658
-0.0706868
0.0455204
-6.17881
6.19851
-0.064768
0.0450643
-6.21612
6.23196
-0.0543716
0.0385301
-6.24632
6.25945
-0.041334
0.0282093
-6.27164
6.28329
-0.0264371
0.0147876
-6.29444
6.30429
-0.0132186
0.00336117
-6.31269
6.32074
0.00385164
-0.0122723
-6.32978
6.33955
-0.000449092
-0.00848825
-6.34744
6.35239
-0.0248582
0.0199102
-6.35677
6.36064
-0.0269156
0.0230434
-6.36427
6.36782
-0.0195856
0.016034
-6.37133
6.37475
-0.00970271
0.00627837
-6.37258
6.34441
0.00548193
-0.0016565
-6.27174
6.1534
0.0252858
-6.40981e-17
-6.02049
5.831
0.0475612
-5.16236e-16
-5.36712
4.8162
0.0634798
-1.83582e-15
-4.80025
4.8273
0.06624
-3.57441e-15
-4.33696
2.01952
0.014596
-1.8954e-15
-0.595307
0.641787
-0.0316812
-1.5001e-15
-0.684261
0.668165
-0.0327971
-5.13868e-15
-0.507497
0.225468
-0.0234712
-2.28387e-14
-0.0297899
0.00179592
-0.0029266
-1.44751e-13
3.80268e-21
-4.15258e-33
4.55197e-15
-4.55197e-15
-1.97981e-33
6.2296e-31
3.97395e-14
-3.97395e-14
-1.62823e-31
3.05154e-31
5.33188e-14
-5.33188e-14
-1.64088e-31
3.79946e-31
4.03687e-14
-4.03687e-14
-1.31425e-32
2.71362e-32
3.30776e-15
-3.30776e-15
-5.29994e-20
5.67924e-07
-0.000212202
1.24561e-15
-7.36321e-20
-3.59242e-20
3.29597e-17
-3.20816e-17
1.8309e-20
-1.39189e-20
3.20924e-17
-3.19443e-17
-1.26294e-21
4.5221e-22
5.9848e-17
-5.98623e-17
-7.0357e-23
1.21389e-16
-4.3519e-17
-7.78736e-17
-3.08885e-16
8.49704e-16
1.93079e-18
-5.81348e-18
-1.57192e-15
1.77069e-15
5.95565e-18
-3.93444e-17
-5.31216
5.1462
0.165955
-0.176351
0.072
-2.86246
2.87786
6.09628e-11
-6.09628e-11
1.13688e-21
-4.69954e-21
1.07113e-10
-6.46951e-11
-1.22712e-09
4.91759e-10
1.15573e-10
-1.76153e-10
-2.97735e-08
3.00869e-08
6.43558e-10
5.87561e-08
-1.39367e-08
1.41357e-10
6.37878e-07
-1.14245e-06
-2.10596e-07
1.1226e-06
9.28826e-07
-5.2916e-08
-2.5858e-07
5.94837e-08
3.19815e-12
-6.811e-11
-4.6493e-14
5.74389e-11
3.63376e-11
-2.13987e-08
-2.92782e-09
2.29725e-08
2.01009e-05
-2.22261e-05
1.59548e-07
-9.18271e-06
2.80493e-06
-1.76716e-06
1.14773e-06
-2.98537e-06
-3.74508e-07
3.74508e-07
8.98897e-20
-5.22744e-20
0.028835
0.152379
3.21462
-3.18902
-0.644252
1.08129
7.66381
-8.10084
-1.53259
2.00712
7.07478
-7.5493
-2.49677
2.98505
6.11415
-6.60243
-3.44833
3.86241
4.82303
-5.23711
-4.20471
4.47144
3.29106
-3.55778
-4.67975
4.8213
1.9602
-2.10174
-4.46657
3.53651
1.07681
-0.293272
-2.60067
1.92465
0.552278
-1.54112e-15
-1.43148
1.05125
0.219473
-1.43434e-15
-0.770214
0.532282
0.0765805
-6.36932e-16
-0.265206
0.024358
0.0160467
-4.29237e-16
-0.000381651
-0.00045868
0.000840332
-8.43027e-17
-0.00373276
0.0110754
-0.0087581
-1.72195e-15
-0.0184495
0.0246829
-0.0109699
-2.70522e-15
-0.0268296
0.0268262
-0.00895439
-1.10756e-16
-0.0241411
0.0190533
-0.0051215
-1.13912e-16
-0.0117129
0.00250393
-0.000830933
-9.52097e-18
-0.000193556
4.02388e-15
0.000193556
-2.78305e-17
-4.01353e-15
3.97756e-15
1.35743e-17
-1.13448e-16
-3.99474e-15
3.984e-15
2.38937e-17
-2.58598e-16
-3.42092e-15
3.40193e-15
-6.3209e-16
-4.88177e-17
-3.42958e-15
3.46003e-15
-5.64219e-16
-1.70298e-16
-3.46039e-15
3.46954e-15
-4.7835e-16
-2.34268e-16
-3.52749e-15
3.98024e-15
4.97378e-18
-1.16154e-15
-3.26467e-15
4.26111e-15
6.89989e-18
3.653e-18
-8.99857e-15
1.9963e-14
8.12086e-17
-1.02898e-15
-4.10821e-14
7.70525e-14
5.33876e-16
-4.22902e-15
-1.31569e-13
2.04234e-13
1.85349e-15
-1.028e-14
-2.85074e-13
3.57393e-13
3.59231e-15
-1.47701e-14
-4.18262e-13
4.88535e-13
1.86628e-15
-6.33629e-15
-6.16892e-13
9.0245e-13
1.51795e-15
5.67554e-15
-1.52914e-12
2.82433e-12
5.16055e-15
2.33568e-14
-5.368e-12
1.03148e-11
2.28608e-14
1.34517e-13
-2.03601e-11
4.0753e-11
1.33353e-13
7.33399e-13
-7.58773e-11
1.15938e-10
3.3688e-14
3.13595e-13
-1.34418e-10
1.35356e-10
2.30193e-13
-1.29169e-12
-1.33439e-10
1.21507e-10
2.93954e-13
-2.0166e-12
-9.10071e-11
4.4545e-11
2.29127e-13
-1.24565e-12
-9.52025e-12
7.07327e-13
1.96473e-14
-1.65966e-14
-2.39038e-13
2.29585e-13
2.31188e-16
1.31472e-15
-2.26185e-13
2.20063e-13
-1.35901e-16
3.16465e-15
-2.0633e-13
1.80763e-13
-1.6304e-16
3.38386e-15
-1.49156e-13
1.32372e-13
-3.32771e-16
4.3885e-15
-1.29848e-13
1.28757e-13
-4.21115e-16
3.2972e-15
-1.23481e-13
1.0356e-13
-7.97378e-17
4.97823e-16
-6.5997e-14
2.28133e-14
5.95815e-17
5.60864e-18
-4.94057
4.69887
0.233934
-0.3488
0.21833
-2.98874
3.14238
2.11342e-10
-2.11342e-10
3.58132e-20
3.21189e-20
-4.67647e-10
4.67647e-10
2.34852e-27
-8.00067e-29
-2.86837e-07
3.32715e-07
-3.15817e-06
3.49126e-06
-5.27082e-08
-4.04626e-09
-1.72235e-09
-1.37202e-09
9.99233e-09
6.36217e-10
-2.59176e-07
5.06452e-10
-6.29308e-08
-5.57604e-05
-1.70241e-07
8.39475e-05
7.77885e-05
-2.16745e-07
-2.07043e-06
0.000157749
6.32015e-07
-6.66654e-06
-2.21379e-07
2.21739e-07
3.84751e-05
-3.55256e-05
1.22577e-05
-1.5351e-05
2.75418e-05
-5.40185e-07
1.99153e-05
-5.99367e-05
-6.7991e-22
7.84473e-21
-5.00101e-21
-3.08746e-24
5.31556e-22
0.509591
3.39682
-3.81954
-0.952579
1.32953
8.50636
-8.8833
-1.70907
2.10711
7.97785
-8.37589
-2.52129
2.94103
7.05228
-7.47202
-3.34112
3.68756
5.61516
-5.9616
-3.90117
2.77854
3.75537
-2.78054
-0.43505
4.35956e-15
0.43505
-2.6635e-15
-4.37537e-15
4.82323e-15
1.50568e-15
-2.11099e-15
-5.0974e-15
5.2948e-15
1.45619e-15
-1.91591e-15
-5.60175e-15
6.5468e-15
1.0736e-15
-1.58479e-15
-8.25095e-15
1.06914e-14
7.17404e-16
-1.91063e-15
-1.38057e-14
1.792e-14
4.64516e-16
-1.8163e-15
-2.34936e-14
3.09941e-14
2.05966e-16
-1.81721e-15
-3.98628e-14
5.01556e-14
3.62339e-16
-1.45539e-15
-6.17669e-14
7.46642e-14
2.92221e-16
-1.16713e-15
-8.91795e-14
1.06157e-13
1.77069e-16
-8.57292e-16
-1.27097e-13
1.54094e-13
1.4263e-16
-3.75489e-16
-1.90044e-13