/*--------------------------------*- C++ -*----------------------------------*\
| =========                 |                                                 |
| \\      /  F ield         | OpenFOAM: The Open Source CFD Toolbox           |
|  \\    /   O peration     | Version:  v1912                                 |
|   \\  /    A nd           | Website:  www.openfoam.com                      |
|    \\/     M anipulation  |                                                 |
\*---------------------------------------------------------------------------*/
FoamFile
{
    version     2.0;
    format      ascii;
    class       volScalarField;
    location    "12";
    object      alpha.water;
}
// * * * * * * * * * * * * * * * * * * * * * * * * * * * * * * * * * * * * * //

dimensions      [0 0 0 0 0 0 0];


internalField   nonuniform List<scalar> 
20320
(
1
1
1
1
1
1
1
1
1
1
1
1
1
1
1
1
1
1
1
1
1
1
1
1
1
1
1
1
1
1
0.999999
1
1
0.999999
1
1
1
1
1
1
1
1
1
1
1
1
1
1
1
1
1
1
1
0.999999
1
1
1
1
1
1
1
1
1
1
1
1
1
1
1
1
1
1
1
1
1
1
1
1
1
1
1
1
1
1
1
1
1
1
1
1
1
1
1
1
0.999999
1
1
1
1
1
1
1
1
1
1
1
1
1
1
1
1
1
1
1
0.999999
1
1
1
1
1
1
1
1
1
1
1
1
1
1
1
1
1
1
1
0.999999
1
1
1
1
1
1
1
1
1
1
1
1
1
1
1
1
1
1
1
1
1
1
1
1
1
1
1
1
1
1
1
1
1
1
1
1
1
1
1
1
1
1
1
1
1
1
1
1
1
1
1
1
1
1
1
1
1
1
1
1
1
1
1
1
1
1
1
1
1
1
1
1
1
1
1
1
1
1
0.999999
1
1
1
1
1
1
1
1
1
1
1
1
1
1
1
1
1
1
1
1
1
1
1
1
1
1
1
1
1
1
1
1
1
1
1
1
1
1
1
0.999999
0.999999
1
1
1
1
1
1
1
1
1
1
1
1
1
1
1
1
1
1
1
0.999999
1
1
1
1
1
1
1
1
1
1
1
1
1
1
1
1
1
1
1
1
0.999999
1
1
1
1
1
1
1
1
1
1
1
1
1
1
1
1
1
1
1
0.999999
1
1
1
1
1
1
1
1
1
1
1
1
1
1
1
1
0.999999
1
1
1
1
0.999999
1
1
1
1
1
1
1
1
1
1
1
1
1
1
0.999999
0.999999
1
1
1
0.999999
1
1
1
1
1
1
1
1
1
1
1
1
1
1
1
0.999999
1
0.999999
1
0.999999
1
1
1
1
1
1
1
1
1
1
1
1
1
1
1
1
0.999999
1
1
1
1
1
0.999168
0.997959
0.999737
1
0.999949
0.998945
1
0.999989
0.999231
0.998173
0.999655
1
0.99998
0.999504
1
1
1
1
1
1
1
1
1
1
1
1
1
1
1
1
1
1
1
1
1
1
1
1
1
1
1
1
1
1
1
1
1
1
1
1
1
1
1
1
1
1
1
1
1
1
0.998806
0.999552
1
1
1
1
1
1
1
1
1
1
1
0.998403
1
1
1
1
1
1
1
1
1
1
1
1
1
1
1
1
1
1
1
1
1
1
1
1
1
1
1
1
1
1
1
1
1
1
1
1
1
1
1
1
1
1
1
1
1
1
0.99759
1
0.583254
0.136777
0.089144
0.109301
0.111554
0.084979
0.0910539
0.103349
0.108632
0.11984
0.369377
0.996328
1
1
1
1
1
1
1
1
1
1
1
1
1
1
1
1
1
1
1
1
1
1
1
1
1
1
1
1
1
1
1
1
1
1
1
1
1
1
1
1
1
1
1
1
1
1
0.997588
0.969435
2.88628e-29
3.14447e-11
9.01412e-29
4.31067e-09
1.41372e-10
-9.36319e-27
4.47444e-09
2.45151e-10
2.4022e-09
5.54354e-12
0.0388686
0.810506
1
1
1
1
1
1
1
1
1
1
1
1
1
1
1
1
1
1
1
1
1
1
1
1
1
1
1
1
1
1
1
1
1
1
1
1
1
1
1
1
1
1
1
0.995861
0.967261
0.884319
0.999958
0.858797
9.765e-11
6.32911e-11
8.41093e-08
2.10857e-09
1.17541e-07
3.59683e-07
6.68779e-14
2.60882e-08
1.79412e-08
6.01132e-07
1.06397e-19
0.652395
1
1
1
1
1
1
1
1
1
1
1
1
1
1
1
1
1
1
0.999944
0.999876
1
1
1
1
0.997347
0.976948
0.941479
0.810276
0.787529
0.563819
0.114506
0.119069
0.0645169
0.00127534
-6.44662e-34
-1.81311e-32
1.04695e-31
1.48223e-33
6.16279e-34
2.37652e-06
-4.53155e-21
-3.56921e-21
2.87863e-22
3.48718e-23
8.97016e-17
2.82107e-16
1
0.798283
3.10699e-22
2.95251e-10
2.41905e-10
2.71276e-10
8.67757e-07
4.65011e-08
6.68779e-14
2.40642e-11
1.13754e-05
3.93561e-07
5.52725e-21
0.49009
1
1
1
1
1
1
0.837551
0.524024
0.301853
0.16308
0.0307848
9.82334e-16
0.0017861
0.00472062
0.00574754
0.00453669
0.00139023
6.25508e-16
6.20457e-16
6.21431e-16
6.2547e-16
6.25506e-16
6.25503e-16
6.25505e-16
6.38405e-16
2.22224e-15
9.05446e-15
2.5994e-14
5.01995e-14
7.02229e-14
1.16765e-13
3.31885e-13
1.19225e-12
4.70628e-12
1.5494e-11
2.18615e-11
2.06984e-11
1.1011e-11
6.0627e-13
3.86657e-14
3.67431e-14
3.19832e-14
2.29829e-14
2.15855e-14
1.90648e-14
7.31939e-15
0.999316
0.852389
-1.05383e-20
-5.08497e-29
1.4571e-06
3.73947e-09
1.88894e-08
1.26878e-05
5.42526e-05
3.67505e-07
2.0015e-05
1.66269e-05
-6.96423e-22
0.517366
1
1
1
1
0.907435
9.70491e-16
9.71842e-16
9.72754e-16
1.07108e-15
1.59841e-15
2.59081e-15
4.39528e-15
7.17572e-15
1.08209e-14
1.54347e-14
2.21677e-14
3.38232e-14
5.64098e-14
9.56976e-14
1.50177e-13
2.20375e-13
3.29039e-13
5.06305e-13
7.45563e-13
1.14406e-12
1.93027e-12
3.21115e-12
4.66999e-12
5.50815e-12
5.75099e-12
6.64681e-12
1.12514e-11
2.81828e-11
9.28471e-11
2.40609e-10
2.59454e-10
1.7686e-10
2.07608e-11
4.71371e-13
4.26539e-13
3.82671e-13
2.68321e-13
1.11158e-13
1.68883e-14
1.437e-15
1.29586e-15
0.997958
0.903102
4.63344e-20
-1.07212e-28
1.46347e-06
1.56016e-08
6.28168e-26
5.41407e-05
8.99008e-05
1.10071e-11
2.00038e-05
1.00479e-05
5.09202e-08
0.584655
1
1
1
1
9.70019e-16
1.08093e-15
3.94346e-15
1.56666e-14
3.83893e-14
7.09292e-14
1.09257e-13
1.58843e-13
2.24056e-13
3.06775e-13
4.12183e-13
5.49084e-13
7.40795e-13
1.04553e-12
1.53294e-12
2.23138e-12
3.16468e-12
4.49191e-12
6.40457e-12
8.90672e-12
1.24456e-11
1.74559e-11
2.29416e-11
2.76952e-11
3.20672e-11
3.79139e-11
5.15508e-11
1.068e-10
3.89338e-10
6.58884e-10
6.08104e-10
2.13893e-10
3.81755e-12
9.04041e-13
8.60356e-13
6.95008e-13
3.69066e-13
6.59186e-14
5.95219e-15
5.31081e-15
5.61075e-15
7.54667e-15
1
0.993716
0.00847701
3.72974e-10
1.15149e-07
3.90173e-09
9.12788e-08
1.31101e-07
7.38167e-05
1.02591e-08
4.98852e-06
2.94508e-07
5.60476e-07
0.721495
1
1
1
0.444343
9.70344e-16
8.95607e-15
4.69885e-14
1.30425e-13
2.53568e-13
4.10095e-13
6.00134e-13
8.34713e-13
1.13651e-12
1.525e-12
2.02662e-12
2.68891e-12
3.59463e-12
4.88775e-12
6.72462e-12
9.17512e-12
1.22663e-11
1.61007e-11
2.06596e-11
2.56059e-11
3.06893e-11
3.60395e-11
4.27301e-11
5.30976e-11
7.23164e-11
1.26953e-10
3.56457e-10
6.39664e-10
6.34151e-10
3.93517e-10
3.71714e-11
7.8701e-13
7.26062e-13
6.57097e-13
3.97902e-13
8.37983e-14
1.13923e-14
1.01216e-14
1.04316e-14
1.40095e-14
4.58825e-14
9.64431e-13
0.99895
1
0.273123
1.14576e-21
2.19153e-06
8.12594e-08
2.66877e-10
5.41884e-14
-3.73643e-24
3.07306e-06
3.59364e-07
2.4618e-05
6.10331e-24
0.853924
1
1
1
0.0262
4.61958e-15
5.92337e-14
1.92684e-13
3.91388e-13
6.35453e-13
9.2268e-13
1.27942e-12
1.74358e-12
2.35605e-12
3.15832e-12
4.19281e-12
5.52186e-12
7.23379e-12
9.4072e-12
1.20721e-11
1.52327e-11
1.88728e-11
2.28079e-11
2.66302e-11
3.02623e-11
3.45448e-11
4.14594e-11
5.53777e-11
8.62995e-11
1.39307e-10
1.84593e-10
1.9138e-10
1.52418e-10
4.80436e-11
1.04342e-12
1.00303e-13
1.04253e-13
8.58826e-14
3.1355e-14
1.13468e-14
1.09858e-14
1.22647e-14
2.7785e-14
3.37511e-13
1.57007e-12
1.44262e-12
7.81572e-13
0.999584
1
0.644919
0.00076367
9.08403e-24
1.68169e-24
5.12662e-07
5.70861e-05
0.000147165
3.12315e-05
1.41618e-08
4.8706e-05
3.80038e-24
0.955321
1
1
1
1.82558e-15
2.61636e-14
1.6406e-13
3.74771e-13
5.89863e-13
8.24724e-13
1.12122e-12
1.52596e-12
2.08546e-12
2.84496e-12
3.83886e-12
5.08912e-12
6.5949e-12
8.27675e-12
1.00354e-11
1.17938e-11
1.33789e-11
1.42331e-11
1.44874e-11
1.48718e-11
1.629e-11
2.08682e-11
3.06202e-11
3.45919e-11
3.39403e-11
2.73512e-11
1.23608e-11
1.96129e-12
7.38924e-14
4.08813e-15
3.83723e-15
3.6902e-15
3.54859e-15
4.26117e-15
6.84314e-15
1.23195e-14
4.27476e-14
4.42909e-13
3.15394e-12
2.78319e-12
1.17861e-13
4.12965e-08
2.85527e-08
0.999618
0.997216
0.90647
0.353921
9.00013e-21
2.01997e-06
-3.02607e-24
1.50526e-22
0.000138732
3.68192e-07
2.04014e-24
3.59853e-05
-2.74139e-20
0.997735
1
1
0.600777
1.82692e-15
7.35951e-14
2.66451e-13
4.40334e-13
5.89292e-13
7.23979e-13
9.04364e-13
1.18122e-12
1.58734e-12
2.11795e-12
2.73671e-12
3.40122e-12
4.05471e-12
4.59474e-12
4.71941e-12
4.50921e-12
3.46905e-12
2.31041e-12
2.24448e-12
2.66084e-12
3.38571e-12
3.31485e-12
2.41277e-12
6.64338e-13
3.09441e-14
1.57533e-15
4.45809e-16
4.39065e-16
6.61614e-16
1.36091e-15
2.83737e-15
6.35588e-15
1.5564e-14
6.04108e-14
3.05034e-13
1.49213e-12
7.88616e-12
9.47028e-12
8.3927e-13
3.74925e-09
2.10947e-07
1.05414e-07
7.33149e-12
0.999916
0.998863
0.998637
0.624888
-9.71903e-21
0.000671677
1.59711e-05
8.23834e-09
2.18793e-23
6.56689e-33
5.07644e-06
3.08061e-05
6.2817e-19
1
1
1
0.243066
7.30432e-15
1.28661e-13
3.0189e-13
3.74774e-13
4.04047e-13
4.16804e-13
4.40976e-13
5.14082e-13
6.39112e-13
7.73296e-13
8.53523e-13
8.45324e-13
7.08812e-13
4.80923e-13
2.24561e-13
6.07232e-14
4.23337e-14
4.93197e-14
5.69953e-14
4.98533e-14
2.07637e-14
8.48338e-16
7.38959e-17
9.459e-17
4.33531e-16
2.11149e-15
8.05282e-15
2.44755e-14
6.10311e-14
1.48603e-13
5.68647e-13
2.19884e-12
4.13585e-12
4.19194e-12
9.10721e-12
2.09569e-11
7.46797e-12
2.60042e-16
2.14041e-07
2.35994e-07
3.58948e-09
6.92771e-12
7.66681e-12
1
0.999607
0.996332
0.96423
0.788978
9.29152e-20
7.80746e-05
0.0001859
3.91117e-10
2.13186e-06
3.6979e-05
2.10432e-05
0.256539
1
1
1
0.0476133
1.7847e-14
1.71349e-13
2.65459e-13
2.66765e-13
2.1545e-13
1.3621e-13
9.16794e-14
7.95912e-14
7.46547e-14
6.11327e-14
3.56971e-14
1.08373e-14
9.34933e-16
6.3912e-17
3.23528e-17
4.94914e-17
6.8418e-17
5.35124e-17
1.65158e-17
1.85585e-17
1.31244e-16
1.38066e-15
1.02607e-14
5.49371e-14
2.14526e-13
6.10182e-13
1.24426e-12
2.30893e-12
7.47028e-12
1.21406e-11
8.43549e-12
5.83768e-12
1.67287e-10
5.58619e-10
2.32128e-10
2.60042e-16
1.4343e-07
2.97507e-07
4.50145e-08
7.94723e-12
8.40036e-12
9.18899e-12
1.31239e-11
1
0.999993
0.999981
0.976241
0.786103
0.877064
0.31539
1.20475e-09
1.94475e-06
2.02489e-06
2.88449e-05
4.8236e-06
0.61424
1
1
1
0.00180551
3.59978e-14
1.84271e-13
2.0798e-13
1.63301e-13
6.74466e-14
1.68179e-14
5.41551e-15
2.74232e-15
1.23672e-15
2.17063e-16
2.19488e-18
3.14686e-21
2.47474e-21
2.16802e-21
3.1e-21
3.6812e-20
1.18032e-18
3.40954e-17
6.93579e-16
9.38772e-15
8.47945e-14
5.19806e-13
2.21807e-12
6.79783e-12
1.46118e-11
2.0614e-11
2.47209e-11
2.66897e-11
1.08005e-11
8.06806e-12
5.28581e-09
7.00866e-09
1.21087e-09
4.03092e-27
5.61491e-08
3.53752e-07
1.77064e-07
9.14922e-12
9.25167e-12
8.66172e-12
7.20423e-12
7.76394e-12
6.236e-12
0.999995
0.999998
0.999906
0.946308
0.968252
0.552052
0.23692
0.10453
0.0322499
2.82219e-07
8.76559e-24
1.92904e-22
0.887599
1
1
1
-6.63671e-20
5.78972e-14
1.67522e-13
1.57071e-13
7.35711e-14
1.02925e-14
5.59164e-16
5.7513e-17
9.10516e-18
2.90067e-19
2.89894e-21
2.55832e-21
1.49335e-21
5.78337e-22
6.90326e-21
3.36555e-19
1.23577e-17
3.25807e-16
5.88662e-15
7.24615e-14
6.1537e-13
3.62636e-12
1.48062e-11
4.23306e-11
8.49098e-11
1.06658e-10
9.98352e-11
5.50372e-11
1.45567e-10
5.62173e-09
5.87524e-09
6.67324e-10
1.0017e-10
2.37953e-07
4.81999e-07
1.53364e-07
1.11579e-09
9.69117e-12
1.04191e-11
6.07334e-12
3.47957e-12
2.79785e-12
9.14438e-13
2.80644e-14
0.999993
0.999975
0.996671
0.997311
0.687214
0.658382
0.909942
0.427153
0.0144069
-3.08138e-21
0.000167328
-2.36165e-23
0.992592
1
1
0.701885
-5.17537e-20
7.63184e-14
1.40784e-13
1.05539e-13
2.27981e-14
6.59976e-16
3.33129e-18
1.27853e-19
1.93642e-20
1.67609e-21
2.00115e-22
1.15094e-23
3.07592e-23
3.87371e-21
2.52682e-19
9.67036e-18
2.37291e-16
4.0023e-15
4.95927e-14
4.63901e-13
3.23766e-12
1.62281e-11
5.60092e-11
1.29675e-10
2.06337e-10
2.86642e-10
3.95599e-10
8.67417e-10
2.05767e-09
3.45384e-10
5.13562e-08
7.49274e-07
7.50699e-07
1.29423e-07
1.02319e-11
1.01784e-11
1.23195e-11
8.8669e-12
2.13567e-12
9.73233e-13
4.89549e-13
3.69517e-14
1.51887e-16
6.13013e-20
0.000955102
0.997872
0.991926
0.884744
0.80509
0.870524
-6.81611e-20
-6.26282e-35
3.76465e-09
1.54472e-08
0.000145219
-4.31563e-19
1
1
1
0.365691
3.29098e-15
8.63714e-14
1.15431e-13
6.0539e-14
4.5983e-15
1.71377e-17
1.00808e-19
6.04283e-20
1.01149e-20
7.09463e-23
6.01093e-27
1.06718e-26
1.37736e-23
3.20305e-21
2.4274e-19
8.71143e-18
1.94498e-16
3.19355e-15
4.12618e-14
4.18274e-13
3.1404e-12
1.58598e-11
5.05729e-11
1.18575e-10
2.56751e-10
7.70044e-10
9.34682e-10
6.16047e-10
5.03969e-10
3.77657e-07
3.92716e-07
3.02702e-08
1.14169e-11
1.24695e-11
1.62739e-11
1.28865e-11
4.05863e-12
2.43834e-13
1.18695e-13
3.94875e-14
5.52929e-16
2.83442e-19
1.18384e-22
7.38362e-23
0.000168408
0.134102
0.502095
0.889715
0.764637
7.87926e-12
1.25646e-10
-5.027e-33
1.12411e-23
0.000183842
3.55348e-25
0.323465
1
1
1
0.113484
7.42183e-15
8.70627e-14
9.13715e-14
2.87088e-14
5.84168e-16
2.12561e-19
3.76108e-20
2.44622e-20
1.15078e-21
2.46153e-25
5.23881e-33
2.95241e-29
1.09279e-25
4.23243e-23
5.21211e-21
3.08623e-19
1.04832e-17
2.53974e-16
5.02723e-15
7.92707e-14
8.81061e-13
5.97943e-12
2.21143e-11
5.37489e-11
1.53754e-10
5.04501e-10
1.04554e-09
2.63365e-09
8.89958e-09
1.29723e-11
1.29723e-11
1.80712e-11
2.0523e-11
1.69281e-11
7.22501e-12
6.28523e-13
5.10547e-15
3.41517e-15
1.05501e-15
4.83564e-18
5.35851e-22
2.86052e-26
1.12613e-25
5.61438e-27
0.00107645
0.0215705
0.140591
8.75024e-21
-1.98452e-31
6.29296e-12
5.36998e-12
8.30313e-05
0.000203626
6.70112e-06
2.38325e-12
0.719481
1
1
1
0.00995159
1.52987e-14
7.95191e-14
6.77901e-14
1.08931e-14
4.6244e-17
7.6168e-21
1.10954e-20
6.2385e-21
7.1744e-23
4.05908e-28
7.9574e-37
5.74758e-33
1.83551e-29
1.73603e-26
4.30898e-24
3.80581e-22
2.20632e-20
1.18395e-18
5.94336e-17
2.37144e-15
6.23357e-14
8.95331e-13
6.05097e-12
1.88772e-11
3.60367e-11
6.61318e-11
1.30075e-10
9.14185e-11
2.72211e-11
2.73013e-11
2.39496e-11
1.78976e-11
7.77266e-12
1.06297e-12
1.80682e-14
1.9143e-17
1.18587e-17
4.53535e-18
1.87259e-20
1.37405e-24
3.34393e-29
1.96606e-31
2.43724e-30
3.29465e-33
0.00453021
4.14801e-23
7.41171e-05
1.1123e-05
3.23598e-14
2.228e-31
-9.46956e-24
7.58214e-05
3.48853e-05
3.5867e-07
-2.23338e-24
0.963767
1
1
1
5.85434e-19
2.35257e-14
6.76662e-14
4.59018e-14
3.20862e-15
2.2806e-18
1.41144e-21
2.69977e-21
1.04639e-21
2.56146e-24
3.07128e-31
1.9975e-39
1.9645e-36
3.47862e-33
1.17447e-27
4.26422e-26
8.0261e-26
1.70343e-24
1.71318e-22
2.24003e-20
3.04692e-18
2.86937e-16
1.3073e-14
2.48039e-13
1.90359e-12
6.1896e-12
1.11165e-11
1.47873e-11
1.67758e-11
1.51273e-11
9.04384e-12
3.36388e-12
5.0519e-13
1.63514e-14
6.05113e-17
2.6866e-20
2.09843e-21
2.19231e-21
1.61744e-23
3.27548e-27
9.56084e-32
2.34945e-36
3.80353e-36
1.35984e-36
4.66299e-40
0.00277617
0.000641033
0.000824612
-8.62833e-25
8.79933e-06
0.000220158
0.000220158
1.02874e-07
1.12995e-07
2.99256e-05
-1.97749e-24
1
1
1
0.766826
-2.04507e-20
3.00109e-14
5.52587e-14
2.77605e-14
7.17093e-16
1.03888e-19
3.13967e-22
5.16987e-22
1.14733e-22
4.57924e-26
1.22473e-34
9.69985e-43
5.46785e-40
2.81975e-37
2.93239e-29
1.76004e-27
8.90594e-28
3.15636e-29
1.60542e-27
3.37651e-25
7.77166e-23
1.39937e-20
1.45441e-18
8.57555e-17
2.65463e-15
3.09813e-14
1.32304e-13
2.57949e-13
2.50718e-13
1.06501e-13
1.91177e-14
1.03813e-15
1.21876e-17
2.69062e-20
1.15267e-23
2.43217e-27
1.38409e-25
2.41246e-27
2.51539e-30
2.67878e-34
5.96255e-39
1.54311e-43
3.0007e-42
2.84634e-43
5.56137e-47
0.00251007
0.00243926
0.000214111
0.000785148
5.2922e-05
7.85077e-05
1.07629e-22
2.35753e-07
6.34107e-05
2.70813e-06
0.249132
1
1
1
0.39424
1.10919e-15
3.31446e-14
4.40414e-14
1.44981e-14
1.19873e-16
1.27695e-19
4.13828e-22
7.00439e-23
7.22817e-24
3.8667e-28
1.05454e-43
4.22673e-45
4.53101e-44
9.89988e-41
6.92026e-33
2.99786e-30
4.04247e-30
1.01934e-31
8.69183e-30
2.28698e-27
9.05537e-27
3.62671e-26
2.82076e-24
2.05566e-22
1.13698e-20
3.08262e-19
2.47476e-18
5.49949e-18
3.51717e-18
7.14831e-19
4.18062e-20
5.90659e-22
2.19932e-24
2.39601e-27
8.41222e-31
2.87981e-32
1.04934e-31
4.26038e-34
2.72537e-37
1.93805e-41
3.63374e-46
9.7696e-51
8.33033e-49
4.38625e-50
-1.63889e-51
0.00165097
0.000705543
0.000740092
0.0006619
3.10376e-06
0.000130225
7.3759e-29
5.06687e-06
0.000516245
4.14666e-24
0.735887
1
1
1
0.109127
2.42763e-15
3.21771e-14
3.33502e-14
6.37368e-15
1.52846e-17
2.66204e-19
3.40101e-21
4.73792e-24
1.80183e-25
1.53564e-30
1.90581e-41
1.13765e-50
1.33422e-48
7.59509e-46
3.41377e-38
8.80036e-35
4.18703e-34
6.10826e-35
9.99879e-34
8.71054e-30
8.92946e-29
6.30036e-29
3.87031e-30
7.00888e-29
3.09182e-27
7.42902e-26
5.52766e-25
1.09812e-24
6.16179e-25
1.02372e-25
4.38565e-27
4.98797e-29
1.69292e-31
1.57392e-34
4.98885e-38
3.20012e-38
1.64945e-38
4.94843e-41
2.10366e-44
1.00352e-48
1.28378e-53
-3.53458e-52
-6.10562e-52
-1.76244e-51
-3.64369e-51
0.00708915
-5.35301e-23
4.02334e-05
1.53294e-06
0.000137391
1.53922e-05
4.70342e-23
0.000835493
7.67415e-05
-3.06153e-20
0.985967
1
1
1
0.00497956
5.02754e-15
2.83579e-14
2.34822e-14
2.2861e-15
1.78399e-18
2.91185e-19
5.74456e-21
1.46031e-25
1.20708e-27
1.34116e-33
8.58984e-47
2.95869e-52
1.08316e-53
1.49358e-51
1.23271e-43
5.0003e-40
2.302e-39
6.43173e-40
2.3376e-41
4.55499e-35
2.60239e-32
9.31446e-32
1.16048e-32
3.2799e-35
4.78038e-34
9.30466e-33
5.78644e-32
1.04414e-31
5.57969e-32
8.47364e-33
3.35987e-34
3.53217e-36
1.04746e-38
8.52499e-42
2.37252e-45
5.8113e-45
1.74537e-45
4.2706e-48
1.26648e-51
-1.46314e-54
-9.91647e-53
-4.44247e-52
-9.61996e-52
-1.61577e-51
-1.91341e-51
0.00708915
7.37258e-31
0
9.89156e-07
1.32815e-05
-1.16226e-25
0.000803934
0.000835531
-5.7622e-24
2.26831e-18
1
1
1
1
-6.19251e-20
7.38916e-15
2.29061e-14
1.49311e-14
6.60399e-16
3.57308e-19
1.8026e-19
5.93704e-21
1.9713e-26
1.50264e-30
9.86953e-45
1.04589e-46
-2.44787e-51
-8.54798e-53
4.98145e-57
6.29411e-49
1.80684e-45
7.50494e-45
1.98662e-45
2.77352e-47
3.04022e-42
4.2935e-38
1.1873e-36
1.44629e-36
1.66607e-36
1.05586e-37
9.36692e-40
4.9069e-39
8.1727e-39
3.97184e-39
5.42941e-40
1.99928e-41
1.90831e-43
4.85575e-46
3.54927e-49
9.61077e-53
6.72762e-52
1.36255e-52
2.69048e-55
-2.39439e-55
-7.24673e-54
-6.83923e-53
-2.5405e-52
-4.97278e-52
-6.68121e-52
-6.3125e-52
0.00708658
7.6378e-29
-3.69188e-42
0.000105711
-9.54973e-24
6.79146e-05
0.000835493
0.000280398
0
0.57795
1
1
1
0.544671
1.34832e-20
8.73417e-15
1.75551e-14
8.38396e-15
1.63834e-16
2.37432e-19
6.05177e-20
1.95051e-21
1.35763e-26
5.24309e-33
8.73708e-37
1.69856e-47
-4.79176e-51
-2.0392e-52
-7.51237e-54
2.11154e-54
4.8966e-51
2.00042e-50
5.65342e-51
4.97697e-53
1.94505e-48
1.32629e-44
4.26302e-43
1.9611e-40
4.94806e-39
2.477e-39
1.46479e-42
3.66521e-46
5.23635e-46
2.25198e-46
2.76564e-47
9.27201e-49
7.93947e-51
1.74997e-53
1.14514e-56
4.09937e-60
5.58479e-59
1.21238e-74
-7.02449e-57
-2.31168e-55
-3.76691e-54
-2.8854e-53
-9.42981e-53
-1.6279e-52
-1.87568e-52
-1.51695e-52
0.00461621
2.92524e-07
0.000140097
0.000125758
-9.8853e-42
0.000414829
0.000835454
0.000301688
-1.84512e-23
0.951879
1
1
1
0.164401
4.03897e-16
8.86107e-15
1.29134e-14
4.02627e-15
4.66917e-17
4.21543e-19
1.38099e-20
2.76645e-22
7.15206e-28
3.81339e-35
6.12611e-39
4.17393e-50
-6.68119e-51
-2.95868e-52
-1.23537e-53
-3.88367e-55
7.48883e-57
4.41324e-56
1.38526e-56
9.80009e-59
1.48881e-54
6.10516e-51
1.67828e-49
2.33495e-46
4.72159e-44
2.3715e-43
1.27705e-45
2.35453e-53
2.78872e-53
1.0398e-53
1.13502e-54
3.41725e-56
2.53646e-58
5.00531e-61
1.00826e-65
-4.73177e-62
-2.51192e-60
-1.21692e-58
-4.068e-57
-9.27885e-56
-1.29182e-54
-8.64986e-54
-2.51695e-53
-3.86391e-53
-3.93134e-53
-2.80532e-53
3.18826e-23
3.29563e-08
0.000305514
-3.51868e-24
-5.02422e-26
3.23603e-05
5.14215e-05
0.000309137
9.02955e-19
1
1
1
1
0.00757628
8.43049e-16
7.87699e-15
8.96874e-15
1.62177e-15
2.11434e-17
7.05362e-19
2.18563e-21
2.1175e-23
2.17751e-29
7.6499e-38
2.99412e-41
-1.64055e-49
-7.52971e-51
-3.37491e-52
-1.46523e-53
-6.11763e-55
-1.95708e-56
-4.28245e-58
-1.13262e-59
-9.07588e-61
6.42075e-61
2.80027e-57
7.04496e-56
3.03616e-53
1.71006e-50
2.60179e-49
2.52997e-51
1.32277e-60
1.25697e-60
4.01649e-61
3.77385e-62
9.93855e-64
6.48898e-66
-6.99648e-66
-5.84267e-64
-2.85408e-62
-1.1942e-60
-4.30398e-59
-1.23548e-57
-2.56523e-56
-3.2346e-55
-1.94079e-54
-5.08437e-54
-7.02277e-54
-6.4175e-54
-4.11063e-54
3.85164e-06
0.000288419
-2.49005e-23
-8.2564e-26
0.000131107
2.61317e-07
0.000640922
9.10902e-06
0.669329
1
1
1
1
1.39704e-19
1.2353e-15
6.2917e-15
5.74486e-15
5.35233e-16
1.16254e-17
7.49297e-19
2.66589e-22
8.42649e-25
2.32359e-31
4.26638e-40
-7.80048e-63
-1.51666e-49
-7.0722e-51
-3.19484e-52
-1.41636e-53
-6.24535e-55
-2.64352e-56
-1.04347e-57
-4.24608e-59
-2.26641e-60
-1.12947e-61
6.98404e-64
2.61892e-62
4.24974e-60
5.36358e-57
7.51391e-56
4.7179e-58
6.57995e-68
4.84328e-68
1.29942e-68
1.01959e-69
2.34549e-86
-4.17546e-68
-3.0237e-66
-1.55998e-64
-7.05732e-63
-2.83397e-61
-9.73828e-60
-2.67717e-58
-5.26905e-57
-6.15093e-56
-3.36114e-55
-8.01469e-55
-1.00652e-54
-8.35583e-55
-4.85905e-55
1.21665e-05
5.42684e-06
7.57607e-26
1.31476e-05
3.12813e-09
1.03026e-06
0.000208723
5.89135e-25
0.999299
1
1
1
0.448284
1.95436e-21
1.42877e-15
4.54442e-15
3.31436e-15
1.41819e-16
6.29595e-18
3.97343e-19
2.83707e-23
1.53716e-26
1.32457e-33
5.15696e-58
-2.78982e-48
-1.21021e-49
-5.61386e-51
-2.54998e-52
-1.1461e-53
-5.17212e-55
-2.34237e-56
-1.0541e-57
-4.82286e-59
-2.42077e-60
-1.24244e-61
-5.29129e-63
-1.53305e-64
4.82938e-67
1.51987e-63
1.54372e-62
7.29269e-65
-4.03761e-71
-2.45422e-72
-1.30209e-73
-1.23428e-72
-1.24467e-70
-8.5697e-69
-4.94377e-67
-2.53482e-65
-1.16483e-63
-4.71783e-62
-1.61742e-60
-4.37755e-59
-8.30502e-58
-9.11011e-57
-4.59297e-56
-1.00638e-55
-1.15918e-55
-8.8132e-56
-4.6902e-56
1.75822e-14
3.21809e-08
3.84256e-07
4.29813e-07
0.00262495
0.000981288
-8.07342e-24
0.314852
1
1
1
1
0.0805026
6.88184e-17
1.43627e-15
3.03627e-15
1.67522e-15
2.96678e-17
3.20213e-18
1.84384e-19
2.90142e-24
1.01324e-28
3.46764e-38
9.1801e-60
-1.84032e-48
-8.28569e-50
-3.79227e-51
-1.72666e-52
-7.83322e-54
-3.58523e-55
-1.66625e-56
-7.8535e-58
-3.77063e-59
-1.88556e-60
-9.62072e-62
-4.77121e-63
-2.23636e-64
-9.59569e-66
-2.06014e-67
2.53503e-69
-4.7207e-69
-5.45702e-71
-3.17972e-72
-1.75676e-73
-1.8401e-73
-1.36379e-71
-9.18694e-70
-5.50663e-68
-2.96001e-66
-1.41691e-64
-5.90598e-63
-2.05451e-61
-5.54491e-60
-1.02605e-58
-1.07045e-57
-5.03206e-57
-1.0213e-56
-1.08654e-56
-7.61474e-57
-3.72949e-57
4.44315e-07
7.48263e-08
8.2013e-08
0.00252974
0.00173029
0.000158798
-1.04077e-24
0.941334
1
1
1
1
-5.7811e-20
1.32796e-16
1.25888e-15
1.91498e-15
7.17496e-16
5.07372e-18
1.44162e-18
7.26319e-20
4.53818e-25
2.00803e-32
3.97638e-39
-1.47414e-47
-1.04903e-48
-4.84011e-50
-2.18801e-51
-9.95836e-53
-4.54275e-54
-2.09791e-55
-9.88054e-57
-4.75413e-58
-2.33576e-59
-1.17695e-60
-6.02691e-62
-3.08107e-63
-1.55301e-64
-7.58604e-66
-3.2751e-67
-1.09546e-68
-1.85819e-69
-3.72323e-71
-1.88112e-72
-9.18269e-74
-1.64381e-74
-9.91896e-73
-7.13972e-71
-4.5832e-69
-2.62215e-67
-1.32187e-65
-5.72908e-64
-2.04182e-62
-5.54445e-61
-1.01047e-59
-1.01266e-58
-4.47764e-58
-8.47475e-58
-8.37465e-58
-5.43493e-58
-2.45993e-58
3.69611e-07
2.14866e-08
5.9133e-09
0.0014098
0.000152948
7.29481e-05
0.220906
1
1
1
1
0.578699
2.81833e-20
1.55855e-16
9.65643e-16
1.13984e-15
2.52173e-16
8.61078e-19
5.6304e-19
2.30542e-20
6.21422e-26
1.36692e-33
3.96815e-38
-6.59187e-48
-5.13596e-49
-2.40539e-50
-1.07932e-51
-4.9013e-53
-2.24167e-54
-1.04074e-55
-4.93767e-57
-2.40013e-58
-1.19316e-59
-6.05542e-61
-3.11616e-62
-1.60841e-63
-8.2438e-65
-4.13992e-66
-1.9722e-67
-8.33229e-69
-5.38278e-70
-1.92737e-71
-8.75452e-73
-3.82044e-74
-2.20437e-75
-5.45449e-74
-4.2601e-72
-2.95491e-70
-1.81087e-68
-9.67435e-67
-4.38742e-65
-1.61259e-63
-4.43949e-62
-8.035e-61
-7.80154e-60
-3.26827e-59
-5.80017e-59
-5.34766e-59
-3.22591e-59
-1.35351e-59
2.1743e-08
1.41152e-05
3.92044e-06
1.95573e-06
0.000224129
1.41616e-17
0.967579
1
1
1
1
0.102903
4.76717e-18
1.52141e-16
6.49445e-16
6.15681e-16
7.19593e-17
1.8918e-19
1.92936e-19
6.15064e-21
6.19235e-27
1.47711e-35
-3.22443e-44
-2.58444e-48
-2.13448e-49
-1.01467e-50
-4.54981e-52
-2.06055e-53
-9.43077e-55
-4.38953e-56
-2.0896e-57
-1.02026e-58
-5.09938e-60
-2.59783e-61
-1.34029e-62
-6.93652e-64
-3.56502e-65
-1.79752e-66
-8.73331e-68
-3.94375e-69
-1.87973e-70
-7.96456e-72
-3.35333e-73
-1.33647e-74
-5.26812e-76
-2.36807e-75
-2.00502e-73
-1.50767e-71
-9.93254e-70
-5.64598e-68
-2.69228e-66
-1.02622e-64
-2.88231e-63
-5.21774e-62
-4.94325e-61
-1.97385e-60
-3.29878e-60
-2.84771e-60
-1.60141e-60
-6.24268e-61
2.17418e-08
7.01185e-08
0.00026684
7.08477e-05
9.59364e-06
0.584125
1
1
1
1
1
6.86052e-20
8.81514e-18
1.28251e-16
3.82465e-16
2.93851e-16
1.69443e-17
4.73437e-20
5.94561e-20
1.54275e-21
5.48879e-28
1.91133e-38
-3.69046e-42
-8.82598e-49
-7.44888e-50
-3.62529e-51
-1.63678e-52
-7.4015e-54
-3.3859e-55
-1.57663e-56
-7.5095e-58
-3.66972e-59
-1.83604e-60
-9.35745e-62
-4.82436e-63
-2.49263e-64
-1.27751e-65
-6.41381e-67
-3.11171e-68
-1.42807e-69
-6.34349e-71
-2.68284e-72
-1.06839e-73
-3.96829e-75
-1.3792e-76
-8.56462e-77
-7.57396e-75
-6.18396e-73
-4.38834e-71
-2.66179e-69
-1.33959e-67
-5.31961e-66
-1.53299e-64
-2.79263e-63
-2.59759e-62
-9.93291e-62
-1.56899e-61
-1.27163e-61
-6.68191e-62
-2.42453e-62
2.51435e-06
0.000423505
6.63695e-05
3.65532e-06
0.0770024
1
1
1
1
1
0.380734
8.07434e-20
9.80767e-18
9.50662e-17
2.00383e-16
1.20937e-16
3.51603e-18
1.08652e-20
1.61749e-20
4.05706e-22
6.09315e-29
-1.18213e-36
-3.45688e-40
-1.50347e-48
-8.55079e-50
-4.23137e-51
-1.70875e-52
-5.98047e-54
-1.96721e-55
-6.7643e-57
-2.63925e-58
-1.17234e-59
-5.66227e-61
-2.85077e-62
-1.46096e-63
-7.50749e-65
-3.8231e-66
-1.90365e-67
-9.15071e-69
-4.18359e-70
-1.815e-71
-7.45895e-73
-2.84596e-74
-1.00082e-75
-3.23293e-77
-3.23661e-78
-2.32673e-76
-2.06382e-74
-1.58018e-72
-1.02511e-70
-5.46119e-69
-2.26847e-67
-6.7396e-66
-1.24233e-64
-1.14031e-63
-4.19285e-63
-6.27686e-63
-4.78735e-63
-2.35438e-63
-7.96307e-64
0.000217413
0.000171067
5.29975e-05
-6.10325e-19
1
1
1
1
1
1
0.00226117
3.03051e-19
9.08489e-18
6.23672e-17
9.5114e-17
4.22694e-17
7.35261e-19
2.18316e-21
3.72314e-21
1.23821e-22
1.09866e-29
-1.71966e-35
-2.16369e-38
-1.75389e-40
-5.11849e-42
-1.38202e-43
-3.14363e-45
-6.07931e-47
-1.00929e-48
-1.45109e-50
-1.82937e-52
-2.04623e-54
-2.04805e-56
-1.85087e-58
-1.52695e-60
-1.15536e-62
-8.14808e-65
-5.67513e-67
-5.37214e-69
-1.18921e-70
-4.41124e-72
-1.7304e-73
-6.36143e-75
-2.14012e-76
-6.5411e-78
-2.33351e-79
-5.87522e-78
-5.66112e-76
-4.6808e-74
-3.25371e-72
-1.84029e-70
-8.02338e-69
-2.46802e-67
-4.62483e-66
-4.20758e-65
-1.49233e-64
-2.12212e-64
-1.52573e-64
-7.03282e-65
-2.21921e-65
0.000288871
2.32952e-05
0.00328787
1
1
1
1
1
1
0.636205
-2.35977e-20
4.56258e-19
7.36513e-18
3.53675e-17
4.10964e-17
1.24333e-17
1.85586e-19
6.72246e-22
6.00724e-22
5.05208e-23
4.18369e-30
-1.59272e-34
-7.37883e-37
-1.45165e-38
-4.39895e-40
-1.16234e-41
-2.61579e-43
-5.04554e-45
-8.38593e-47
-1.2135e-48
-1.54472e-50
-1.74488e-52
-1.76874e-54
-1.61943e-56
-1.35135e-58
-1.03531e-60
-7.30888e-63
-4.78314e-65
-2.90574e-67
-1.65578e-69
-9.40784e-72
-7.48363e-74
-1.38076e-75
-3.95471e-77
-1.13609e-78
-3.06723e-80
-1.23475e-79
-1.28714e-77
-1.15041e-75
-8.58293e-74
-5.16542e-72
-2.37165e-70
-7.5814e-69
-1.45035e-67
-1.31266e-66
-4.50213e-66
-6.09276e-66
-4.13425e-66
-1.78807e-66
-5.26907e-67
0.221213
0.167017
1
1
1
1
1
1
1
0.0265818
4.70522e-21
4.60825e-19
5.14752e-18
1.66452e-17
1.54078e-17
3.15273e-18
5.86876e-20
3.38299e-22
4.19088e-23
2.57079e-23
6.98102e-30
-1.06662e-33
-1.34109e-35
-3.74728e-37
-1.15304e-38
-3.0355e-40
-6.85392e-42
-1.33089e-43
-2.23645e-45
-3.27873e-47
-4.23224e-49
-4.85401e-51
-4.98619e-53
-4.63192e-55
-3.91309e-57
-3.03072e-59
-2.15839e-61
-1.42044e-63
-8.64904e-66
-4.86801e-68
-2.53875e-70
-1.22369e-72
-5.56406e-75
-2.76295e-77
-2.46941e-79
-4.47067e-81
-2.23735e-81
-2.44382e-79
-2.36303e-77
-1.89499e-75
-1.21625e-73
-5.89672e-72
-1.96583e-70
-3.85402e-69
-3.4813e-68
-1.15686e-67
-1.49197e-67
-9.56536e-68
-3.88485e-68
-1.06958e-68
1
1
1
1
1
1
1
1
1
1
1
1
1
1
0.999999
0.999999
1
1
1
1
1
1
1
1
1
1
1
1
1
1
1
1
1
1
1
1
1
1
1
1
1
1
1
1
1
1
1
1
1
1
1
1
1
1
1
1
1
1
1
1
1
1
1
1
1
1
1
1
1
1
1
1
1
1
1
1
1
1
1
1
1
1
1
1
1
1
1
0.999999
1
1
1
1
1
1
1
1
1
1
1
1
1
1
1
1
1
1
1
1
1
1
1
1
1
1
1
1
1
1
1
1
1
1
1
1
1
1
1
1
1
1
0.999999
0.999999
1
1
1
1
1
1
1
1
1
1
1
1
1
1
1
1
1
1
1
1
0.999999
1
1
1
1
1
1
1
1
1
1
1
1
1
1
1
1
1
1
1
1
1
0.999999
0.999999
1
1
1
1
1
1
1
1
1
1
1
1
1
1
1
1
1
1
1
1
1
0.999999
0.999999
1
1
1
1
1
1
1
1
1
1
1
1
1
1
1
1
1
1
1
1
1
1
1
1
1
1
1
1
1
1
1
1
1
1
1
1
1
1
1
1
1
0.0930148
1
1
1
1
1
1
1
1
1
1
1
1
1
0.999379
0.996369
0.981265
0.950012
0.898103
0.834952
-6.35364e-24
2.47671e-22
7.59516e-22
1.22358e-23
-2.03478e-23
-6.29646e-23
-1.21773e-22
-1.85495e-22
-2.38828e-22
-2.78819e-22
-3.11136e-22
-3.48206e-22
-4.00072e-22
-4.70372e-22
-5.56752e-22
-6.55938e-22
-7.69466e-22
-8.98786e-22
-1.04489e-21
-1.20592e-21
-2.11024e-24
-1.4043e-23
-5.39468e-23
-1.06159e-22
-1.68754e-22
-2.35367e-22
-3.0007e-22
-3.58643e-22
-4.08632e-22
-4.4819e-22
-4.75269e-22
-4.90048e-22
-4.93988e-22
-4.85859e-22
-4.63783e-22
-4.29242e-22
-3.86346e-22
-3.41373e-22
-2.97037e-22
-2.55056e-22
-4.64572e-25
-1.17946e-24
-4.62668e-24
-1.10804e-23
-2.06021e-23
-3.27238e-23
-4.65084e-23
-6.07336e-23
-7.40753e-23
-8.52661e-23
-9.33194e-23
-9.77785e-23
-9.85811e-23
-9.57908e-23
-8.97688e-23
-8.13557e-23
-7.16969e-23
-6.18772e-23
-5.2548e-23
-4.39838e-23
-7.10446e-26
-1.20583e-25
-4.05861e-25
-1.09754e-24
-2.32015e-24
-4.09287e-24
-6.31095e-24
-8.76857e-24
-1.11999e-23
-1.33323e-23
-1.49452e-23
-1.59124e-23
-1.62047e-23
-1.58701e-23
-1.50191e-23
-1.38063e-23
-1.23983e-23
-1.09398e-23
-9.53176e-24
-8.23184e-24
-8.06473e-27
-1.25789e-26
-4.00619e-26
-1.15921e-25
-2.70292e-25
-5.21631e-25
-8.66044e-25
-1.27492e-24
-1.70083e-24
-2.09259e-24
-2.41112e-24
-2.63683e-24
-2.7667e-24
-2.80641e-24
-2.76493e-24
-2.65404e-24
-2.49055e-24
-2.29661e-24
-2.0958e-24
-1.90655e-24
-7.70069e-28
-1.25075e-27
-4.18087e-27
-1.30583e-26
-3.3267e-26
-6.97086e-26
-1.24029e-25
-1.92247e-25
-2.66319e-25
-3.38942e-25
-4.06262e-25
-4.66632e-25
-5.17711e-25
-5.55157e-25
-5.74444e-25
-5.74376e-25
-5.58983e-25
-5.35778e-25
-5.11736e-25
-4.90263e-25
-6.65757e-29
-1.15947e-28
-4.33537e-28
-1.49498e-27
-4.15487e-27
-9.41626e-27
-1.78358e-26
-2.87862e-26
-4.11707e-26
-5.4638e-26
-6.94061e-26
-8.50978e-26
-1.00003e-25
-1.11666e-25
-1.18476e-25
-1.20825e-25
-1.20691e-25
-1.20084e-25
-1.19842e-25
-1.19621e-25
-4.88711e-30
-9.79166e-30
-4.08347e-29
-1.58007e-28
-4.77359e-28
-1.16057e-27
-2.30827e-27
-3.82402e-27
-5.63201e-27
-7.86667e-27
-1.06544e-26
-1.37953e-26
-1.67291e-26
-1.88913e-26
-2.01485e-26
-2.08549e-26
-2.14774e-26
-2.22117e-26
-2.29412e-26
-2.34537e-26
-2.29289e-31
-6.54773e-31
-2.98879e-30
-1.309e-29
-4.25329e-29
-1.09141e-28
-2.23593e-28
-3.75056e-28
-5.68077e-28
-8.36147e-28
-1.19332e-27
-1.59209e-27
-1.94206e-27
-2.18387e-27
-2.33983e-27
-2.47993e-27
-2.64718e-27
-2.82839e-27
-2.9856e-27
-3.09443e-27
-3.54116e-33
-2.66646e-32
-1.33753e-31
-6.59831e-31
-2.25506e-30
-5.96805e-30
-1.23369e-29
-2.0714e-29
-3.22077e-29
-4.96524e-29
-7.337e-29
-9.88236e-29