/*--------------------------------*- C++ -*----------------------------------*\
| =========                 |                                                 |
| \\      /  F ield         | OpenFOAM: The Open Source CFD Toolbox           |
|  \\    /   O peration     | Version:  v1912                                 |
|   \\  /    A nd           | Website:  www.openfoam.com                      |
|    \\/     M anipulation  |                                                 |
\*---------------------------------------------------------------------------*/
FoamFile
{
    version     2.0;
    format      ascii;
    class       volScalarField;
    location    "12";
    object      epsilon;
}
// * * * * * * * * * * * * * * * * * * * * * * * * * * * * * * * * * * * * * //

dimensions      [0 2 -3 0 0 0 0];


internalField   nonuniform List<scalar> 
20320
(
4.43852e-05
0.000214513
0.000220481
0.000226403
0.000232236
0.000237954
0.000243517
0.000248879
0.000254035
0.000259624
0.000274586
0.000386545
0.00118755
0.00492796
0.0149284
0.0310918
0.0476075
0.0560185
0.0491044
0.0228824
4.39454e-05
4.37686e-05
4.42052e-05
4.53325e-05
4.74245e-05
5.06906e-05
5.5464e-05
6.20319e-05
7.35645e-05
0.000130343
0.000603116
0.00315639
0.0102151
0.0219762
0.0366321
0.051779
0.0642759
0.071285
0.0747058
0.0895213
4.42733e-05
4.45276e-05
4.52799e-05
4.65728e-05
4.86313e-05
5.17537e-05
5.66034e-05
6.77896e-05
0.000137448
0.00073193
0.00388735
0.0123286
0.0259785
0.0424134
0.0587936
0.0728112
0.083241
0.0908162
0.0997025
0.131384
4.47642e-05
4.57864e-05
4.73711e-05
4.94508e-05
5.23847e-05
5.67386e-05
6.58811e-05
0.00011701
0.000561675
0.00322771
0.0112734
0.025318
0.0431148
0.0617051
0.0785509
0.0920992
0.102223
0.110619
0.122158
0.165681
4.53883e-05
4.75002e-05
5.01805e-05
5.34432e-05
5.76654e-05
6.47351e-05
9.33896e-05
0.000333472
0.00204422
0.00847472
0.0215257
0.0396518
0.0599584
0.0796925
0.0968267
0.110402
0.120772
0.129899
0.143375
0.197412
4.61423e-05
4.9633e-05
5.38533e-05
5.86556e-05
6.4996e-05
8.02738e-05
0.000184873
0.00103865
0.00528788
0.0160951
0.0332545
0.0542311
0.0761675
0.0966702
0.114141
0.127985
0.138763
0.148591
0.163895
0.228074
4.69849e-05
5.21885e-05
5.83066e-05
6.51494e-05
7.54527e-05
0.000117121
0.000458294
0.00270492
0.0104365
0.0253029
0.0456253
0.0686466
0.0917531
0.112888
0.13076
0.144987
0.156237
0.166786
0.183953
0.258208
4.78963e-05
5.51312e-05
6.33262e-05
7.3243e-05
9.22143e-05
0.000209663
0.00113976
0.00569238
0.0171745
0.0354593
0.0582079
0.0827681
0.106802
0.128525
0.146857
0.161535
0.173298
0.184607
0.203698
0.288083
4.8851e-05
5.82021e-05
6.91037e-05
8.2926e-05
0.000123446
0.000432303
0.00251953
0.0100624
0.0250719
0.0461458
0.0707935
0.0965782
0.121416
0.14373
0.162578
0.177769
0.19009
0.202203
0.223277
0.317925
4.9774e-05
6.1315e-05
7.5412e-05
9.51721e-05
0.000186433
0.000909958
0.00482416
0.015639
0.0337551
0.0571036
0.0832866
0.110108
0.1357
0.158644
0.178083
0.193858
0.206797
0.219762
0.242873
0.348006
5.05917e-05
6.44785e-05
8.15936e-05
0.000112975
0.000312067
0.00179605
0.00811581
0.0221504
0.0429373
0.068173
0.0956529
0.123413
0.149772
0.173423
0.193558
0.210021
0.22366
0.237538
0.262739
0.378693
5.12695e-05
6.74749e-05
8.74646e-05
0.000141075
0.000545504
0.00321508
0.0122935
0.0293173
0.0524035
0.0792556
0.107894
0.136573
0.163767
0.188257
0.209246
0.22655
0.241018
0.255891
0.283239
0.410513
5.17889e-05
6.99237e-05
9.34942e-05
0.000185629
0.000937007
0.00520591
0.0171563
0.0368884
0.0619934
0.090295
0.120042
0.149691
0.17786
0.20339
0.225473
0.243865
0.259365
0.275362
0.304936
0.444264
5.21247e-05
7.15552e-05
0.00010026
0.000253417
0.00152243
0.00770275
0.0224614
0.0446431
0.0715806
0.101259
0.132147
0.162898
0.192264
0.219144
0.242696
0.262571
0.279459
0.296816
0.328736
0.481188
5.22498e-05
7.23244e-05
0.000108043
0.00034953
0.0023031
0.0105569
0.0279611
0.0523854
0.0810575
0.112128
0.144274
0.176347
0.207249
0.235944
0.261555
0.283584
0.302509
0.321705
0.356219
0.52338
5.21538e-05
7.23301e-05
0.000116735
0.000474147
0.00323764
0.0135757
0.0334201
0.059937
0.0903233
0.122881
0.15649
0.190214
0.22314
0.254347
0.282956
0.308306
0.330533
0.352653
0.390395
0.574741
5.18512e-05
7.17052e-05
0.000125866
0.00062044
0.00425024
0.0165587
0.0386239
0.06713
0.0992731
0.133488
0.168854
0.204679
0.240307
0.275042
0.308137
0.33887
0.366975
0.394684
0.437623
0.643621
5.13786e-05
7.05714e-05
0.000134672
0.000775289
0.00524989
0.0193239
0.0433846
0.0738049
0.107792
0.143895
0.181399
0.219901
0.259119
0.298794
0.338645
0.37833
0.4176
0.457793
0.512902
0.751608
5.07849e-05
6.9041e-05
0.000142292
0.000923084
0.0061534
0.0217308
0.0475552
0.0798263
0.115771
0.154041
0.194131
0.235991
0.279865
0.326264
0.376009
0.430323
0.490977
0.561194
0.654779
0.970539
5.0121e-05
6.72315e-05
0.000148063
0.00105085
0.00690451
0.0236982
0.0510529
0.085115
0.123147
0.163894
0.207063
0.253006
0.30265
0.357653
0.420816
0.496979
0.594973
0.732866
0.958142
1.66436
112.579
234.431
332.315
407.682
482.048
567.068
676.778
822.505
1017.89
1283.38
1615.3
1985.48
2487.15
2681.49
2204.59
1798.63
1478.75
1208.88
977.369
785.622
633.884
517.57
430.325
364.449
312.879
271.701
238.467
211.468
189.391
171.231
156.229
143.739
133.132
123.871
115.752
108.749
102.775
97.6792
93.3224
89.5832
86.3103
83.0255
79.2791
75.304
71.6839
68.5742
65.987
63.8627
62.143
60.5889
58.9415
57.0065
54.8017
52.81
51.3057
50.329
49.8137
49.6595
49.6128
49.4113
183.499
132.596
153.162
176.398
205.618
242.201
290.647
356.955
447.309
564.763
698.318
805.063
848.529
848.794
738.011
605.51
501.023
415.011
344.168
287.386
242.525
206.642
177.425
153.297
133.117
116.15
101.858
89.832
79.7253
71.2327
64.086
58.049
52.9242
48.5558
44.7966
41.5332
38.6978
36.2345
34.0866
32.1996
30.5213
28.9785
27.5204
26.1478
24.87
23.6895
22.6212
21.6654
20.8161
20.0424
19.3063
18.5923
17.9196
17.3271
16.8228
16.4172
16.1086
15.8842
15.7202
15.5772
194.788
119.947
149.797
170.238
195.39
227.689
270.169
330.145
413.8
524.544
660.936
801.127
785.786
675.093
574.372
472.573
390.661
322.536
266.924
224.095
191.908
166.842
146.204
128.598
113.368
100.183
88.7933
78.9952
70.5964
63.4121
57.2694
52.0097
47.4919
43.5988
40.2252
37.2817
34.7057
32.4476
30.4608
28.7009
27.1246
25.6881
24.3588
23.1228
21.9811
20.9375
19.9968
19.1566
18.4087
17.7355
17.118
16.5478
16.0285
15.5753
15.2027
14.9145
14.7052
14.5594
14.4531
14.3606
175.866
108.111
147.097
175.715
203.988
236.627
274.375
328.776
409.184
520.367
668.664
886.798
919.22
623.906
478.166
388.881
322.433
267.456
222.482
188.581
163.787
144.583
128.514
114.54
102.227
91.3917
81.8908
73.6021
66.4012
60.1634
54.7678
50.0971
46.0429
42.5122
39.4241
36.7083
34.3107
32.1894
30.3048
28.6175
27.0903
25.6906
24.3949
23.1942
22.0976
21.111
20.2358
19.4703
18.8003
18.2093
17.685
17.2221
16.8197
16.4907
16.2517
16.0912
16.0002
15.9638
15.937
15.9047
149.564
96.498
126.558
156.674
195.205
236.687
277.716
328.738
401.502
502.713
635.54
808.99
1009.49
603.054
411.394
322.222
265.752
222.202
187.497
161.817
142.991
127.917
114.873
103.334
93.127
84.0955
76.1226
69.12
62.9937
57.6497
52.9961
48.937
45.3794
42.2472
39.4804
37.0223
34.825
32.8603
31.0982
29.497
28.0277
26.667
25.3997
24.233
23.1951
22.2816
21.4898
20.8371
20.2814
19.8049
19.4075
19.089
18.8387
18.6905
18.6547
18.6642
18.7157
18.7644
18.7503
18.747
127.802
86.8582
109.805
138.637
179.18
227.811
273.519
320.501
383.395
474.158
594.723
713.92
797.863
552.734
363.478
272.267
220.369
185.444
160.362
141.861
127.443
114.994
103.739
93.7723
85.0544
77.4503
70.7616
64.9218
59.8222
55.3723
51.4981
48.1055
45.0947
42.3945
39.984
37.8162
35.8366
34.0369
32.3794
30.8525
29.44
28.1222
26.8884
25.7602
24.8236
24.0221
23.3078
22.633
22.0493
21.6042
21.2882
21.0836
20.9608
20.9668
21.1023
21.2091
21.2158
21.1345
21.0031
20.9223
109.574
80.2361
99.9659
123.922
162.464
213.263
262.192
304.02
354.733
433.861
545.816
652.6
673.619
487.159
328.392
238.151
187.375
158.291
142.671
129.509
116.514
104.628
93.8511
84.8882
77.3426
70.9743
65.5525
60.8751
56.8097
53.2491
50.1005
47.2924
44.772
42.4691
40.386
38.4906
36.6955
34.9759
33.3475
31.8112
30.3829
29.0528
27.8128
26.6935
25.7754
24.9938
24.2752
23.6679
23.1412
22.6907
22.365
22.1627
22.0595
22.0827
22.2133
22.3039
22.3435
22.4055
22.3515
22.268
94.8662
76.6796
103.321
117.484
148.327
196.527
246.22
284.052
323.035
392.374
504.899
624.081
621.08
447.072
307.351
217.29
165.388
139.962
135.499
119.218
103.993
92.2977
83.0772
75.7486
69.7796
64.7759
60.5332
56.8873
53.7035
50.8828
48.3612
46.0741
43.9536
41.9698
40.1375
38.4301
36.7811
35.1962
33.7045
32.2309
30.8045
29.4593
28.2129
27.1019
26.1824
25.4073
24.7356
24.2178
23.7729
23.3589
23.0287
22.8043
22.68
22.6719
22.7542
22.8382
22.9469
23.0821
23.0907
23.0273
83.4794
74.3908
111.363
122.111
137.961
180.074
228.314
264.564
295.975
360.246
486.083
629.027
620.806
441.22
301.138
206.358
151.228
127.711
123.727
102.809
89.4505
79.7871
72.6207
67.0718
62.6309
58.9379
55.7892
53.0662
50.6573
48.4861
46.5109
44.676
42.9084
41.1941
39.557
37.9885
36.4582
34.9904
33.5985
32.2008
30.8092
29.478
28.2499
27.1683
26.2719
25.5348
24.9382
24.4959
24.1199
23.7556
23.4384
23.1998
23.0513
23.006
23.0451
23.1272
23.2624
23.4007
23.4247
23.3715
74.0441
70.961
102.724
139.13
135.086
164.752
209.233
246.397
277.948
345.444
497.912
682.075
654.129
459.582
306.041
201.529
141.674
118.184
103.049
87.0551
76.3076
68.7335
63.2538
59.1718
56.0162
53.4541
51.2765
49.3783
47.6711
46.0921
44.6042
43.1616
41.7043
40.2229
38.7465
37.2876
35.8488
34.4626
33.1333
31.7983
30.4606
29.1758
27.9992
26.9776
26.1397
25.4728
24.9619
24.5888
24.272
23.9581
23.6654
23.4257
23.2602
23.1829
23.1855
23.248
23.3583
23.4528
23.4565
23.4019
65.079
65.2527
90.249
135.564
143.044
155.481
190.95
230.293
269.124
353.133
548.356
789.135
721.582
494.062
316.49
199.111
134.543
108.516
89.1452
75.1559
65.8663
59.6131
55.2528
52.1684
49.9431
48.259
46.8912
45.7155
44.6438
43.6108
42.5731
41.4877
40.3101
39.0366
37.7006
36.3343
34.9667
33.6362
32.3493
31.0687
29.7989
28.5905
27.5001
26.5713
25.8254
25.2528
24.8327
24.5275
24.2647
23.9969
23.7321
23.4982
23.3194
23.2107
23.1701
23.1837
23.2275
23.2488
23.2109
23.1465
56.8429
57.5396
77.0218
111.012
151.195
162.512
182.688
218.968
270.193
386.625
650.342
961.243
818.227
536.866
327.437
196.238
128.4
100.498
80.9128
67.1677
58.1454
52.3142
48.4777
45.955
44.3232
43.2637
42.5324
41.9698
41.4659
40.9353
40.3191
39.5696
38.6524
37.5709
36.3646
35.0831
33.7768
32.493
31.2479
30.0285
28.8462
27.7451
26.7746
25.9698
25.3429
24.8807
24.5536
24.3145
24.0999
23.8705
23.6284
23.3966
23.1981
23.0469
22.9432
22.8749
22.8191
22.745
22.6463
22.5553
51.3476
49.7209
67.0943
95.6291
139.212
178.143
203.281
224.009
283.602
451.574
830.954
1213.97
940.796
581.498
334.815
191.006
122.065
94.1388
75.9611
61.9051
52.5827
46.5903
42.7836
40.4383
39.0968
38.4231
38.1503
38.0795
38.0643
37.9854
37.7586
37.3245
36.6515
35.7496
34.667
33.4698
32.227
30.9983
29.8138
28.68
27.6146
26.6541
25.8357
25.1818
24.6931
24.349
24.1125
23.9334
23.7576
23.5529
23.3193
23.0747
22.838
22.6207
22.4234
22.2372
22.049
21.8501
21.6533
21.4885
51.5491
44.0843
62.1849
91.8519
136.974
192.336
247.792
276.813
328.177
561.692
1139.31
1597.96
1081.52
621.081
335.198
182.304
115.281
90.2742
71.9125
58.1067
48.5409
42.1797
38.0915
35.6133
34.2874
33.7678
33.7667
34.0471
34.4202
34.7246
34.8411
34.6915
34.2408
33.5043
32.5407
31.4331
30.2696
29.1219
28.0334
27.0247
26.1147
25.3302
24.6925
24.2087
23.8674
23.6398
23.4846
23.353
23.1997
22.9995
22.7511
22.4673
22.1621
21.8438
21.5133
21.1671
20.8024
20.4242
20.0503
19.7053
59.8312
42.8896
63.9705
99.976
156.233
232.803
321.308
414.979
460.803
754.994
1622.62
2131.3
1229.43
646.584
325.621
169.73
107.859
86.0025
68.3635
55.0742
45.5028
38.8133
34.3204
31.5032
29.9653
29.3811
29.4576
29.9292
30.5631
31.1591
31.5514
31.6378
31.3756
30.7841
29.9349
28.9315
27.8758
26.8506
25.9078
25.0738
24.3622
23.786
23.3496
23.0443
22.8476
22.7246
22.633
22.5285
22.3745
22.151
21.8558
21.4967
21.0825
20.6182
20.1051
19.5433
18.9352
18.2842
17.5937
16.8787
78.015
47.629
73.4625
120.175
196.402
308.767
451.504
597.131
702.228
1111.95
2410.38
2688.78
1345.67
646.49
304.05
153.653
100.038
80.6088
64.7208
52.3809
43.0863
36.2254
31.3442
28.094
26.1853
25.3506
25.3181
25.8106
26.5599
27.327
27.9043
28.1586
28.0369
27.5637
26.8303
25.9537
25.0473
24.1988
23.4602
22.853
22.3787
22.0338
21.8059
21.6732
21.6049
21.5639
21.5101
21.4054
21.2205
20.9393
20.5583
20.08
19.5077
18.8428
18.0857
17.2364
16.2923
15.2397
14.0485
12.7119
106.341
58.618
90.7425
152.664
258.249
424.315
654.888
932.922
1201.29
1759.63
3810.5
3143.5
1386.34
610.682
270.448
135.178
92.2916
74.7687
60.8499
49.7975
41.0282
34.1785
29.0024
25.316
22.9532
21.7319
21.4287
21.7767
22.488
23.2869
23.9385
24.2753
24.2355
23.8585
23.2472
22.5304
21.8255
21.2146
20.738
20.4014
20.1892
20.0811
20.0512
20.0692
20.101
20.1103
20.0619
19.9242
19.6738
19.2964
18.7853
18.1376
17.3517
16.4255
15.3566
14.1411
12.7672
11.2061
9.40694
7.34609
146.148
75.1744
115.114
196.553
341.23
583.383
944.818
1433.73
1911.85
2497.84
5142.05
3285.64
1303.6
535.588
227.735
115.971
84.2341
69.1791
57.0955
47.2993
39.171
32.4797
27.1272
23.0598
20.2253
18.5368
17.8392
17.8983
18.424
19.1163
19.7154
20.0414
20.0305
19.7302
19.2569
18.7434
18.2974
17.9803
17.8083
17.7647
17.815
17.9263
18.065
18.1979
18.2919
18.3147
18.2364
18.0311
17.6781
17.1628
16.4753
15.6082
14.5562
13.3152
11.8843
10.2645
8.46023
6.48627
4.38892
2.33224
189.692
96.4481
145.828
250.451
441.82
786.697
1210.04
1648.23
2099.71
3282.2
5640.66
2713.94
1082.26
430.95
181.719
97.8738
75.9328
63.6544
53.4902
44.8769
37.4191
30.9841
25.5665
21.2016
17.9258
15.741
14.5696
14.2275
14.4404
14.9001
15.3343
15.5627
15.5311
15.3008
14.9944
14.7327
14.594
14.6042
14.7481
14.9859
15.2693
15.5592
15.8215
16.0246
16.1392
16.1378
15.9946
15.6869
15.1954
14.5047
13.6024
12.4801
11.135
9.57373
7.82072
5.9319
4.02051
2.29196
1.00838
0.298903
238.591
120.426
182.036
316.45
554.507
867.756
1165.66
1563.53
2193.09
3598.38
4927.55
2025.75
806.038
319.513
139.064
82.3364
68.2447
58.3249
49.9899
42.5025
35.7092
29.5878
24.1956
19.6233
15.9676
13.301
11.622
10.8085
10.6168
10.7457
10.9269
10.9957
10.92
10.7751
10.6735
10.6998
10.8842
11.2105
11.635
12.1037
12.5625
12.9733
13.3055
13.5318
13.6267
13.5659
13.3269
12.8887
12.2334
11.3463
10.219
8.85366
7.27216
5.53245
3.75692
2.16395
1.01515
0.3858
0.117815
0.0270127
324.361
146.541
218.598
361.76
553.562
760.43
1018.08
1412.33
2107.66
3258.23
3116.7
1345.95
548.354
222.234
104.371
69.8491
61.3557
53.7242
46.7368
40.1912
34.0085
28.2208
22.9192
18.2235
14.2657
11.1674
8.99388
7.6911
7.05813
6.81079
6.70119
6.59738
6.49618
6.47291
6.60104
6.90581
7.36571
7.93309
8.55181
9.16634
9.72341
10.1891
10.5367
10.7421
10.7822
10.6353
10.281
9.70176
8.88451
7.8254
6.53748
5.06556
3.51164
2.0678
0.98977
0.390384
0.134996
0.0426847
0.0121459
0.00294317
374.675
161.926
219.643
337.813
481.949
646.064
873.951
1228.86
1800.47
2584.37
1809.22
824.191
349.223
149.29
78.9368
60.5874
55.2814
49.5568
43.7184
37.951
32.303
26.8419
21.6717
16.9238
12.7476
9.29648
6.69102
4.94981
3.92563
3.35189
3.00844
2.80314
2.74602
2.87427
3.19347
3.67462
4.27262
4.93763
5.61948
6.26992
6.83836
7.29111
7.60287
7.75034
7.71216
7.46928
7.00696
6.31742
5.40632
4.304
3.08467
1.89966
0.956535
0.390537
0.137243
0.0453009
0.014888
0.00486371
0.00153991
0.000494179
335.13
161.622
208.912
293.35
407.861
549.022
746.896
1034.64
1420.96
1783.48
1058.8
493.618
216.032
100.421
61.5717
53.8907
50.3422
45.8262
40.8972
35.7734
30.5862
25.4301
20.4132
15.6687
11.3553
7.65082
4.72753
2.69158
1.47329
0.80475
0.464516
0.366191
0.431748
0.629897
0.947748
1.37328
1.88572
2.45412
3.04005
3.60146
4.09018
4.46454
4.69717
4.7647
4.64897
4.33881
3.83462
3.15611
2.35592
1.53409
0.833079
0.368058
0.136573
0.0460014
0.0152149
0.00521308
0.00188714
0.000732395
0.000322478
0.000181168
252.236
155.147
189.29
251.423
341.54
460.773
625.736
832.15
1076.54
1179.53
615.28
292.812
133.769
69.8953
50.2692
48.4878
46.2832
42.5925
38.2856
33.6613
28.8604
23.9804
19.1254
14.4256
10.0485
6.20041
3.11933
1.05074
0.138229
0.0132594
0.00672925
0.00758245
0.0114968
0.0293452
0.0937377
0.237413
0.466971
0.769408
1.11757
1.47606
1.80251
2.04661
2.17878
2.17896
2.03839
1.76438
1.38651
0.961928
0.57003
0.281922
0.117336
0.0429949
0.0148185
0.00514215
0.00189733
0.000778823
0.000373032
0.000216599
0.000152015
0.000123349
214.873
138.646
166.176
213.746
283.813
380.837
506.715
643.111
844.386
698.235
365.817
175.257
85.1964
51.4728
43.2013
44.3052
42.6807
39.6548
35.8401
31.6115
27.132
22.4979
17.8049
13.1806
8.80368
4.9201
1.86705
0.175408
0.00394443
0.0034342
0.00353113
0.00370852
0.00417523
0.00509573
0.00713036
0.0126453
0.0298175
0.074584
0.158989
0.279157
0.411949
0.516615
0.569873
0.560253
0.490604
0.378889
0.254334
0.146678
0.0726702
0.0314581
0.0123289
0.00462009
0.00177408
0.000753347
0.00037812
0.000230474
0.000165787
0.000133182
0.000114462
0.000103363
190.978
116.083
139.338
177.388
232.855
308.284
395.573
504.337
646.42
434.109
220.071
106.705
57.1162
40.528
38.8189
40.9781
39.7274
37.0089
33.5373
29.6207
25.41
20.9939
16.4598
11.9338
7.61137
3.79106
0.948263
0.0107637
0.00209754
0.00212039
0.00214813
0.00217848
0.00224174
0.00239318
0.0026885
0.00326177
0.00438281
0.00663312
0.0113267
0.0210886
0.0364413
0.0530246
0.0642493
0.0655413
0.0568997
0.0423065
0.0270642
0.0150255
0.00737642
0.00331792
0.00145297
0.000676797
0.000365274
0.000235182
0.000174831
0.000142526
0.000122397
0.000108321
9.82029e-05
9.15636e-05
164.047
98.0561
113.602
144.141
188.22
245.065
312.155
411.293
459.156
262.401
132.634
66.9841
41.0391
34.1101
36.3876
38.1544
37.0796
34.5865
31.3596
27.688
23.7032
19.4813
15.102
10.693
6.47117
2.80035
0.362806
0.00170742
0.00128313
0.00130289
0.00132172
0.00133597
0.00134779
0.00136723
0.00140687
0.0014798
0.00161556
0.00186293
0.00231228
0.00306303
0.0041418
0.00536171
0.00627161
0.00640571
0.00564237
0.0042908
0.00284884
0.00169584
0.000951408
0.000541693
0.000336874
0.00023613
0.00018322
0.000151931
0.000131065
0.000115811
0.000103942
9.45514e-05
8.74655e-05
8.2854e-05
161.051
82.7477
93.3599
117.717
152.602
197.254
255.207
330.522
296.005
159.12
80.4581
44.3358
31.8954
30.4366
34.6088
35.8961
34.7089
32.3305
29.2854
25.8126
22.0206
17.9739
13.7458
9.46902
5.38784
1.94046
0.0956961
0.000793629
0.000775147
0.000793763
0.00081281
0.000829062
0.000841408
0.000850569
0.000857281
0.000863371
0.000872047
0.000887611
0.000915029
0.000958203
0.00101397
0.00106461
0.00107681
0.00101918
0.000887856
0.000712769
0.000538425
0.000397339
0.000298298
0.000233572
0.000191152
0.000161942
0.000140619
0.000124232
0.000111193
0.000100593
9.1854e-05
8.47896e-05
7.94424e-05
7.58635e-05
150.228
69.393
78.3726
98.7736
126.817
164.746
214.72
265.785
184.344
96.3329
50.3029
31.7173
26.766
28.541
33.0114
33.7704
32.5299
30.2142
27.3037
23.994
20.3701
16.4833
12.4044
8.27401
4.36861
1.24197
0.0169361
0.000460068
0.000469452
0.000485485
0.0005028
0.000519188
0.000533414
0.000544911
0.000552657
0.000556121
0.000555265
0.000549818
0.000539645
0.000524777
0.000505137
0.000479931
0.000447373
0.000406852
0.000360491
0.000312451
0.000267431
0.000228577
0.000196655
0.000170892
0.000150006
0.000132949
0.000118937
0.000107341
9.76887e-05
8.96234e-05
8.28607e-05
7.73789e-05
7.32598e-05
7.0361e-05
123.492
58.586
66.8659
85.2626
109.644
143.57
184.862
207.905
115.166
59.2087
33.5003
24.816
23.9938
27.672
31.5511
31.8508
30.4759
28.2037
25.403
22.2324
18.7575
15.0201
11.0891
7.11821
3.42112
0.700226
0.00212515
0.000282072
0.000291574
0.000304255
0.000318416
0.00033262
0.000345886
0.000357541
0.000366502
0.000372142
0.000374053
0.000371788
0.00036499
0.00035353
0.000337817
0.000318581
0.00029629
0.000271751
0.000246259
0.000221026
0.000197207
0.000175644
0.000156646
0.000140173
0.000126004
0.000113894
0.000103599
9.48651e-05
8.74631e-05
8.11943e-05
7.58833e-05
7.15795e-05
6.84169e-05
6.60852e-05
96.3462
49.3436
56.7349
73.1746
95.7755
128.665
174.164
138.9
71.8568
37.6038
24.3726
21.1069
22.6353
27.5143
30.0895
30.0181
28.5311
26.284
23.5751
20.5268
17.1875
13.5911
9.80947
6.01143
2.57751
0.320021
0.000342401
0.000182177
0.000189588
0.000199183
0.000210126
0.000221498
0.000232588
0.000242816
0.000251341
0.000257654
0.000261327
0.000262057
0.000259589
0.000253747
0.000244807
0.000233379
0.000219914
0.000204917
0.000189114
0.000173162
0.00015773
0.00014339
0.000130389
0.000118794
0.00010857
9.9627e-05
9.18711e-05
8.51855e-05
7.94418e-05
7.4526e-05
7.03259e-05
6.69288e-05
6.45277e-05
6.26961e-05
71.6216
41.4125
47.8509
60.7308
79.3136
118.58
157.501
89.4534
44.4555
25.4744
19.4954
19.1944
22.1501
27.0984
28.7298
28.257
26.6626
24.4394
21.8133
18.8763
15.6627
12.2024
8.57204
4.96027
1.84371
0.107753
0.0001366
0.000125225
0.000130767
0.000137898
0.000146119
0.000154898
0.000163741
0.000172179
0.000179589
0.000185581
0.000189764
0.000191919
0.000191892
0.000189492
0.000184833
0.000178323
0.0001703
0.000161062
0.000151019
0.000140572
0.000130193
0.000120314
0.000111145
0.000102784
9.52644e-05
8.85641e-05
8.26575e-05
7.74949e-05
7.30073e-05
6.91313e-05
6.57965e-05
6.31065e-05
6.13099e-05
5.9911e-05
52.4478
34.9536
40.3279
49.6909
72.933
116.687
104.981
52.8316
28.0411
18.9762
16.9472
18.3238
22.249
26.3709
27.2433
26.5054
24.848
22.6585
20.1126
17.2797
14.1851
10.858
7.38354
3.98736
1.22488
0.0242063
9.07207e-05
9.20645e-05
9.61551e-05
0.000101422
0.000107556
0.000114256
0.000121185
0.000127974
0.000134173
0.000139476
0.000143543
0.000146207
0.000147373
0.000146863
0.000144672
0.000141062
0.000136284
0.000130555
0.000124111
0.000117189
0.000110098
0.000103173
9.65966e-05
9.04828e-05
8.48879e-05
7.98204e-05
7.52878e-05
7.12742e-05
6.77505e-05
6.46823e-05
6.20271e-05
5.98919e-05
5.85669e-05
5.75261e-05
38.0474
29.6217
33.9683
45.6888
77.7831
105.968
62.2907
32.1056
19.5278
15.654
15.6897
18.1001
22.667
25.4591
25.7661
24.7844
23.083
20.9349
18.4686
15.7354
12.7556
9.56094
6.24782
3.10439
0.725014
0.00326357
7.04476e-05
7.2241e-05
7.52296e-05
7.91336e-05
8.37488e-05
8.88819e-05
9.4296e-05
9.97151e-05
0.000104813
0.000109354
0.000113049
0.000115763
0.000117427
0.000117888
0.000117092
0.000115182
0.000112348
0.000108777
0.000104618
9.9992e-05
9.50906e-05
9.01615e-05
8.53804e-05
8.0861e-05
7.66621e-05
7.28025e-05
6.93032e-05
6.61668e-05
6.33879e-05
6.09499e-05
5.88302e-05
5.71322e-05
5.61682e-05
5.5415e-05
27.7511
24.7803
30.165
50.3871
88.6065
77.9177
39.0319
21.5404
15.2861
13.9764
15.1619
18.2852
22.7953
24.4027
24.2425
23.0969
21.3709
19.2675
16.8792
14.2425
11.3748
8.31344
5.17406
2.31555
0.352377
0.000307085
5.88143e-05
6.00937e-05
6.22581e-05
6.51749e-05
6.86911e-05
7.2664e-05
7.69171e-05
8.12479e-05
8.5418e-05
8.92469e-05
9.24909e-05
9.50309e-05
9.68078e-05
9.77178e-05
9.76904e-05
9.67885e-05
9.51401e-05
9.29097e-05
9.02074e-05
8.70928e-05
8.36679e-05
8.01164e-05
7.66014e-05
7.32299e-05
7.00534e-05
6.70956e-05
6.438e-05
6.19189e-05
5.97183e-05
5.77742e-05
5.60773e-05
5.47235e-05
5.40305e-05
5.35008e-05
22.0168
22.0101
30.2082
61.4838
100.666
50.0759
25.4563
15.8851
13.0357
13.1406
15.0734
18.7647
22.2936
23.1837
22.7089
21.4474
19.7126
17.656
15.3435
12.8003
10.0433
7.11849
4.18003
1.62675
0.124672
7.04321e-05
5.17608e-05
5.25476e-05
5.40892e-05
5.62757e-05
5.89758e-05
6.20772e-05
6.54433e-05
6.89232e-05
7.2336e-05
7.55402e-05
7.83313e-05
8.06026e-05
8.23043e-05
8.33706e-05
8.37481e-05
8.34444e-05
8.25265e-05
8.11331e-05
7.93643e-05
7.72486e-05
7.48364e-05
7.22548e-05
6.96475e-05
6.71083e-05
6.46851e-05
6.24038e-05
6.02853e-05
5.83455e-05
5.65963e-05
5.50403e-05
5.36775e-05
5.25942e-05
5.21016e-05
5.17436e-05
21.7673
25.5602
46.433
98.8449
65.897
31.4272
17.3279
12.6728
11.7877
12.7852
15.2976
19.369
21.5085
21.8737
21.1693
19.8341
18.1056
16.0989
13.8612
11.4096
8.7627
5.97802
3.26938
1.04615
0.0276323
4.93372e-05
4.75096e-05
4.78872e-05
4.89397e-05
5.05607e-05
5.26335e-05
5.50651e-05
5.77428e-05
6.05476e-05
6.33391e-05
6.6e-05
6.83674e-05
7.03511e-05
7.18995e-05
7.29757e-05
7.35457e-05
7.35838e-05
7.31145e-05
7.22455e-05
7.10746e-05
6.96261e-05
6.79156e-05
6.60287e-05
6.40793e-05
6.21476e-05
6.02819e-05
5.85095e-05
5.68477e-05
5.53123e-05
5.39159e-05
5.2666e-05
5.15662e-05
5.06962e-05
5.035e-05
5.01231e-05
30.6888
46.2858
92.6116
105.106
40.4121
19.1523
12.5287
10.8273
11.141
12.7624
15.7692
19.2425
20.5579
20.5078
19.6353
18.2556
16.5459
14.5933
12.4311
10.0708
7.53502
4.90756
2.44829
0.585029
0.00319994
4.58368e-05
4.50337e-05
4.50672e-05
4.57252e-05
4.68987e-05
4.84803e-05
5.03867e-05
5.25209e-05
5.47819e-05
5.70582e-05
5.92547e-05
6.12472e-05
6.29562e-05
6.43323e-05
6.53445e-05
6.59782e-05
6.61951e-05
6.5992e-05
6.54513e-05
6.46639e-05
6.36579e-05
6.24356e-05
6.10456e-05
5.95751e-05
5.80895e-05
5.66371e-05
5.52479e-05
5.39368e-05
5.27166e-05
5.15975e-05
5.05887e-05
4.96963e-05
4.8995e-05
4.87552e-05
4.86278e-05
122.618
212.586
103.617
40.2503
18.6845
11.8446
9.8906
9.84991
10.9222
13.0295
16.3685
18.7829
19.4828
19.1226
18.1189
16.7115
15.0299
13.1364
11.0529
8.78655
6.3643
3.91687
1.72576
0.253228
0.000220946
4.47425e-05
4.37559e-05
4.34891e-05
4.38148e-05
4.46215e-05
4.58039e-05
4.72848e-05
4.89791e-05
5.07973e-05
5.26486e-05
5.4457e-05
5.61217e-05
5.75754e-05
5.87675e-05
5.96691e-05
6.02824e-05
6.05675e-05
6.05143e-05
6.0179e-05
5.96407e-05
5.89288e-05
5.80447e-05
5.70113e-05
5.589e-05
5.47351e-05
5.35921e-05
5.24936e-05
5.14529e-05
5.04786e-05
4.95781e-05
4.8761e-05
4.80335e-05
4.7465e-05
4.73026e-05
4.72513e-05
49.0721
66.8372
27.0699
14.3309
10.0537
8.68807
8.65627
9.48054
11.048
13.5631
16.7232
18.0295
18.2452
17.6754
16.596
15.1881
13.5491
11.723
9.72441
7.55943
5.25979
3.01229
1.1145
0.0694651
5.62137e-05
4.45336e-05
4.32929e-05
4.27589e-05
4.27969e-05
4.32854e-05
4.41219e-05
4.5235e-05
4.65507e-05
4.79883e-05
4.94733e-05
5.09432e-05
5.23145e-05
5.35327e-05
5.45436e-05
5.53244e-05
5.58875e-05
5.61931e-05
5.62288e-05
5.60342e-05
5.56644e-05
5.51528e-05
5.45026e-05
5.37242e-05
5.28574e-05
5.19488e-05
5.10398e-05
5.01615e-05
4.93267e-05
4.85421e-05
4.78131e-05
4.71481e-05
4.65519e-05
4.60877e-05
4.59831e-05
4.59894e-05
4.94326e-05
6.5271e-05
0.000151843
0.00115296
0.00748828
0.0252266
0.0538992
0.0897129
0.129989
0.173553
0.220309
0.271018
0.327366
0.392371
0.471385
0.574437
0.722429
0.967877
1.49945
3.74004
4.87365e-05
6.32761e-05
0.00015428
0.00123555
0.00794816
0.0264417
0.0563133
0.0939343
0.136704
0.183504
0.234392
0.29049
0.354167
0.42965
0.524437
0.652504
0.842465
1.16242
1.81956
3.72261
4.80538e-05
6.13437e-05
0.000156976
0.00131907
0.0083998
0.0276457
0.0588242
0.098536
0.14425
0.19486
0.250519
0.312599
0.383934
0.469467
0.577629
0.723154
0.933267
1.26291
1.83924
3.00534
4.74028e-05
5.96792e-05
0.000163736
0.00145547
0.0091266
0.029561
0.0626439
0.105137
0.154522
0.209663
0.270748
0.339266
0.418225
0.512674
0.630701
0.785204
0.99705
1.30103
1.75778
2.4709
4.67992e-05
5.86937e-05
0.000185848
0.00180965
0.0109679
0.0341152
0.0707074
0.117373
0.17155
0.232101
0.29924
0.374485
0.460775
0.562791
0.687473
0.844771
1.04854
1.31735
1.67438
2.14066
4.63137e-05
6.00019e-05
0.000281426
0.0031617
0.0168645
0.0465623
0.089851
0.142932
0.203333
0.270108
0.343633
0.425485
0.518445
0.626607
0.755511
0.912201
1.10494
1.34212
1.62962
1.96479
4.66434e-05
8.00347e-05
0.00103867
0.0099517
0.0364673
0.0796462
0.134139
0.196054
0.263578
0.336466
0.415624
0.502902
0.601009
0.713471
0.844539
0.998934
1.18117
1.39416
1.63701
1.90214
6.27181e-05
0.000472651
0.00851303
0.0399851
0.0934846
0.158216
0.227236
0.298119
0.371005
0.447275
0.528945
0.618469
0.718661
0.832583
0.963403
1.11416
1.28713
1.48267
1.69765
1.92464
0.000644685
0.00777137
0.054318
0.138875
0.233402
0.321932
0.401307
0.474154
0.544654
0.616864
0.694342
0.780294
0.877678
0.989055
1.11653
1.26185
1.42615
1.60889
1.80648
2.01233
0.0177238
0.0750197
0.235515
0.401341
0.53067
0.622748
0.689726
0.744065
0.79538
0.850319
0.913311
0.987707
1.07625
1.18065
1.30155
1.43939
1.59492
1.76789
1.95493
2.1499
0.274652
0.444299
0.794515
0.994486
1.08058
1.10672
1.10912
1.10827
1.11547
1.13646
1.17357
1.22838
1.3027
1.3968
1.50912
1.63842
1.7853
1.95081
2.13247
2.32463
2.45101
1.92269
2.19156
2.10809
1.93434
1.76551
1.62957
1.53165
1.47111
1.44515
1.449
1.47978
1.53732
1.6202
1.72465
1.84767
1.98866
2.14922
2.3281
2.52266
15.4078
6.16338
4.74424
3.66939
2.94978
2.47062
2.15039
1.93827
1.80449
1.73038
1.70257
1.71256
1.75511
1.82697
1.92652
2.05162
2.19826
2.35836
2.52962
2.72503
22.6071
11.7521
7.11522
4.91836
3.71155
2.98931
2.53461
2.24522
2.06423
1.95723
1.91133
1.91579
1.95377
2.01876
2.12288
2.2659
2.44606
2.62203
2.78556
2.9621
11.9307
9.75269
6.61682
4.83755
3.75367
3.06423
2.61289
2.31548
2.12272
2.00519
1.94605
1.93329
1.95788
2.01708
2.10964
2.23479
2.38271
2.53912
2.69861
2.87103
8.16143
6.88841
5.1786
4.07129
3.32297
2.80579
2.44547
2.1958
2.02688
1.91924
1.85941
1.83783
1.84924
1.89095
1.95869
2.04714
2.14861
2.2593
2.38135
2.52203
6.65098
5.33267
4.12318
3.33758
2.80123
2.42229
2.15095
1.95748
1.82269
1.73354
1.68069
1.65762
1.66022
1.68528
1.72875
1.78601
1.85296
1.92847
2.01415
2.11087
5.87295
4.47959
3.42283
2.76111
2.32714
2.02995
1.82081
1.67247
1.56864
1.49888
1.4561
1.43538
1.43323
1.4467
1.47271
1.50826
1.55113
1.60053
1.65652
1.71777
5.33314
3.89733
2.89421
2.28828
1.909
1.66157
1.49452
1.37958
1.30058
1.24783
1.21514
1.19836
1.19452
1.20118
1.21615
1.23752
1.26388
1.29445
1.32858
1.36486
4.82659
3.38465
2.41855
1.85977
1.52609
1.31883
1.18529
1.09706
1.03835
1.00002
0.976509
0.964212
0.960632
0.963858
0.972318
0.984727
1.00011
1.01774
1.03692
1.05663
4.22918
2.83738
1.93195
1.4401
1.16211
0.997784
0.896646
0.832601
0.791624
0.765817
0.750501
0.742733
0.740528
0.742438
0.747339
0.75434
0.762743
0.771982
0.781518
0.790709
3.44191
2.19678
1.40889
1.01927
0.813889
0.698759
0.631049
0.590046
0.565067
0.550243
0.542148
0.53865
0.538322
0.540144
0.54334
0.547301
0.551545
0.55568
0.559349
0.56218
2.37598
1.44349
0.862317
0.612803
0.49226
0.428552
0.393013
0.372826
0.361636
0.356005
0.353915
0.35409