/*--------------------------------*- C++ -*----------------------------------*\
| =========                 |                                                 |
| \\      /  F ield         | OpenFOAM: The Open Source CFD Toolbox           |
|  \\    /   O peration     | Version:  v1912                                 |
|   \\  /    A nd           | Website:  www.openfoam.com                      |
|    \\/     M anipulation  |                                                 |
\*---------------------------------------------------------------------------*/
FoamFile
{
    version     2.0;
    format      ascii;
    class       volScalarField;
    location    "12";
    object      k;
}
// * * * * * * * * * * * * * * * * * * * * * * * * * * * * * * * * * * * * * //

dimensions      [0 2 -2 0 0 0 0];


internalField   nonuniform List<scalar> 
20320
(
0.00413789
0.00425621
0.00433479
0.00441207
0.00448753
0.00456088
0.0046317
0.00469943
0.00476411
0.00483366
0.00501693
0.00629602
0.0132891
0.0343198
0.071891
0.1173
0.155885
0.173787
0.159205
0.0957035
0.00414633
0.00413906
0.00416611
0.004227
0.00433252
0.00448655
0.00469816
0.00495911
0.00528009
0.00628698
0.0144852
0.0538194
0.143356
0.262944
0.378602
0.465438
0.510213
0.514814
0.491101
0.395883
0.00416761
0.00419159
0.00424811
0.00433965
0.00447954
0.00468266
0.00496257
0.00534298
0.00661214
0.0170104
0.0667253
0.179806
0.334876
0.494451
0.628945
0.720811
0.76449
0.763589
0.71466
0.551271
0.00419927
0.00427317
0.00438296
0.0045237
0.00471551
0.00497426
0.00531803
0.00627019
0.0140825
0.0574429
0.170641
0.340948
0.530234
0.705644
0.845021
0.936343
0.976021
0.963298
0.885135
0.664634
0.00423922
0.00438279
0.00456084
0.00477238
0.0050306
0.00535089
0.00594502
0.0101315
0.0389294
0.134417
0.302386
0.50798
0.714937
0.896922
1.03693
1.12569
1.15907
1.13237
1.02749
0.759973
0.00428701
0.00451699
0.00478767
0.00508518
0.00542433
0.00584903
0.00764849
0.022332
0.0889857
0.236969
0.443617
0.670527
0.887016
1.0717
1.2107
1.29584
1.32185
1.28131
1.15302
0.845382
0.00433983
0.00467458
0.00505457
0.00545229
0.00587916
0.00666069
0.0124675
0.0493658
0.162147
0.352679
0.585429
0.825596
1.04749
1.23313
1.37044
1.4515
1.46996
1.41646
1.26747
0.924367
0.00439626
0.00485194
0.00534406
0.00586589
0.00639718
0.00833678
0.0239272
0.0943054
0.251224
0.473481
0.723984
0.972758
1.19792
1.38377
1.51921
1.59619
1.60737
1.54192
1.3743
0.998902
0.0044546
0.00503249
0.00565995
0.00627841
0.00706652
0.0121068
0.045738
0.155363
0.349388
0.594851
0.857772
1.11247
1.33987
1.52576
1.65952
1.73276
1.73721
1.66074
1.47597
1.07044
0.00451029
0.00521018
0.00597939
0.00666181
0.0081454
0.0198413
0.07974
0.228192
0.451692
0.714312
0.986307
1.24547
1.47479
1.661
1.79361
1.86372
1.86213
1.77551
1.57464
1.14028
0.00455898
0.00538455
0.00625384
0.00704479
0.0101257
0.0334608
0.125074
0.308208
0.554797
0.830489
1.10957
1.37259
1.60405
1.79128
1.92363
1.99153
1.98478
1.88878
1.67246
1.20983
0.00459875
0.00554282
0.0064577
0.00749255
0.0136833
0.05403
0.17899
0.391539
0.656444
0.9426
1.22776
1.4947
1.72905
1.91843
2.05185
2.11886
2.10805
2.00344
1.77192
1.28074
0.00462875
0.00566406
0.00659788
0.00810163
0.0194677
0.081203
0.238085
0.475176
0.755091
1.05023
1.34127
1.61278
1.8513
2.04456
2.18098
2.24898
2.23566
2.12326
1.87637
1.35526
0.00464776
0.00573424
0.0066903
0.00898887
0.0278028
0.113363
0.299088
0.556798
0.849627
1.15318
1.45055
1.7279
1.97253
2.17214
2.31438
2.38621
2.37268
2.25362
1.99069
1.43668
0.00465442
0.00575215
0.00674669
0.0102435
0.0384747
0.148198
0.35918
0.634598
0.939197
1.25131
1.55612
1.84123
2.09468
2.30418
2.45644
2.53653
2.52665
2.40295
2.12281
1.5303
0.00464824
0.0057251
0.00677511
0.0118711
0.0507398
0.183285
0.416073
0.707152
1.02311
1.34455
1.6585
1.95399
2.22
2.44437
2.61297
2.70857
2.70932
2.58543
2.28685
1.64572
0.00463007
0.00566285
0.00678123
0.0137696
0.0635303
0.21647
0.467981
0.773318
1.10078
1.43281
1.75816
2.06742
2.35084
2.59699
2.79135
2.91449
2.93924
2.82612
2.51032
1.80261
0.00460197
0.00557472
0.00676709
0.0157517
0.0757294
0.246069
0.513591
0.832214
1.17167
1.51595
1.85542
2.18251
2.48937
2.76632
2.99992
3.16995
3.24422
3.16929
2.85069
2.04773
0.00456667
0.00546893
0.00673089
0.0176057
0.0864283
0.270992
0.55213
0.883334
1.23551
1.59393
1.95058
2.29999
2.63704
2.95536
3.24532
3.49024
3.65841
3.68514
3.42832
2.51273
0.00452704
0.00535273
0.00667023
0.0191654
0.0951006
0.290841
0.583518
0.926819
1.29261
1.66723
2.04419
2.42035
2.794
3.16374
3.52712
3.87803
4.19958
4.44346
4.45331
3.67754
15.8276
17.9346
22.6337
25.9364
29.002
32.3214
36.3672
41.4125
47.7187
55.6482
64.8128
74.3724
86.4978
91.0423
79.9607
69.8155
61.269
53.5655
46.4886
40.1898
34.8313
30.4269
26.9017
24.0799
21.7507
19.797
18.1479
16.7504
15.5625
14.551
13.6877
12.9479
12.3033
11.7266
11.2085
10.7513
10.3531
10.0076
9.70722
9.44537
9.21437
8.98124
8.71192
8.41901
8.14616
7.90756
7.70615
7.5388
7.40216
7.27882
7.14776
6.9931
6.81317
6.64587
6.51749
6.4327
6.38721
6.37303
6.36942
6.35299
21.9862
47.5362
60.5281
69.4325
77.9411
86.9722
97.8439
111.649
128.946
150.088
174.108
195.879
207.612
211.15
192.829
167.944
146.329
127.075
110.03
95.6036
83.8367
74.3032
66.4376
59.8459
54.2548
49.4786
45.3876
41.8802
38.8704
36.2848
34.0604
32.1389
30.4552
28.9473
27.5949
26.3984
25.3468
24.4204
23.5994
22.8628
22.177
21.5001
20.7928
20.0589
19.3633
18.7498
18.2228
17.772
17.3784
17.0136
16.6519
16.2782
15.8907
15.5279
15.2479
15.0634
14.9592
14.9076
14.8695
14.8113
22.9476
56.3866
76.4291
88.6219
99.4449
110.602
123.353
139.9
161.438
188.373
220.782
255.046
257.507
238.69
216.555
190.739
167.694
146.712
127.983
112.351
99.8487
89.7463
81.2761
73.9795
67.6391
62.1212
57.3227
53.1558
49.5416
46.4073
43.6862
41.3155
39.2261
37.351
35.6632
34.1566
32.8148
31.616
30.5381
29.5558
28.6354
27.7397
26.8347
25.9184
25.0501
24.2767
23.6048
23.0262
22.5223
22.0655
21.6311
21.2071
20.7889
20.405
20.1111
19.9167
19.8039
19.7435
19.6922
19.6166
21.4999
57.1699
82.167
99.92
114.541
128.066
141.233
157.994
180.919
210.63
247.951
298.983
310.586
250.671
215.66
190.345
169.299
150.066
132.635
118.122
106.552
97.0449
88.8478
81.6065
75.1995
69.5539
64.595
60.253
56.459
53.1468
50.2531
47.7137
45.462
43.4291
41.5848
39.9227
38.4234
37.0658
35.829
34.6856
33.6046
32.5556
31.5138
30.4793
29.5084
28.647
27.9009
27.2659
26.7201
26.2361
25.7927
25.3812
24.9959
24.6598
24.4205
24.2707
24.1905
24.1545
24.1025
24.0147
19.3543
54.7071
78.6542
98.3272
118.681
137.198
152.939
169.832
191.89
220.777
256.456
299.198
342.75
255.3
205.804
179.125
160.563
144.69
130.385
118.378
108.566
100.092
92.4637
85.5878
79.4373
73.9808
69.1615
64.925
61.2094
57.9541
55.0994
52.5799
50.3282
48.2768
46.3958
44.6805
43.1076
41.6631
40.3319
39.0827
37.8902
36.7309
35.5907
34.4825
33.4692
32.5808
31.8189
31.1986
30.6756
30.2236
29.8308
29.4919
29.1932
28.9731
28.8644
28.8048
28.7802
28.7446
28.628
28.4941
17.4831
51.3094
73.9766
94.4455
117.124
139.985
158.865
175.635
195.747
222.956
256.919
288.237
307.422
246.486
193.207
164.565
147.602
135.368
125.216
116.25
108.281
100.764
93.6517
87.1877
81.4328
76.3549
71.8643
67.9312
64.4861
61.4657
58.8167
56.4676
54.339
52.367
50.5392
48.8466
47.2554
45.7653
44.357
43.0237
41.7464
40.5057
39.2943
38.1389
37.144
36.2863
35.5273
34.8311
34.235
33.7613
33.3924
33.1081
32.8783
32.7518
32.7453
32.7137
32.5861
32.3732
32.0885
31.8168
15.8321
48.5273
70.8378
90.0479
113.162
138.442
160.047
176.403
193.624
218.234
250.404
278.072
280.583
228.883
180.4
150.92
134.646
125.647
120.415
114.167
107.022
99.8054
92.8838
86.8479
81.5925
77.0482
73.1079
69.6725
66.6624
64.004
61.6294
59.4816
57.5073
55.6427
53.8914
52.243
50.6375
49.0619
47.5441
46.0794
44.6746
43.3214
42.0173
40.7994
39.7631
38.8691
38.0545
37.3697
36.7806
36.2574
35.8351
35.5093
35.255
35.1026
35.0452
34.9432
34.7786
34.6209
34.3251
33.9749
14.4309
46.9521
72.4986
87.8286
108.593
134.261
157.692
174.029
188.305
210.24
242.018
270.784
264.841
214.236
169.897
140.174
123.959
117.506
118.356
110.804
102.71
95.7792
89.7882
84.692
80.3286
76.542
73.2448
70.3571
67.7985
65.5007
63.4135
61.4834
59.6448
57.8658
56.1595
54.5145
52.8847
51.284
49.753
48.2247
46.717
45.2601
43.8745
42.6036
41.5159
40.5821
39.7669
39.1225
38.565
38.0315
37.5603
37.1683
36.8485
36.6202
36.4651
36.2942
36.1226
35.9524
35.6261
35.2122
13.2935
45.8602
75.3705
89.5574
104.344
128.683
153
170.082
182.67
202.921
236.858
268.653
259.363
207.315
163.463
132.837
116.078
111.281
112.852
103.045
95.968
90.23
85.5116
81.5347
78.1382
75.1786
72.5657
70.2431
68.1433
66.2108
64.411
62.696
60.9964
59.2943
57.6125
55.9526
54.2977
52.6796
51.1245
49.5605
47.9933
46.4722
45.0406
43.7468
42.6396
41.7042
40.9243
40.3148
39.7811
39.2503
38.7443
38.289
37.8944
37.5757
37.3169
37.0725
36.8475
36.5912
36.1827
35.6877
12.3102
44.2283
71.4521
95.9852
102.56
122.451
146.542
165.199
178.612
199.468
238.26
276.251
261.27
206.929
160.902
128.357
110.597
106.259
102.158
94.8576
89.1392
84.5702
80.8847
77.8621
75.3301
73.1425
71.1946
69.4314
67.7946
66.2351
64.7212
63.2108
61.6467
60.0175
58.3527
56.6728
54.9904
53.3458
51.7556
50.1655
48.5755
47.0372
45.6054
44.3303
43.248
42.3514
41.6256
41.0507
40.5348
40.0076
39.4753
38.9643
38.4941
38.0795
37.7119
37.3669
37.0284
36.6294
36.0927
35.4933
11.3307
41.7333
65.7883
94.4759
105.733
118.428
139.573
160.069
176.724
201.987
248.561
294.462
270.767
211.167
160.74
125.607
106.909
101.5
94.8782
88.4143
83.3177
79.4017
76.3448
73.9533
72.0601
70.5033
69.1489
67.9154
66.7354
65.553
64.3291
63.0234
61.5938
60.0376
58.3913
56.6951
54.9866
53.3131
51.6912
50.0898
48.5113
47.0033
45.6213
44.4111
43.3977
42.573
41.9135
41.3758
40.8746
40.3466
39.7886
39.2231
38.6729
38.1528
37.659
37.1735
36.6677
36.0835
35.3838
34.658
10.389
38.6869
60.1693
84.9338
109.994
121.869
136.541
156.176
177.581
211.401
270.012
323.992
286.054
217.732
161.32
123.46
104.415
98.0417
90.9226
84.1365
78.8029
74.8689
71.977
69.8749
68.368
67.2682
66.4045
65.6508
64.9096
64.1022
63.1733
62.0788
60.7884
59.3107
57.6916
55.9904
54.2664
52.576
50.9437
49.3597
47.8332
46.4051
45.1233
44.0229
43.1165
42.3882
41.8028
41.3033
40.8123
40.2747
39.6826
39.054
38.4102
37.7643
37.1143
36.4441
35.7252
34.921
34.0277
33.1488
9.74522
36.2391
56.5599
79.2514
106.127
128.962
144.948
158.083
181.95
228.323
305.985
365.4
305.711
224.704
161.295
121.094
102.423
95.872
89.0961
81.539
75.4708
71.0005
67.8317
65.6752
64.2924
63.4577
62.9562
62.6081
62.2696
61.823
61.1873
60.309
59.1645
57.7735
56.1955
54.5083
52.7914
51.1135
49.5105
47.9897
46.5652
45.2694
44.1366
43.1866
42.4166
41.8
41.2905
40.8253
40.3349
39.7727
39.1292
38.4175
37.6549
36.8517
36.0061
35.1055
34.1316
33.0712
31.9449
30.8676
9.81592
35.5465
55.833
78.6327
105.626
133.975
160.24
175.853
195.287
254.572
361.915
423.694
327.552
230.374
159.653
118.017
100.661
95.3853
87.9152
79.8942
73.0522
67.7925
64.0105
61.4756
59.9417
59.1544
58.8549
58.8051
58.8042
58.683
58.3238
57.6565
56.6595
55.3634
53.8433
52.1971
50.5249
48.9071
47.3907
45.9941
44.7307
43.6212
42.6819
41.9142
41.2995
40.7991
40.3594
39.9168
39.4104
38.8013
38.0797
37.2541
36.3366
35.3347
34.2475
33.0692
31.7951
30.4307
29.0089
27.6512
10.89
37.2927
58.6128
83.3386
113.369
147.188
181.57
215.587
231.592
296.352
439.815
497.507
349.192
232.841
155.628
114.024
98.8686
94.7454
87.0338
78.7208
71.2627
65.1894
60.6107
57.4372
55.4835
54.5036
54.2112
54.314
54.547
54.687
54.5639
54.0855
53.2272
52.0302
50.5876
49.0213
47.4468
45.9544
44.5974
43.3969
42.3583
41.486
40.7762
40.2109
39.7566
39.3652
38.9795
38.5392
37.9922
37.3061
36.4712
35.4913
34.3741
33.1246
31.7448
30.2368
28.6083
26.8734
25.06
23.286
13.0495
41.6403
65.0703
93.2256
128.766
171.218
216.72
258.884
286.763
363.539
549.02
567.026
364.244
229.906
148.731
109.165
97.0325
93.3208
85.9678
77.6806
69.8468
63.0796
57.6677
53.6937
51.0922
49.6786
49.1736
49.2483
49.5756
49.874
49.9193
49.5865
48.8449
47.7466
46.4099
44.9737
43.5655
42.2794
41.1659
40.2377
39.4843
38.8904
38.4317
38.073
37.7692
37.4672
37.11
36.6435
36.0237
35.2236
34.2329
33.0516
31.6833
30.1323
28.4047
26.511
24.4656
22.2797
19.9571
17.5847
16.095
48.4165
74.9462
107.931
151.222
205.73
267.769
330.621
383.364
468.399
712.145
615.833
366.215
219.719
138.943
103.705
95.2866
91.444
84.54
76.5635
68.6005
61.322
55.1463
50.3134
46.9039
44.8412
43.8986
43.7407
43.9931
44.3122
44.4298
44.1783
43.5194
42.5255
41.331
40.0886
38.9302
37.9417
37.1583
36.5724
36.1513
35.8589
35.6534
35.4875
35.3095
35.0657
34.7033
34.1752
33.4448
32.4885
31.2949
29.8605
28.187
26.2803
24.1525
21.8219
19.3079
16.6172
13.7285
10.6614
19.9638
57.2566
87.6502
126.57
179.503
249.765
334.282
427.081
503.216
572.55
848.587
627.178
349.184
201.614
126.899
98.0574
93.2306
89.5032
82.9594
75.3246
67.3886
59.7754
52.962
47.2968
42.9963
40.1165
38.5266
37.925
37.9148
38.1
38.1643
37.9153
37.309
36.4284
35.4241
34.4545
33.6397
33.0412
32.6634
32.4699
32.4035
32.4106
32.4382
32.4331
32.3433
32.1182
31.7114
31.0826
30.2
29.0424
27.5973
25.8601
23.8338
21.5298
18.9717
16.1948
13.241
10.1527
6.97241
3.83617
23.831
68.0118
102.589
148.115
211.633
301.542
392.205
469.766
533.756
672.103
894.133
558.957
310.413
177.012
113.877
92.7166
90.6971
87.2785
81.2345
73.9465
66.1239
58.3195
51.0097
44.5959
39.3929
35.5868
33.1722
31.9255
31.4615
31.3512
31.2381
30.9102
30.3256
29.5801
28.8322
28.2268
27.8491
27.7159
27.7905
28.0051
28.2819
28.5579
28.7767
28.8862
28.838
28.5876
28.0944
27.3239
26.2481
24.8476
23.1109
21.0364
18.6358
15.9394
13.0041
9.92407
6.84835
4.02326
1.82138
0.54576
27.8796
79.2853
119.152
172.655
245.481
324.831
388.902
458.396
547.406
711.489
825.386
466.211
259.239
149.687
101.427
88.0748
88.0961
84.8059
79.3079
72.3989
64.7465
56.8592
49.1862
42.1372
36.079
31.2999
27.9289
25.8611
24.7656
24.2067
23.8024
23.331
22.7612
22.2004
21.795
21.6452
21.7739
22.1395
22.6636
23.2555
23.8265
24.3136
24.6646
24.8329
24.7761
24.4554
23.8359
22.8875
21.5866
19.9173
17.8759
15.4757
12.7594
9.81582
6.81309
4.0492
1.94872
0.744192
0.227088
0.0572518
34.3352
90.9258
135.222
189.994
249.745
304.809
361.829
433.327
537.466
677.349
632.34
364.844
206.558
123.92
90.7844
84.2067
85.4287
82.4908
77.2938
70.6934
63.2241
55.326
47.4024
39.8401
33.0168
27.2798
22.8789
19.857
17.9876
16.8616
16.0905
15.4571
14.9451
14.6571
14.6875
15.0521
15.6939
16.5178
17.421
18.3068
19.0874
19.7068
20.1205
20.2886
20.1741
19.7437
18.9677
17.8218
16.29
14.3705
12.0851
9.4974
6.74688
4.10794
2.0207
0.800362
0.274567
0.0893439
0.0313105
0.0154152
37.912
98.5126
138.154
185.567
233.376
279.544
332.986
402.269
494.804
594.828
458.758
273.462
160.065
102.583
82.4829
81.314
82.6913
80.1111
75.197
68.8443
61.5452
53.6774
45.5904
37.632
30.1604
23.5415
18.1112
14.0735
11.3635
9.63638
8.51879
7.80725
7.48417
7.59003
8.10367
8.93586
9.97331
11.1063
12.2373
13.2813
14.1578
14.8169
15.2201
15.3321
15.1208
14.5579
13.6221
12.3017
10.6036
8.56729
6.29242
4.00354
2.07336
0.852026
0.29673
0.0996841
0.0376149
0.0186174
0.0128545
0.010974
35.325
98.8683
135.731
172.903
213.454
255.891
306.068
367.517
435.775
479.912
334.291
202.69
123.541
86.5805
76.4007
79.1634
80.2207
77.6921
73.0004
66.8544
59.7078
51.8914
43.7054
35.454
27.4635
20.0924
13.7274
8.73716
5.29619
3.15522
1.93217
1.51588
1.66353
2.18698
2.98058
3.97016
5.08243
6.24008
7.36547
8.38477
9.22311
9.82364
10.1482
10.1635
9.84295
9.16927
8.14062
6.78191
5.16745
3.4558
1.92049
0.854017
0.31457
0.107479
0.0401937
0.0197878
0.0135335
0.0113616
0.0103121
0.00951987
29.3329
96.0233
128.694
159.109
193.516
232.282
278.091
326.74
373.01
375.763
242.315
150.011
96.9276
75.3809
72.189
77.0057
77.9122
75.3485
70.7435
64.7405
57.7204
49.9635
41.724
33.2656
24.8855
16.9331
9.83937
4.18611
0.794688
0.106706
0.0588714
0.0539712
0.0639598
0.138115
0.395163
0.894562
1.58601
2.39203
3.22907
4.01532
4.67312
5.12468
5.32659
5.24984
4.88183
4.23447
3.35767
2.35865
1.41052
0.697126
0.288314
0.107498
0.0417651
0.0205518
0.013943
0.0116866
0.01063
0.00985244
0.00913956
0.00848861
26.4339
88.572
118.832
145.011
174.199
208.538
247.024
282.321
322.267
274.052
177.214
112.215
78.5604
67.8856
69.4893
75.0422
75.4928
72.9509
68.4165
62.5167
55.5983
47.9012
39.6396
31.0448
22.3947
14.0496
6.53384
0.991674
0.0605735
0.0539079
0.0515259
0.0486127
0.0454212
0.0431403
0.0447658
0.0604631
0.123784
0.289308
0.575749
0.938335
1.29456
1.54371
1.64199
1.57359
1.35362
1.03133
0.683767
0.389733
0.192415
0.0860271
0.0387165
0.0206827
0.0144017
0.0121249
0.0110378
0.0102532
0.00953017
0.00883807
0.00821586
0.00771793
24.5349
78.2282
106.146
129.685
155.132
184.321
213.654
243.474
271.264
203.303
130.028
85.6993
66.4242
63.0677
67.8117
73.181
73.2724
70.5534
66.0275
60.1976
53.3604
45.7203
37.4593
28.7845
19.9697
11.4152
3.83101
0.108197
0.047245
0.0466645
0.0458447
0.044511
0.0426165
0.0402478
0.0377582
0.035812
0.0355317
0.0391197
0.0512802
0.0807692
0.127496
0.175159
0.203422
0.200955
0.170687
0.125974
0.0821929
0.0492946
0.029361
0.0192743
0.0147675
0.0127544
0.0116405
0.010785
0.00999964
0.00926344
0.00858868
0.0079927
0.00749914
0.00712981
22.2599
69.5468
93.0332
114.113
136.434
160.433
184.298
211.928
216.283
147.343
95.676
67.759
58.7343
60.1531
67.1187
71.2847
71.0207
68.1475
63.5909
57.8003
51.0262
43.4395
35.1958
26.4876
17.5973
8.99687
1.76495
0.0407736
0.0373293
0.037592
0.0377337
0.0375774
0.0370284
0.0360895
0.0347777
0.0331726
0.0314566
0.029863
0.0287889
0.0287278
0.0299117
0.0318038
0.0330281
0.0322494
0.0292207
0.0248942
0.0206167
0.0172752
0.0150193
0.0135352
0.0124345
0.0114788
0.0105912
0.00976895
0.00902707
0.00837373
0.00780568
0.00732449
0.00693947
0.00666121
22.0709
61.9223
81.8549
100.37
119.6
139.601
160.442
180.858
161.121
106.304
71.4755
56.2754
54.1088
58.5843
66.5037
69.5893
68.7858
65.7181
61.1109
55.3402
48.6153
41.079
32.8665
24.1625
15.2724
6.7641
0.565065
0.0279748
0.0281108
0.0286753
0.0292229
0.0296357
0.0298399
0.0298047
0.0295031
0.0289337
0.0281196
0.0270889
0.025893
0.0246136
0.023334
0.0220943
0.0208599
0.0195769
0.0182355
0.0168836
0.0155916
0.014394
0.0132818
0.0122357
0.0112491
0.010338
0.00952172
0.0088048
0.00818291
0.00764717
0.00718662
0.00680161
0.00649731
0.00626931
21.1722
55.0079
72.771
89.2348
105.56
122.712
140.14
152.066
116.008
76.6563
55.554
49.4375
51.5643
58.0865
65.6776
67.7494
66.5459
63.2744
58.5976
52.831
46.1453
38.6571
30.4878
21.8216
12.9964
4.78111
0.128506
0.0202357
0.0206783
0.0212711
0.0218954
0.0224719
0.0229497
0.0232988
0.023481
0.0234761
0.02328
0.0228838
0.0222879
0.02151
0.0205878
0.0195644
0.0184663
0.0173244
0.0161714
0.0150249
0.0139025
0.0128234
0.0118043
0.010862
0.0100068
0.00924599
0.0085799
0.00800133
0.00750087
0.00706906
0.00669685
0.00638729
0.00614521
0.00595152
18.6587
48.8598
64.94
79.9207
94.141
108.887
121.904
123.563
82.8427
56.4901
45.9932
45.7268
50.4435
58.2487
64.724
65.9176
64.2693
60.8061
56.056
50.2841
43.6302
36.1907
28.075
19.4758
10.7747
3.04763
0.02853
0.0148391
0.0152528
0.0157746
0.016345
0.0169083
0.0174258
0.0178711
0.0182067
0.0184124
0.0184763
0.0183862
0.0181328
0.0177142
0.0171477
0.0164613
0.0156724
0.0148045
0.0138918
0.0129615
0.0120435
0.0111673
0.0103515
0.00960648
0.00893567
0.0083389
0.00781343
0.00735352
0.00695275
0.00660469
0.00630304
0.00605319
0.00586218
0.005699
15.8798
42.8789
57.214
70.446
82.9891
96.0846
109.039
90.0174
59.1027
43.8388
40.8548
44.0263
50.3108
58.9702
63.5574
64.0136
61.971
58.3158
53.4892
47.7069
41.0811
33.691
25.6419
17.1379
8.66679
1.60741
0.0123449
0.0111723
0.011517
0.0119496
0.0124334
0.0129285
0.0134046
0.0138381
0.0141969
0.0144629
0.0146215
0.0146631
0.0145789
0.0143622
0.014022
0.0135792
0.0130473
0.0124415
0.0117863
0.0111047
0.0104233
0.00976813
0.00915358
0.00858709
0.00807175
0.00760761
0.00719388
0.00682812
0.00650651
0.00622532
0.00598043
0.00577855
0.00562986
0.00549529
13.0873
37.0047
49.5951
60.0442
69.4986
83.8513
93.4166
63.4117
43.0808
36.8777
38.5186
43.605
50.8728
59.2134
62.3502
62.0455
59.6308
55.7978
50.8976
45.1041
38.5054
31.1683
23.1971
14.8158
6.68968
0.631126
0.00868452
0.00873227
0.00901111
0.00936194
0.00975923
0.0101767
0.010591
0.0109811
0.0113204
0.0115936
0.0117855
0.0118883
0.0118967
0.0118025
0.0116096
0.0113334
0.0109861
0.0105776
0.0101234
0.00963937
0.00914581
0.00866351
0.00820385
0.00777361
0.00737682
0.00701462
0.00668789
0.00639616
0.00613752
0.00591004
0.00571112
0.005548
0.00543403
0.00532551
10.6788
31.4977
42.2582
49.7246
59.9118
74.3888
66.0393
43.0321
33.714
33.7406
37.8573
44.0031
51.9677
58.9395
60.8462
59.9535
57.2314
53.2451
48.2806
42.4779
35.9079
28.6294
20.7511
12.5495
4.86949
0.168219
0.00698419
0.00711984
0.00734162
0.0076224
0.00794413
0.00828981
0.0086417
0.00898145
0.00928796
0.0095478
0.00974651
0.00987769
0.00993796
0.0099196
0.00982208
0.00965657
0.00943335
0.00916105
0.00884922
0.0085076
0.00815029
0.00779375
0.00744784
0.00711925
0.00681221
0.00652846
0.00626969
0.00603636
0.00582806
0.00564388
0.00548229
0.00535048
0.00526437
0.0051785
8.6586
26.4305
35.3263
42.7977
54.7809
61.8426
43.0946
31.3034
29.6206
32.8703
38.1792
44.9607
53.3422
58.31
59.2191
57.7664
54.7716
50.6538
45.6358
39.8287
33.2912
26.079
18.3088
10.3647
3.23153
0.0304956
0.00594207
0.00605301
0.00622597
0.00644902
0.00670883
0.00699323
0.00728839
0.00757927
0.00784921
0.00808692
0.00827895
0.00841963
0.00850657
0.00853284
0.00849588
0.00840243
0.00826122
0.00808075
0.00786754
0.00762671
0.00736714
0.00710152
0.00683932
0.00658703
0.00634856
0.00612565
0.00592022
0.00573328
0.00556527
0.00541596
0.00528464
0.00517813
0.00511387
0.00504714
7.04553
22.0489
30.0077
39.7134
51.1509
44.8393
30.1903
26.324
28.6014
33.2093
39.0806
46.2867
54.2476
57.363
57.3952
55.491
52.2585
48.0251
42.9621
37.1565
30.6569
23.5201
15.8849
8.27577
1.80935
0.00743665
0.00526677
0.00534573
0.00547784
0.00565416
0.00586392
0.00609741
0.00634348
0.0065902
0.00682441
0.00703674
0.0072149
0.00735349
0.00745029
0.00750048
0.00750073
0.00745427
0.00736749
0.00724867
0.00710313
0.00693328
0.00674393
0.0065448
0.00634489
0.0061503
0.00596436
0.00578881
0.00562541
0.00547542
0.00533969
0.00521847
0.00511165
0.00502547
0.004978
0.00492687
6.06467
19.4007
26.921
38.4971
47.7515
30.6341
24.0612
25.074
29.0239
34.1599
40.337
47.8923
54.1952
56.0624
55.4172
53.1325
49.6945
45.3597
40.2599
34.4612
28.006
20.9569
13.5142
6.30096
0.752089
0.00501923
0.00482974
0.00487965
0.00497766
0.00511572
0.00528431
0.00547534
0.00567968
0.0058878
0.00608906
0.00627557
0.00643633
0.00656607
0.00666281
0.00672346
0.00674549
0.0067294
0.00667877
0.0066011
0.00650167
0.00638158
0.00624315
0.00609334
0.00594025
0.00578935
0.00564368
0.00550497
0.00537468
0.0052541
0.00514426
0.00504566
0.00495862
0.00488872
0.00485394
0.00481535
6.04999
19.6729
29.4572
43.0832
32.0455
22.7005
22.2176
25.5481
30.0805
35.4272
41.8526
49.5621
53.6186
54.4889
53.2849
50.687
47.0762
42.6563
37.5289
31.7443
25.3409
18.3913
11.2069
4.46998
0.1991
0.00459676
0.00455499
0.00457929
0.00464817
0.00475388
0.00488783
0.0050431
0.00521188
0.00538623
0.00555746
0.00571865
0.00586054
0.00597839
0.00606982
0.00613316
0.00616683
0.00616949
0.00614255
0.00609219
0.00602389
0.00593878
0.00583741
0.00572458
0.00560689
0.00548912
0.0053743
0.00526419
0.00515999
0.00506285
0.00497374
0.00489337
0.00482218
0.00476535
0.00474003
0.00471145
7.63806
23.5471
34.3218
36.7525
21.904
19.847
22.658
26.7391
31.4345
36.892
43.5687
50.065
52.6498
52.6755
51.0076
48.1494
44.3964
39.9099
34.7678
29.0065
22.6642
15.8522
8.97941
2.83414
0.0306228
0.00443891
0.00439047
0.00439214
0.00443601
0.00451428
0.00461905
0.00474409
0.00488248
0.00502729
0.00517133
0.00530873
0.00543209
0.00553699
0.00562089
0.00568233
0.00572071
0.00573395
0.00572191
0.0056895
0.0056421
0.00558119
0.00550671
0.00542141
0.00533045
0.00523783
0.00514657
0.00505861
0.00497497
0.00489653
0.00482409
0.00475835
0.00469989
0.00465352
0.00463525
0.00461461
19.275
46.9313
28.8614
18.2944
17.4199
20.251
24.0118
28.2194
32.9609
38.5483
45.318
49.919
51.3326
50.6673
48.5975
45.5159
41.6478
37.1156
31.9756
26.2524
19.9825
13.3614
6.85841
1.44383
0.00617538
0.00437124
0.00430406
0.00428539
0.00430726
0.00436183
0.00444147
0.00454045
0.00465262
0.00477172
0.0048917
0.00500771
0.00511349
0.00520511
0.00527975
0.00533592
0.005374
0.00539171
0.00538847
0.00536778
0.00533447
0.00529025
0.00523506
0.00517019
0.00509935
0.0050259
0.00495276
0.00488203
0.00481459
0.00475107
0.00469201
0.00463813
0.00458993
0.00455193
0.00453888
0.00452463
10.525
16.5933
13.5555
15.4374
18.4944
21.893
25.6458
29.85
34.632
40.4052
46.5436
49.1563
49.5942
48.3935
46.0144
42.763
38.8154
34.2634
29.1486
23.4871
17.3137
10.9345
4.8862
0.48046
0.00460696
0.00435743
0.00427243
0.00423544
0.00423777
0.00427106
0.00432801
0.00440338
0.00449181
0.00458759
0.00468563
0.0047818
0.00487078
0.00494922
0.00501389
0.0050636
0.00509931
0.00511865
0.00512087
0.00510852
0.00508508
0.00505258
0.00501114
0.00496131
0.00490553
0.00484674
0.00478764
0.00473023
0.00467538
0.00462357
0.00457519
0.00453085
0.00449095
0.0044596
0.00445056
0.0044414
0.00448569
0.00523247
0.00658673
0.0203678
0.101721
0.306061
0.608692
0.963969
1.34455
1.73756
2.13784
2.54449
2.95938
3.38666
3.83268
4.30594
4.81631
5.37155
5.9698
6.75579
0.00444351
0.00511229
0.0064892
0.0213064
0.106939
0.318376
0.630439
0.998481
1.39573
1.80974
2.23632
2.67637
3.13473
3.61999
4.14493
4.72725
5.38986
6.15833
7.05176
8.13259
0.00440169
0.00499364
0.00639747
0.0222723
0.112309
0.331488
0.654674
1.03814
1.45531
1.89376
2.34982
2.82556
3.32761
3.86675
4.45775
5.1185
5.86662
6.7096
7.62509
8.56396
0.00436119
0.00488086
0.0063644
0.0240168
0.121583
0.353825
0.693957
1.09819
1.53978
2.00627
2.49429
3.00649
3.5501
4.13592
4.77724
5.48731
6.27395
7.12951
8.01857
8.88351
0.00432246
0.00477963
0.0065552
0.0289686
0.145545
0.406094
0.775245
1.20819
1.67901
2.17612
2.69682
3.24416
3.82522
4.44961
5.12774
5.86764
6.66981
7.52004
8.38376
9.21019
0.00428706
0.00470879
0.00787303
0.0481057
0.216888
0.534163
0.948172
1.41711
1.91937
2.44625
2.99668
3.57443
4.18628
4.84041
5.54447
6.30257
7.11131
7.95526
8.80464
9.61868
0.00426388
0.00490717
0.0187836
0.130267
0.410407
0.813125
1.28268
1.78874
2.31823
2.86763
3.43888
4.03714
4.66926
5.34229
6.06173
6.82924
7.63992
8.47945
9.32311
10.1391
0.00443231
0.0100815
0.100641
0.392078
0.828657
1.32807
1.85096
2.38435
2.92711
3.48322
4.05903
4.6619
5.29926
5.97731
6.69982
7.46694
8.27356
9.1073
9.94756
10.7689
0.0098885
0.0772792
0.426156
0.977715
1.57491
2.15466
2.70722
3.24161
3.77125
4.30911
4.86648
5.45326
6.07759
6.74473
7.45641
8.21142
9.00538
9.82846
10.6631
11.4874
0.106823
0.448545
1.24164
2.04945
2.74991
3.34556
3.86987
4.35677
4.83382
5.3214
5.83394
6.38258
6.97581
7.61723
8.30523
9.03651
9.80827
10.6147
11.441
12.2658
0.904272
1.65268
2.89824
3.7942
4.42569
4.90213
5.3009
5.6722
6.04956
6.45432
6.89827
7.39036
7.93871
8.54456
9.20099
9.90107
10.6435
11.4285
12.2448
13.0719
4.69053
4.6715
5.81717
6.31063
6.55573
6.72222
6.88275
7.07162
7.31004
7.60967
7.97172
8.39812
8.89516
9.46186
10.0866
10.7586
11.474
12.2355
13.0359
13.8637
18.4784
10.6799
9.98484
9.311
8.84333
8.55508
8.41232
8.39086
8.47895
8.66878
8.95059
9.31754
9.76504
10.2891
10.8869
11.5513
12.2685
13.0117
13.7719
14.5843
26.3768
17.53
13.8089
11.8748
10.7442
10.0617
9.66495
9.47717
9.4502
9.54995
9.77477
10.1157
10.5367
11.0246
11.618
12.3152
13.1088
13.8737
14.586
15.3193
20.1776
17.6714
14.6971
12.8161
11.5923
10.7958
10.2936
10.0101
9.89664
9.92313
10.0733
10.3319
10.6838
11.1272
11.6608
12.2822
12.9598
13.6475
14.3281
15.0292
17.3765
15.7611
13.7956
12.4091
11.4255
10.738
10.2768
9.99461
9.85889
9.84741
9.94293
10.1313
10.4053
10.7619
11.1899
11.6732
12.1865
12.7163
13.2679
13.8618
15.8106
14.207
12.606
11.4913
10.7017
10.1428
9.75969
9.51743
9.39221
9.36684
9.42769
9.5643
9.77004
10.0385
10.3583
10.7149
11.0941
11.4916
11.9117
12.3561
14.532
12.9188
11.4084
10.3963
9.70868
9.2384
8.92304
8.72549
8.6224
8.59792
8.64041
8.74116
8.89331
9.08983
9.32172
9.57912
9.8543
10.1442
10.4486
10.762
13.1944
11.6305
10.1471
9.18312
8.55594
8.14718
7.88536
7.72798
7.6492
7.63253
7.66674
7.74367
7.85675
7.99973
8.16602
8.34925
8.5445
8.74877
8.95929
9.17024
11.6479
10.1964
8.75194
7.84553
7.28078
6.93099
6.71937
6.60038
6.54672
6.54153
6.57382
6.63594
6.72198
6.82681
6.94565
7.07419
7.20893
7.34706
7.48555
7.61987
9.7952
8.53679
7.18306
6.37766
5.90281
5.62614
5.47084
5.39271
5.36589
5.37479
5.40952
5.4634
5.53151
5.60982
5.69486
5.7836
5.87347
5.96216
6.04723
6.12555
7.55644
6.60977
5.43538
4.79553
4.44862
4.26449
4.17414
4.14022
4.14172
4.16627
4.20617
4.2563
4.31293
4.37311
4.43436
4.49456
4.55186
4.6046
4.65105
4.68928
4.86892
4.41807
3.55378
3.15041
2.96315
2.88361
2.86141
2.8714
2.90011
2.93979
2.98564
3.0344
3.08361
3.13132
3.17583
3.21573
3.24979
3.27695
3.2962
3.3065
1.83296
2.08139
1.67483
1.54479
1.51694
1.53286
1.56906
1.61477
1.66454
1.7153
1.76505
1.81226
1.85562
1.89394
1.92616
1.9514
1.96899
1.97844
1.9794
1.97162
3.27289
3.16073
4.16125
4.38778
4.28305
4.09416
4.00233
3.96336
3.98833
4.08609
4.26459
4.53495
4.91926
5.47109
6.35053
6.80423
7.12986
8.6899
9.56349
9.70162
9.58977
9.45696
9.40975
9.4986
9.7496
10.178
10.7977
11.6263
12.6836
13.961
8.98651
8.4276
8.20862
8.41312
8.82898
9.23402
9.59729
9.97625
10.4305
11.0015
11.7148
12.5856
13.6203
14.8099
16.1088
9.60184
9.78909
9.66062
9.55155
9.58182
9.78523
10.1366
10.6174
11.2246
11.9619
12.8332
13.8386
14.9722
16.2189
17.553
9.94855
10.4491
10.6663
10.7503
10.8388
11.0205
11.3407
11.8135
12.4391
13.2118
14.1234
15.1631
16.3189
17.5806
18.9477
10.3721
11.0029
11.4448
11.758
12.0295
12.3311
12.7207
13.2316
13.8783
14.6624
15.5778
16.615
17.767
19.0366
20.4475
10.917
11.631
12.2196
12.7123
13.1565
13.6017
14.098
14.6814
15.3728
16.1806
17.1053
18.1453
19.3054
20.6059
22.0884
11.5705
12.3463
13.0398
13.6677
14.251
14.8256
15.4305
16.0981
16.8501
17.6994
18.654
19.7222
20.9223
22.2919
23.8934
12.3061
13.1273
13.8993
14.627
15.3214
16.0072
16.7144
17.4708
18.2966
19.2076
20.2199
21.3501
22.6405
24.1648
25.9511
13.0968
13.9525
14.781
15.5867
16.3731
17.1579
17.966
18.8194
19.7332
20.731
21.8599