/*--------------------------------*- C++ -*----------------------------------*\
| =========                 |                                                 |
| \\      /  F ield         | OpenFOAM: The Open Source CFD Toolbox           |
|  \\    /   O peration     | Version:  v1912                                 |
|   \\  /    A nd           | Website:  www.openfoam.com                      |
|    \\/     M anipulation  |                                                 |
\*---------------------------------------------------------------------------*/
FoamFile
{
    version     2.0;
    format      ascii;
    class       volScalarField;
    location    "12";
    object      nut;
}
// * * * * * * * * * * * * * * * * * * * * * * * * * * * * * * * * * * * * * //

dimensions      [0 2 -1 0 0 0 0];


internalField   nonuniform List<scalar> 
20320
(
0.0347185
0.00760037
0.00767022
0.00773828
0.00780417
0.0078677
0.00792853
0.00798629
0.00804103
0.00809936
0.00824973
0.00922942
0.0133838
0.0215112
0.0311586
0.0398285
0.0459381
0.0485227
0.0464553
0.0360243
0.0352093
0.0352276
0.0353372
0.0354729
0.0356223
0.0357387
0.0358169
0.0356808
0.034108
0.0272922
0.0313105
0.0825904
0.181064
0.28315
0.352165
0.376541
0.364501
0.334615
0.290556
0.157562
0.0353082
0.0355116
0.0358698
0.0363931
0.0371358
0.0381317
0.0391574
0.0379006
0.0286279
0.0355798
0.103079
0.236014
0.388506
0.518783
0.605532
0.642224
0.631901
0.577827
0.461037
0.208176
0.0354535
0.0358928
0.0364976
0.037244
0.0382028
0.0392483
0.0386352
0.03024
0.0317772
0.092007
0.232463
0.413227
0.586884
0.726262
0.818138
0.856754
0.838714
0.754978
0.577218
0.239958
0.0356344
0.0363956
0.0373076
0.0383548
0.0394972
0.0398066
0.0340604
0.0277033
0.0667225
0.191878
0.382305
0.585698
0.767235
0.90852
0.99942
1.03301
1.00114
0.888413
0.662711
0.263308
0.0358469
0.0369974
0.0383071
0.0396777
0.0407425
0.0383562
0.0284787
0.0432144
0.134773
0.314001
0.532611
0.74615
0.929685
1.06929
1.15579
1.18082
1.13328
0.994402
0.730049
0.282015
0.036077
0.0376836
0.0394361
0.0410668
0.0412285
0.0340914
0.030525
0.081085
0.226727
0.442417
0.676061
0.893631
1.07627
1.21231
1.29266
1.30781
1.24471
1.08265
0.785984
0.297826
0.0363168
0.0384305
0.0405884
0.042281
0.0399412
0.0298344
0.0452076
0.140612
0.330734
0.569008
0.810436
1.02894
1.20927
1.34086
1.41443
1.41952
1.34178
1.15909
0.834481
0.311724
0.0365583
0.0391624
0.0417222
0.042781
0.0364065
0.0305152
0.0747268
0.215892
0.438199
0.690123
0.935391
1.1533
1.33075
1.45771
1.52457
1.52007
1.42885
1.22761
0.878126
0.324369
0.0367831
0.0398456
0.0426693
0.0419679
0.0320291
0.0389369
0.118624
0.299664
0.543987
0.804184
1.05121
1.26792
1.44252
1.56516
1.62584
1.61258
1.50911
1.29104
0.918813
0.336264
0.0369741
0.0404693
0.04314
0.0395362
0.0295696
0.0561045
0.173479
0.385966
0.645173
0.910538
1.15838
1.37392
1.54614
1.66518
1.72057
1.69963
1.58518
1.35168
0.958135
0.347858
0.0371247
0.040979
0.0429107
0.0358139
0.0308908
0.0817185
0.234544
0.470619
0.740078
1.00895
1.2574
1.47226
1.64297
1.75948
1.81083
1.78353
1.65942
1.4117
0.997646
0.359615
0.0372335
0.0412928
0.041905
0.031823
0.0364024
0.113996
0.297361
0.550885
0.827744
1.09939
1.34878
1.56385
1.73428
1.84976
1.89867
1.86666
1.73437
1.47348
1.03913
0.372092
0.0372981
0.0413573
0.0401796
0.0286957
0.0456963
0.150155
0.358428
0.625005
0.907618
1.18195
1.43301
1.64955
1.82134
1.93771
1.98632
1.95169
1.81302
1.53998
1.08493
0.386054
0.0373155
0.0411736
0.0379166
0.0270182
0.0578467
0.187237
0.415252
0.691879
0.979406
1.25677
1.51057
1.73017
1.9054
2.02519
2.07631
2.04193
1.8993
1.61537
1.13854
0.402696
0.0372849
0.040784
0.0353894
0.0267494
0.0715669
0.222707
0.466203
0.750884
1.04302
1.32408
1.58194
1.80654
1.98779
2.11422
2.17166
2.14161
1.9987
1.70593
1.20563
0.424112
0.0372099
0.0402496
0.0328814
0.0275032
0.0854655
0.254692
0.510321
0.801756
1.09853
1.38414
1.64759
1.87942
2.06977
2.2069
2.27577
2.25598
2.11874
1.82127
1.29599
0.454376
0.0370977
0.0396333
0.0306032
0.0288026
0.0983153
0.282009
0.547194
0.844553
1.14622
1.43736
1.70803
1.94952
2.1524
2.30503
2.39176
2.39044
2.26832
1.97468
1.42596
0.502107
0.0369579
0.0389888
0.0286555
0.030221
0.109255
0.304145
0.576935
0.879725
1.18669
1.48438
1.76391
2.01744
2.23628
2.40932
2.52092
2.54776
2.45339
2.1779
1.61551
0.58549
0.0368003
0.0383549
0.0270443
0.0314583
0.11789
0.321245
0.600248
0.908294
1.22111
1.5264
1.81627
2.08386
2.32143
2.51873
2.66067
2.72349
2.66783
2.42472
1.86285
0.731322
0.20027
0.123484
0.138741
0.148504
0.157039
0.165802
0.17588
0.187658
0.201334
0.217165
0.23405
0.250727
0.270739
0.278197
0.261017
0.243896
0.22847
0.213614
0.199011
0.185038
0.172255
0.160986
0.151358
0.143191
0.136086
0.129823
0.124298
0.119412
0.115092
0.111287
0.10793
0.10497
0.102329
0.0999114
0.0976813
0.0956628
0.0938629
0.0922784
0.0908754
0.0896301
0.0885343
0.0874387
0.0861612
0.0847123
0.0833158
0.0820667
0.0809953
0.080094
0.0793537
0.0786995
0.0780119
0.0772072
0.0762336
0.0752714
0.0745139
0.0739965
0.0737083
0.0736092
0.073595
0.0735145
0.237088
1.53378
2.15281
2.45966
2.65898
2.81078
2.96445
3.14293
3.34544
3.58978
3.90684
4.28934
4.57175
4.72742
4.53444
4.19227
3.8463
3.50189
3.16589
2.86236
2.60828
2.40458
2.23901
2.10271
1.99015
1.89696
1.82021
1.75724
1.70563
1.66346
1.62921
1.60144
1.57729
1.55317
1.52987
1.51009
1.49418
1.48125
1.47049
1.461
1.45026
1.43565
1.41388
1.38491
1.35683
1.33562
1.32116
1.31204
1.30575
1.29982
1.29262
1.28269
1.26823
1.2524
1.24383
1.24392
1.25026
1.25919
1.26585
1.26749
0.243308
2.38563
3.50959
4.15211
4.55517
4.83537
5.06885
5.33548
5.66848
6.08832
6.63762
7.30766
7.59479
7.59537
7.3483
6.92873
6.47857
6.00613
5.52276
5.06952
4.67556
4.34481
4.06638
3.83029
3.632
3.46681
3.33055
3.21917
3.12896
3.05663
2.99923
2.95381
2.9159
2.87987
2.84567
2.81641
2.79243
2.77252
2.75541
2.73926
2.72072
2.69596
2.66059
2.61469
2.56929
2.53336
2.50774
2.49098
2.47997
2.47073
2.46006
2.44605
2.42668
2.40591
2.39438
2.3937
2.40034
2.40961
2.41473
2.41167
0.236555
2.72086
4.1308
5.11374
5.78839
6.23799
6.54292
6.83315
7.19936
7.67312
8.27495
9.07214
9.44465
9.06426
8.75396
8.38508
8.00036
7.57796
7.1164
6.65899
6.23866
5.86234
5.52823
5.23284
4.97858
4.76407
4.58569
4.43925
4.32049
4.22537
4.14995
4.08994
4.03996
3.99292
3.94775
3.90768
3.87263
3.8413
3.81243
3.78364
3.75169
3.71294
3.66392
3.60472
3.54641
3.49859
3.46224
3.43646
3.41786
3.4021
3.38557
3.36651
3.34321
3.31879
3.30258
3.29474
3.2916
3.28929
3.28065
3.26341
0.225408
2.79134
4.39942
5.55382
6.49401
7.15757
7.58015
7.89648
8.25394
8.7263
9.31375
9.95899
10.4735
9.72722
9.26602
8.96186
8.73084
8.4795
8.16023
7.79402
7.41853
7.04872
6.69835
6.38006
6.0984
5.85744
5.65534
5.48861
5.35281
5.24341
5.15575
5.08446
5.02351
4.96502
4.90701
4.85305
4.8024
4.75415
4.70765
4.66051
4.61007
4.55336
4.48836
4.41604
4.34646
4.28767
4.24014
4.20411
4.17571
4.1511
4.12671
4.10077
4.07149
4.04214
4.01957
4.00093
3.98313
3.96296
3.93384
3.89779
0.215249
2.72788
4.48548
5.79061
6.89041
7.74159
8.30442
8.66235
8.99469
9.43534
9.98892
10.4735
10.6607
9.8926
9.24293
8.952
8.89762
8.89321
8.79949
8.57364
8.27994
7.94645
7.60906
7.29589
7.01688
6.77474
6.56857
6.39721
6.25622
6.14067
6.04578
5.9655
5.89305
5.82167
5.74929
5.67848
5.60813
5.53815
5.46888
5.39967
5.32773
5.25082
5.16818
5.08194
5.00211
4.93308
4.87377
4.82428
4.78398
4.74835
4.71411
4.67915
4.64144
4.60447
4.57311
4.5413
4.5045
4.46294
4.41222
4.35457
0.205881
2.64147
4.51773
5.88898
7.09396
8.08843
8.79267
9.21198
9.5117
9.87958
10.339
10.6637
10.5185
9.6783
8.91911
8.60762
8.70799
8.97622
9.14677
9.05789
8.84729
8.56847
8.27338
7.99677
7.74684
7.52777
7.33808
7.17672
7.04015
6.92379
6.82303
6.73311
6.64786
6.56124
6.47218
6.38182
6.2889
6.19388
6.10061
6.00726
5.91201
5.81379
5.71288
5.61235
5.52073
5.44025
5.369
5.31035
5.26131
5.21421
5.16763
5.1204
5.07095
5.02191
4.97607
4.92705
4.8721
4.81465
4.74417
4.66528
0.19757
2.58746
4.57838
5.90928
7.15528
8.25507
9.08946
9.59593
9.87912
10.1384
10.4408
10.5742
10.164
9.23951
8.45236
8.13835
8.3617
8.87873
9.3044
9.26854
9.12995
8.94528
8.73372
8.52221
8.32251
8.14007
7.97632
7.83146
7.70337
7.58862
7.48356
7.38416
7.2844
7.18042
7.07194
6.95977
6.84348
6.72527
6.60988
6.49394
6.37643
6.25821
6.1407
6.02745
5.92464
5.83382
5.75389
5.68802
5.63051
5.57285
5.51356
5.45219
5.38814
5.32348
5.25941
5.19105
5.11771
5.0399
4.94699
4.84602
0.190522
2.54446
4.59095
5.91139
7.10265
8.27618
9.22774
9.84074
10.1467
10.2872
10.3874
10.3266
9.7522
8.76698
7.98574
7.69593
8.01877
8.72675
9.264
9.29529
9.26643
9.18358
9.06217
8.92045
8.77367
8.63051
8.49482
8.36821
8.24985
8.13735
8.02802
7.91858
7.80385
7.68128
7.55185
7.41705
7.27798
7.13805
7.00133
6.86513
6.72857
6.59372
6.463
6.33975
6.22841
6.13011
6.04419
5.97143
5.90503
5.83662
5.76407
5.6873
5.60657
5.52352
5.43845
5.34839
5.25296
5.14953
5.03001
4.90447
0.184198
2.48098
4.47303
5.95977
7.00787
8.19102
9.23705
9.96827
10.33
10.366
10.2611
10.0697
9.39201
8.38541
7.61356
7.35774
7.77038
8.59839
9.11476
9.30234
9.37156
9.36503
9.30869
9.22104
9.11728
9.00744
8.89649
8.78655
8.67715
8.56629
8.45199
8.33158
8.20128
8.05981
7.90918
7.75225
7.59173
7.43182
7.276
7.12278
6.9717
6.825
6.68543
6.55604
6.43983
6.33725
6.24721
6.16802
6.09247
6.01278
5.92626
5.83288
5.73345
5.62932
5.52055
5.40543
5.28288
5.14883
4.99824
4.84489
0.177547
2.4022
4.31616
5.92573
7.03381
8.11853
9.1818
10.0133
10.4443
10.398
10.1402
9.88892
9.14427
8.12297
7.34736
7.13137
7.6456
8.54447
9.0882
9.36104
9.48535
9.51832
9.49394
9.43519
9.35742
9.27006
9.17744
9.08063
8.97829
8.86817
8.74827
8.61643
8.47038
8.3103
8.13938
7.96191
7.7822
7.60507
7.43381
7.26805
7.1077
6.95468
6.81151
6.68055
6.5634
6.45953
6.36686
6.28175
6.19691
6.10522
6.00375
5.8924
5.77218
5.64426
5.50873
5.36446
5.20964
5.04033
4.85467
4.67051
0.17089
2.34101
4.23038
5.84836
7.20179
8.2251
9.18458
10.0251
10.5042
10.4032
10.0895
9.82827
9.00045
7.94733
7.15303
6.99052
7.64189
8.60813
9.19537
9.4853
9.61195
9.6433
9.61807
9.56207
9.49111
9.41324
9.33078
9.24241
9.1447
9.03422
8.90838
8.7653
8.60416
8.42668
8.2374
8.04214
7.84669
7.65646
7.47485
7.3022
7.1386
6.98535
6.84417
6.71633
6.60195
6.49936
6.40526
6.31463
6.22025
6.11571
5.99804
5.86706
5.72377
5.56919
5.40344
5.2256
5.03379
4.82536
4.60161
4.38458
0.166458
2.37716
4.29115
5.91108
7.28149
8.40231
9.30184
10.0403
10.506
10.39
10.1406
9.89854
8.94066
7.81476
6.99324
6.90938
7.73468
8.78733
9.40521
9.666
9.74894
9.73801
9.67901
9.59958
9.51528
9.43233
9.35021
9.26428
9.16803
9.05577
8.92379
8.77026
8.59553
8.40289
8.1984
7.9894
7.78304
7.58535
7.3998
7.22703
7.06686
6.91972
6.78608
6.6658
6.5575
6.45825
6.36356
6.26753
6.16313
6.04461
5.9092
5.75658
5.58763
5.40319
5.20347
4.98784
4.75518
4.50494
4.24152
3.99065
0.168222
2.5796
4.51169
6.05843
7.33066
8.39906
9.32606
10.0544
10.4588
10.384
10.3469
10.1107
8.92827
7.69059
6.84378
6.87606
7.91051
9.07072
9.67311
9.8866
9.89469
9.80624
9.68093
9.55073
9.43117
9.32638
9.2325
9.14098
9.04163
8.92545
8.78702
8.62415
8.43808
8.23356
8.01823
7.80096
7.5901
7.39209
7.2103
7.04509
6.89553
6.76083
6.63996
6.53122
6.43172
6.33725
6.24236
6.1406
6.02533
5.89139
5.73625
5.55955
5.36193
5.14419
4.90674
4.64976
4.37369
4.08059
3.77734
3.4921
0.178391
2.91835
4.83334
6.25229
7.40385
8.37523
9.23443
10.08
10.4755
10.4692
10.7292
10.4519
8.92623
7.54631
6.69427
6.89406
8.15649
9.39394
9.97227
10.1268
10.0445
9.85408
9.63361
9.42486
9.24594
9.09964
8.97888
8.87099
8.76168
8.63824
8.49249
8.32142
8.12676
7.91457
7.69402
7.47554
7.26823
7.07851
6.90924
6.75991
6.62831
6.51215
6.40881
6.31491
6.22616
6.13722
6.04189
5.93355
5.806
5.65471
5.47741
5.27368
5.04409
4.78952
4.51108
4.21033
3.89005
3.55476
3.21253
2.8913
0.196449
3.27642
5.18731
6.50878
7.59797
8.54494
9.36223
10.1014
10.5393
10.6969
11.2547
10.762
8.87341
7.35838
6.54786
6.98024
8.47058
9.72336
10.2771
10.368
10.1905
9.8857
9.54884
9.23582
8.97211
8.7618
8.5956
8.45723
8.32824
8.19218
8.03727
7.85883
7.65861
7.4437
7.22503
7.01393
6.81973
6.64824
6.50107
6.37626
6.26983
6.17785
6.09602
6.01942
5.94245
5.8589
5.76213
5.64565
5.50381
5.33269
5.13028
4.89624
4.63125
4.33672
4.01502
3.66984
3.30654
2.93148
2.55158
2.1893
0.219243
3.59913
5.57098
6.86747
7.96954
8.97735
9.85363
10.5453
11.0108
11.2215
11.9784
10.8581
8.70655
7.1148
6.42438
7.16033
8.8541
10.0655
10.5708
10.5945
10.3232
9.90197
9.43716
8.99941
8.62613
8.32719
8.09373
7.90717
7.74568
7.58888
7.42154
7.23595
7.03325
6.82181
6.6134
6.41972
6.24957
6.10721
5.99224
5.90052
5.82601
5.76302
5.70563
5.64757
5.58224
5.50285
5.40272
5.27574
5.11694
4.92294
4.69214
4.42441
4.12095
3.78431
3.41878
3.03072
2.62797
2.21771
1.80318
1.39257
0.245436
3.92486
6.00647
7.33538
8.49841
9.62387
10.6444
11.4497
11.9206
11.8115
12.6037
10.7747
8.41794
6.8305
6.364
7.46198
9.28693
10.4218
10.8486
10.796
10.434
9.90092
9.30607
8.73074
8.22637
7.81365
7.48838
7.23237
7.02224
6.83419
6.64893
6.45569
6.25431
6.05327
5.86481
5.70012
5.56619
5.46459
5.39191
5.34132
5.30444
5.27385
5.24226
5.20235
5.14698
5.06926
4.96286
4.82229
4.64324
4.42302
4.16047
3.85612
3.51221
3.13308
2.72573
2.29962
1.8651
1.43025
0.996898
0.567889
0.269452
4.31636
6.49532
7.88352
9.12354
10.4023
11.4411
12.05
12.2115
12.3865
12.7561
10.3609
8.01297
6.54367
6.42262
7.90481
9.7499
10.7703
11.1032
10.9662
10.5164
9.87941
9.15959
8.44237
7.7911
7.24082
6.79741
6.44744
6.16911
5.93693
5.72728
5.52539
5.32918
5.14671
4.98966
4.86725
4.78289
4.73391
4.713
4.71013
4.71456
4.71746
4.71063
4.68636
4.63757
4.55779
4.44131
4.28342
4.08062
3.83091
3.53393
3.19129
2.80706
2.38838
1.94605
1.49427
1.04987
0.635611
0.296087
0.0896841
0.293197
4.69795
7.01919
8.47807
9.7807
10.9436
11.6775
12.0954
12.2972
12.6611
12.443
9.65656
7.50393
6.31134
6.65785
8.47919
10.235
11.0979
11.3238
11.0992
10.5656
9.83404
8.99899
8.14334
7.3369
6.62895
6.04049
5.56894
5.1993
4.90772
4.66644
4.45541
4.26981
4.11663
4.00544
3.94087
3.9203
3.93507
3.97314
4.02136
4.06713
4.10103
4.11491
4.10149
4.05433
3.96773
3.83688
3.65788
3.42817
3.14666
2.81428
2.43457
2.01484
1.56739
1.11198
0.681922
0.336678
0.129196
0.0393942
0.0109207
0.327109
5.07758
7.52823
8.98053
10.1408
10.9961
11.5735
11.9656
12.3351
12.6732
11.5464
8.90079
7.0027
6.21896
7.107
9.1364
10.7052
11.3994
11.5046
11.191
10.5784
9.76184
8.82355
7.83885
6.87728
5.99752
5.23801
4.61405
4.12572
3.75702
3.4772
3.25933
3.09443
2.98701
2.94119
2.95272
3.00945
3.09531
3.19395
3.29058
3.37223
3.43036
3.45792
3.44869
3.39721
3.29877
3.14946
2.94641
2.68813
2.37508
2.01062
1.6026
1.16664
0.734485
0.371289
0.147681
0.0502593
0.0168306
0.00726432
0.00726648
0.345256
5.39399
7.8208
9.17418
10.1708
10.8859
11.4184
11.8515
12.2383
12.3217
10.4693
8.16598
6.60289
6.34398
7.75695
9.8218
11.1323
11.6553
11.6407
11.2397
10.5533
9.66079
8.63169
7.53114
6.42229
5.36529
4.41208
3.60131
2.96047
2.49333
2.17099
1.95702
1.8358
1.80386
1.85073
1.9557
2.09521
2.24836
2.39837
2.53199
2.63806
2.70997
2.74221
2.72976
2.66817
2.55366
2.38342
2.15594
1.87176
1.53482
1.15523
0.75937
0.404474
0.167296
0.05774
0.0197419
0.00855316
0.00641378
0.00965737
0.0219327
0.335115
5.44323
7.93664
9.17194
10.054
10.734
11.288
11.7492
12.0278
11.6225
9.49904
7.49058
6.35833
6.71826
8.5321
10.4659
11.5049
11.8545
11.7274
11.2446
10.4901
9.52983
8.4217
7.22004
5.978
4.74897
3.58744
2.55256
1.71349
1.11337
0.723326
0.564758
0.576865
0.68338
0.84363
1.033
1.23285
1.428
1.60606
1.7569
1.87178
1.94541
1.97327
1.95116
1.87558
1.74398
1.55537
1.31158
1.02008
0.700629
0.398454
0.178344
0.0652099
0.0226006
0.00955627
0.00675997
0.00873492
0.0158627
0.0296784
0.0450219
0.307005
5.34875
7.87466
9.06209
9.86816
10.5387
11.1231
11.5464
11.632
10.7736
8.58878
6.91673
6.32092
7.31672
9.33003
11.0067
11.804
11.9966
11.7647
11.2063
10.3896
9.36896
8.19229
6.904
5.54669
4.16194
2.79329
1.50097
0.411184
0.0772853
0.0463537
0.0345746
0.0320243
0.0585043
0.149927
0.30336
0.4848
0.669298
0.839694
0.983061
1.09038
1.15489
1.172
1.13838
1.05225
0.914639
0.731807
0.520509
0.314128
0.155144
0.0637591
0.0241893
0.0105941
0.00739258
0.00922168
0.0157828
0.0272625
0.0403343
0.0494547
0.0525749
0.292673
5.09246
7.64782
8.85412
9.62283
10.2772
10.8382
11.1543
11.0696
9.68071
7.72632
6.46651
6.51972
8.05786
10.0596
11.4393
12.0177
12.0784
11.7542
11.1273
10.2538
9.17895
7.94258
6.58089
5.12709
3.61073
2.0579
0.50458
0.0837188
0.0761591
0.0676675
0.0573511
0.0444713
0.0328702
0.0252943
0.0260193
0.046249
0.100999
0.187647
0.283864
0.366136
0.415151
0.425797
0.397776
0.336129
0.252654
0.165445
0.0931992
0.0458528
0.0211729
0.0109423
0.00833312
0.010522
0.0175632
0.0289989
0.0410527
0.0493054
0.0527851
0.0530744
0.0518655
0.283679
4.7446
7.27749
8.53296
9.30169
9.91838
10.3858
10.5786
10.245
8.569
6.91436
6.19459
6.95242
8.83286
10.6613
11.7622
12.1628
12.1052
11.6994
11.0105
10.085
8.96125
7.67251
6.24858
4.71545
3.09349
1.39296
0.0978838
0.0957731
0.0924273
0.0880564
0.081851
0.0729145
0.0609186
0.0477259
0.0353872
0.0259252
0.0207642
0.0208948
0.0278411
0.040146
0.0520751
0.0579654
0.055453
0.0460821
0.0337596
0.0224655
0.014555
0.0105181
0.0100771
0.0135082
0.0216325
0.0333864
0.0445121
0.0514747
0.0541866
0.0542406
0.0530783
0.0515396
0.0499661
0.271845
4.43938
6.85698
8.13059
8.90066
9.45255
9.79295
9.82802
9.16914
7.44626
6.21148
6.16887
7.56535
9.5472
11.1423
11.9865
12.2427
12.0847
11.6055
10.8595
9.88602
8.71753
7.38229
5.90513
4.30675
2.60144
0.772736
0.0876315
0.0977394
0.0976172
0.0969534
0.0951257
0.0915564
0.0857358
0.0773728
0.0669266
0.0551243
0.0430838
0.0322591
0.024249
0.0194417
0.0169785
0.0156541
0.0146123
0.0136195
0.0129987
0.013428
0.0158381
0.021339
0.0304384
0.0413079
0.0502209
0.0551013
0.0565317
0.0559563
0.0544918
0.0527561
0.0510657
0.0495517
0.0481987
0.27222
4.17043
6.4591
7.70205
8.43621
8.89188
9.07787
8.90673
7.8931
6.39176
5.71461
6.42874
8.26134
10.1487
11.5013
12.1417
12.2687
12.0227
11.477
10.6781
9.65959
8.44969
7.07257
5.5491
3.89619
2.12206
0.300293
0.0887481
0.0917499
0.0932328
0.0945584
0.0953422
0.0952423
0.0939948
0.091381
0.0872673
0.0816056
0.0744051
0.0659436
0.0569029
0.0483277
0.0412678
0.0363686
0.0338438
0.033708
0.0359935
0.0406346
0.0469294
0.0532239
0.0576876
0.0595802
0.0593958
0.0580269
0.0561625
0.0541977
0.052321
0.0506051
0.0491048
0.0478252
0.0466282
0.268549
3.92444
6.08128
7.25555
7.90795
8.22622
8.2318
7.83027
6.57034
5.48989
5.52179
6.9352
8.94042
10.6396
11.7601
12.2326
12.2518
11.9258
11.3183
10.4693
9.40815
8.15935
6.74401
5.17962
3.4797
1.65649
0.0877565
0.0801042
0.0819747
0.0838781
0.0858128
0.0875383
0.0888651
0.0896571
0.0897881
0.0891918
0.0878431
0.0857195
0.0828459
0.0793505
0.0755187
0.0717788
0.0686016
0.066393
0.0652891
0.065025
0.0650458
0.064746
0.0637708
0.0621356
0.0600792
0.0578716
0.0557045
0.0536786
0.0518348
0.0501816
0.0487119
0.0474519
0.0463929
0.0453072
0.253727
3.66734
5.67627
6.74221
7.27472
7.43236
7.23486
6.60925
5.36321
4.85067
5.68304
7.58318
9.54451
11.0351
11.9497
12.2779
12.1981
11.7986
11.1328
10.2357
9.13359
7.84808
6.39715
4.79583
3.05413
1.19379
0.0344711
0.0702581
0.0718117
0.0736077
0.0755124
0.0773559
0.0790125
0.0803936
0.0814011
0.0819886
0.0821372
0.0818338
0.0810759
0.0798843
0.0783378
0.0765514
0.0746103
0.0725874
0.0705286
0.068408
0.0661949
0.0639
0.0615643
0.0592526
0.057031
0.0549491
0.0530359
0.0513011
0.0497429
0.0483528
0.0471191
0.0460704
0.0452061
0.0442319
0.235559
3.3535
5.19274
6.10372
6.47187
6.45788
6.1439
5.25042
4.37511
4.59968
6.16349
8.26501
10.0642
11.3749
12.0826
12.2858
12.1144
11.6446
10.9225
9.9789
8.83723
7.5165
6.03248
4.39724
2.62276
0.72664
0.0400573
0.0616645
0.0629663
0.0645204
0.066213
0.0679154
0.0695285
0.0709769
0.0721722
0.0730666
0.0736283
0.0738407
0.0736898
0.0731616
0.0722831
0.0711092
0.0696676
0.0679849
0.0661113
0.0640925
0.0619921
0.0598887
0.0578342
0.055865
0.0540093
0.0522832
0.050698
0.0492583
0.0479611
0.0468014
0.0457712
0.0449021
0.0442071
0.0433494
0.215228
2.97595
4.62626
5.34289
5.48083
5.33641
4.98662
4.04561
3.75737
4.80471
6.84938
8.91539
10.5157
11.645
12.1782
12.2613
12.0028
11.4653
10.6885
9.69966
8.51959
7.16512
5.64972
3.9828
2.18454
0.332695
0.0496915
0.0548034
0.0558855
0.0572025
0.0586633
0.0601745
0.0616541
0.0630305
0.0642228
0.0651846
0.0658753
0.0662777
0.0663806
0.0661609
0.0656289
0.0648275
0.0637844
0.0625207
0.0610756
0.0594896
0.0578228
0.0561452
0.0544992
0.0529132
0.0514103
0.0500026
0.0487011
0.0475125
0.0464367
0.0454724
0.0446152
0.0438976
0.0433467
0.0426048
0.195685
2.55452
3.98527
4.47825
4.42939
4.26811
3.73884
3.15453
3.6481
5.39932
7.61102
9.51026
10.9244
11.8558
12.2307
12.205
11.8637
11.2609
10.4309
9.39794
8.18066
6.79387
5.24883
3.55475
1.74227
0.105212
0.0483914
0.0495554
0.0504491
0.0515576
0.0528079
0.0541321
0.0554618
0.05673
0.0578653
0.0588235
0.0595606
0.0600598
0.0603143
0.0603002
0.0600156
0.0594947
0.0587665
0.0578547
0.0567859
0.0555867
0.054301
0.0529871
0.0516822
0.0504133
0.0492009
0.0480563
0.0469905
0.0460109
0.0451209
0.0443212
0.04361
0.043019
0.0425876
0.0419552
0.177343
2.12248
3.30647
3.60805
3.47229
3.2482
2.68328
2.74692
4.04368
6.2119
8.36145
10.0514
11.2977
12.0195
12.2494
12.1176
11.6966
11.0305
10.1489
9.07313
7.81988
6.4021
4.82876
3.11446
1.29632
0.0256463
0.0451078
0.0456459
0.0463734
0.0473008
0.0483679
0.0495205
0.0507005
0.0518485
0.052903
0.053824
0.0545664
0.0551136
0.0554605
0.0555852
0.0554793
0.0551655
0.054672
0.0540266
0.0532495
0.0523543
0.0513692
0.0503412
0.0493072
0.0482929
0.0473164
0.0463874
0.0455162
0.0447103
0.0439753
0.0433132
0.0427241
0.0422384
0.0419036
0.0413719
0.160987
1.76567
2.68661
2.81706
2.65756
2.32233
2.10163
2.89529
4.81637
7.10174
9.0659
10.5452
11.6187
12.1358
12.2297
11.9987
11.5009
10.7734
9.84151
8.72425
7.4363
5.98878
4.38914
2.66198
0.836141
0.0162084
0.0424471
0.0427984
0.0433776
0.0441467
0.0450525
0.0460483
0.0470842
0.0481091
0.0490708
0.0499336
0.0506529
0.0512112
0.0516034
0.051814
0.0518319
0.0516688
0.0513474
0.0508977
0.0503384
0.049675
0.0489226
0.0481187
0.0472991
0.0464887
0.0457026
0.0449497
0.0442385
0.0435766
0.0429702
0.0424223
0.041935
0.0415358
0.0412775
0.0408342
0.15035
1.53906
2.15923
2.16939
2.03861
1.68665
2.04683
3.56207
5.81593
7.9921
9.71492
11.001
11.8573
12.2012
12.1712
11.8464
11.275
10.488
9.5074
8.34995
7.02862
5.55275
3.93225
2.19653
0.408332
0.0321919
0.0405592
0.0407818
0.041227
0.0418539
0.0426133
0.0434643
0.0443634
0.0452672
0.0461306
0.0469214
0.0475974
0.0481399
0.0485439
0.0487995
0.0488984
0.0488425
0.0486455
0.0483367
0.0479366
0.047447
0.0468746
0.0462473
0.045598
0.0449497
0.0443163
0.043706
0.0431258
0.0425826
0.0420824
0.0416292
0.041226
0.0408974
0.0406986
0.0403312
0.151338
1.36274
1.68189
1.69006
1.40252
1.47573
2.56385
4.6354
6.90849
8.83505
10.3054
11.4139
12.0299
12.2162
12.071
11.658
11.0163
10.1722
9.14481
7.94888
6.59554
5.09226
3.4574
1.71893
0.129112
0.0385454
0.039304
0.0394111
0.0397325
0.0402278
0.0408519
0.0415683
0.0423382
0.0431236
0.0438858
0.0445949
0.0452136
0.0457236
0.0461177
0.046391
0.0465381
0.0465541
0.0464448
0.0462358
0.0459497
0.0455895
0.0451558
0.044668
0.0441539
0.0436338
0.043122
0.0426265
0.0421529
0.0417071
0.0412945
0.0409193
0.0405849
0.040314
0.0401611
0.0398578
0.171092
1.07812
1.14477
1.15662
1.06851
1.85102
3.6879
5.94313
7.98239
9.59786
10.8339
11.7233
12.1355
12.1771
11.9254
11.4295
10.7213
9.82315
8.75156
7.51916
6.13535
4.60846
2.96397
1.23569
0.0263748
0.0386884
0.0385236
0.0385242
0.0387323
0.0391074
0.0396079
0.0402005
0.0408499
0.0415216
0.0421822
0.0428056
0.0433602
0.0438279
0.0442002
0.0444719
0.0446418
0.0447018
0.0446512
0.0445116
0.0443059
0.0440397
0.0437115
0.0433324
0.0429246
0.0425056
0.0420898
0.041686
0.0412989
0.0409329
0.0405924
0.0402812
0.0400031
0.0397791
0.0396614
0.039412
0.272695
0.932465
0.723514
0.748359
1.46168
3.11613
5.2465
7.2762
8.95224
10.2642
11.2921
11.9402
12.1724
12.0824
11.7311
11.1572
10.3866
9.43795
8.32537
7.05929
5.64669
4.10208
2.45306
0.740901
0.015534
0.0384354
0.0381033
0.0380051
0.0381087
0.0383739
0.0387609
0.0392391
0.0397765
0.0403415
0.0409049
0.0414444
0.0419321
0.0423511
0.0426905
0.0429449
0.0431169
0.0431972
0.0431833
0.043091
0.042942
0.0427432
0.0424936
0.0421983
0.0418734
0.0415341
0.0411943
0.0408636
0.0405464
0.0402456
0.0399642
0.0397059
0.0394739
0.039288
0.0391973
0.0389937
0.203166
0.370756
0.610927
1.49664
3.06193
4.9651
6.83822
8.45857
9.77043
10.8333
11.6585
12.0619
12.1326
11.9247
11.4822
10.8361
10.0078
9.01292
7.86347
6.56767
5.12927
3.5723
1.928
0.299082
0.0339804
0.0383721
0.0379469
0.0377584
0.0377663
0.0379291
0.0382089
0.0385781
0.0390085
0.0394709
0.03994
0.0403961
0.0408147
0.0411809
0.041481
0.0417105
0.0418746
0.0419633
0.0419731
0.041916
0.0418081
0.0416582
0.0414666
0.0412349
0.040974
0.0406974
0.0404181
0.0401454
0.0398836
0.039635
0.0394016
0.0391867
0.0389926
0.0388374
0.0387681
0.0386032
0.0366342
0.0377517
0.025715
0.0323832
0.124361
0.334195
0.618665
0.932209
1.25167
1.56562
1.86706
2.15003
2.40775
2.63081
2.8046
2.90493
2.88985
2.683
2.13909
1.09829
0.036462
0.0371735
0.0245649
0.0330676
0.129495
0.345011
0.63521
0.955207
1.28251
1.60632
1.9203
2.21924
2.4971
2.745
2.94837
3.08231
3.10345
2.93634
2.45963
1.59902
0.0362873
0.0365853
0.0234653
0.0338456
0.135146
0.357725
0.655748
0.984381
1.3214
1.65642
1.98368
2.29861
2.59568
2.86635
3.09617
3.2606
3.31904
3.2082
2.84507
2.19633
0.0361117
0.0359262
0.0222645
0.0356672
0.145774
0.381155
0.691878
1.03239
1.38092
1.72782
2.0681
2.39785
2.71214
3.00293
3.25666
3.45127
3.5531
3.5162
3.29208
2.87445
0.0359307
0.0350299
0.0208093
0.0417352
0.173827
0.435059
0.76499
1.1193
1.47896
1.83624
2.18738
2.52938
2.85802
3.16621
3.44222
3.66801
3.81844
3.86349
3.77803
3.56642
0.0357151
0.033258
0.0198226
0.0658741
0.251039
0.551514
0.900521
1.26449
1.63062
1.99391
2.35196
2.70255
3.04225
3.36521
3.66203
3.91911
4.11912
4.24385
4.28133
4.23796
0.0350803
0.0270786
0.0305721
0.153467
0.41569
0.747123
1.10389
1.46879
1.83504
2.19962
2.56081
2.9168
3.26481
3.60016
3.91575
4.20195
4.44742
4.64156
4.77874
4.86405
0.028191
0.019353
0.107079
0.34601
0.661077
1.0033
1.35694
1.71631
2.07845
2.44135
2.80334
3.16265
3.51681
3.86213
4.19335
4.50382
4.78636
5.03475
5.24599
5.42295
0.0136507
0.0691623
0.300909
0.619503
0.95642
1.29789
1.64367
1.99455
2.35014
2.70912
3.06973
3.43002
3.78765
4.13953
4.48159
4.80918
5.11777
5.40364
5.66473
5.9018
0.0579453
0.241368
0.58914
0.941901
1.28249
1.61758
1.95415
2.29595
2.64393
2.99718
3.35389
3.71199
4.06928
4.42297
4.76964
5.10581
5.42862
5.73596
6.02612
6.29824
0.267952
0.553277
0.951502
1.30282
1.63136
1.95422
2.28014
2.61275
2.95279
3.29904
3.64935
4.00167
4.35411
4.70421
5.04878
5.38494
5.71088
6.02571
6.32791
6.6156
0.80787
1.02152
1.38967
1.7002
1.99964
2.30356
2.61633
2.93847
3.26916
3.6063
3.9471
4.28952
4.63219
4.97309
5.30924
5.6381
5.95821
6.26912
6.56941
6.85712
1.99449
1.66555
1.89129
2.12638
2.38607
2.66615
2.9618
3.2692
3.58569
3.90856
4.23488
4.56247
4.88974
5.21517
5.53708
5.85342
6.16234
6.46098
6.74794
7.02493
2.76976
2.35338
2.41197
2.58034
2.79922
3.04799
3.31689
3.60032
3.89374
4.19374
4.49905
4.80717
5.1142
5.41858
5.72239
6.02398
6.32269
6.60675
6.87385
7.1305
3.07126
2.88176
2.93801
3.05584
3.22199
3.42318
3.64973
3.8947
4.15265
4.41961
4.69278
4.96941
5.247
5.52449
5.80086
6.07519
6.34408
6.60187
6.84667
7.08071
3.32967
3.24562
3.30758
3.40399
3.53565
3.69859
3.8868
4.09432
4.3159
4.54733
4.78516
5.02653
5.2694
5.51235
5.75349
5.99069
6.22078
6.44152
6.65307
6.85693
3.38262
3.40648
3.46868
3.56084
3.67957
3.82237
3.98551
4.16471
4.35578
4.55508
4.75953
4.96664
5.17452
5.38155
5.58586
5.78538
5.9781
6.16298
6.34013
6.50947
3.23619
3.35309
3.42223
3.52303
3.64536
3.78399
3.93553
4.09698
4.26556
4.43877
4.61446
4.79087
4.96655
5.14016
5.31026
5.47542
5.63439
5.78652
5.93142
6.0682
2.93793
3.12373
3.20181
3.31676
3.45122
3.59533
3.7444
3.89609
4.0489
4.2017
4.35349
4.50347
4.65088
4.79496
4.93486
5.06974
5.19887
5.32169
5.43753
5.5452
2.52988
2.76452
2.85033
2.9787
3.12621
3.27827
3.42826
3.57395
3.71488
3.85115
3.98292
4.11031
4.23331
4.35176
4.46539
4.57383
4.67668
4.77347
4.86347
4.94554
2.0418
2.31161
2.40361
2.54198
2.69844
2.85514
3.00421
3.14354
3.27346
3.395
3.5092
3.6169
3.71868
3.81487
3.90563
3.99091
4.07055
4.14422
4.2113
4.27087
1.49306
1.7899
1.88723
2.03061
2.1884
2.34233
2.48492
2.61459
2.73215
2.83911
2.93697
3.02692
3.10989
3.18649
3.25711
3.32193
3.38095
3.43401
3.48067
3.5203
0.897976
1.21701
1.31812
1.45766
1.60529
1.74627
1.87497
1.99032
2.09314
2.18484
2.26683
2.34031
2.40622
2.46523
2.51781
2.56427
2.60474
2.63921
2.66748
2.6892
0.299481
0.613657
0.706893
0.823485
0.944549
1.0608
1.16782
1.26409
1.34961
1.42505
1.49126
1.54904
1.59907
1.6419
1.67796
1.70759
1.73104
1.74847
1.75992
1.76533
0.101513
0.0998097
0.114514
0.117592
0.116185
0.113595
0.112311
0.111759
0.112105
0.113465
0.115912
0.119525
0.124483
0.131278
0.141434
0.678088
0.509181
0.62034
0.766621
0.909977
1.04221
1.1691
1.30021
1.44401
1.60639
1.79052
1.99767
2.22868
2.48547
2.77278
1.51352
1.15685
1.09562
1.18403
1.34855
1.56237
1.81121
2.09303
2.40939
2.76072
3.14471
3.55696
3.99269
4.44854
4.92594
2.39324
2.08175
1.9798
2.02953
2.17746
2.40986
2.71273
3.0748
3.4863
3.9373
4.41749
4.91722
5.42877
5.94736
6.47273
3.29147
3.0845
3.01812
3.08069
3.24618
3.49664
3.82203
4.20905
4.64324
5.11047
5.59808
6.09598
6.59717
7.09802
7.5983
4.14763
4.07954
4.09101
4.19612
4.38647
4.64533
4.96551
5.33581
5.74318
6.17487
6.62
7.07048
7.52133
7.97066
8.41917
4.91842
4.9806
5.08128
5.23888
5.45079
5.7085
6.00807
6.34207
6.70137
7.07708
7.46176
7.85022
8.23991
8.63085
9.02477
5.57999
5.74144
5.91712
6.12027
6.34806
6.60067
6.87668
7.17221
7.48227
7.80214
8.12816
8.45808
8.79191
9.1316
9.48052
6.12549
6.35298
6.58059
6.8128
7.05124
7.29794
7.55319
7.81594
8.08466
8.35855
8.63714
8.92067
9.21278
9.51965
9.84135
6.56053
6.82627
7.08163
7.32989
7.57319
7.81349
8.05212
8.28991
8.52784
8.76917
9.01759
9.27548
9.53984
9.78755
10.0135
6.89541
7.17737
7.44443
7.69895
7.94177
8.17541
8.40237
8.62478
8.84559
9.07473
9.29925
9.50213
9.6799
9.82615
9.93689
7.13843
7.42367
7.69535
7.94817
8.18841
8.41934
8.65172
8.86479
9.05378