/*--------------------------------*- C++ -*----------------------------------*\
| =========                 |                                                 |
| \\      /  F ield         | OpenFOAM: The Open Source CFD Toolbox           |
|  \\    /   O peration     | Version:  v1912                                 |
|   \\  /    A nd           | Website:  www.openfoam.com                      |
|    \\/     M anipulation  |                                                 |
\*---------------------------------------------------------------------------*/
FoamFile
{
    version     2.0;
    format      ascii;
    class       volScalarField;
    location    "12";
    object      p;
}
// * * * * * * * * * * * * * * * * * * * * * * * * * * * * * * * * * * * * * //

dimensions      [1 -1 -2 0 0 0 0];


internalField   nonuniform List<scalar> 
20320
(
414454
424705
424728
424776
424842
424921
425014
425120
425235
425357
425482
425610
425740
425879
426036
426209
426377
426497
426524
426499
394543
404448
404481
404531
404598
404680
404776
404885
405003
405131
405264
405396
405524
405655
405799
405951
406095
406202
406256
406308
375238
384828
384862
384914
384984
385068
385167
385280
385404
385535
385666
385788
385905
386023
386146
386271
386389
386491
386579
386696
356536
365826
365860
365913
365984
366070
366171
366287
366413
366540
366659
366768
366873
366977
367084
367190
367293
367393
367497
367637
338423
347421
347455
347508
347579
347666
347769
347885
348007
348125
348230
348328
348421
348513
348606
348700
348794
348892
349005
349156
320883
329596
329630
329683
329753
329840
329942
330055
330169
330275
330369
330455
330538
330620
330703
330787
330876
330974
331092
331251
303902
312337
312370
312421
312490
312574
312673
312780
312885
312978
313061
313137
313210
313283
313356
313434
313519
313617
313741
313908
287467
295630
295662
295711
295777
295857
295951
296050
296143
296224
296296
296361
296424
296487
296552
296623
296704
296803
296932
297107
271568
279463
279493
279539
279600
279675
279761
279849
279930
279999
280058
280111
280162
280213
280268
280332
280409
280507
280642
280827
256190
263825
263852
263894
263948
264015
264092
264168
264235
264289
264334
264372
264407
264444
264487
264540
264611
264708
264847
265044
241325
248703
248727
248763
248809
248867
248932
248994
249044
249082
249108
249127
249142
249159
249184
249222
249282
249376
249519
249730
226963
234090
234109
234137
234175
234221
234273
234318
234350
234366
234368
234361
234350
234340
234338
234354
234398
234483
234629
234855
213093
219973
219987
220008
220034
220068
220104
220130
220139
220129
220101
220061
220013
219964
219924
219905
219921
219990
220137
220381
199706
206343
206351
206362
206377
206396
206415
206419
206402
206360
206295
206211
206113
206010
205915
205843
205814
205853
205993
206258
186792
193191
193194
193195
193197
193201
193200
193180
193133
193054
192943
192803
192640
192463
192288
192134
192030
192014
192133
192420
174343
180508
180505
180496
180484
180472
180451
180405
180325
180204
180040
179833
179587
179310
179019
178741
178514
178394
178459
178762
162345
168283
168273
168254
168230
168202
168160
168089
167975
167809
167586
167301
166953
166548
166099
165633
165202
164887
164818
165097
150790
156506
156490
156461
156424
156381
156320
156224
156078
155869
155585
155215
154753
154191
153535
152801
152039
151353
150953
151053
139664
145165
145143
145106
145058
145001
144924
144807
144633
144385
144044
143592
143009
142275
141371
140282
139018
137652
136427
135716
128956
134248
134221
134177
134120
134051
133961
133829
133635
133356
132969
132446
131754
130852
129687
128187
126256
123778
120647
116896
99926
59045.6
35948.7
27272.3
24054.9
22802.1
22092.7
21127
19395.1
17412.2
19082.8
45421.7
153564
304248
360809
338088
279128
208982
144095
94332.5
61652.7
42507.8
32033.7
26691.6
24176.5
23122.2
22786.8
22758.1
22838.5
22929.5
22971.4
22927.1
22786
22569.5
22347.1
22194.6
22102.2
22047.4
22009.4
21965.4
21841.9
21619.4
21255.5
20743.2
20243.4
19903.6
19692.4
19561.4
19472.6
19359.8
19179.3
18937.5
18601.8
18124.9
17680.3
17373.7
17141.8
16985.1
16889.3
16815.6
81788.3
59090.6
36671.5
25368.5
20027
18038.3
17252.3
16838.5
16221.5
14772.7
12162.3
13097.9
60774.8
195678
279560
284141
243894
185926
128937
84162.8
54449.6
36951.9
27299.4
22218.3
19766.7
18710.4
18309.3
18192.5
18182.8
18190.1
18158.2
18037.2
17828.7
17601.5
17388
17227
17103.8
17006.1
16916.3
16798.7
16612.2
16329.5
16004.2
15628.3
15204.8
14881
14642.2
14453.8
14283.2
14097.7
13867
13623.4
13400.8
13056.6
12665.3
12366.7
12093.8
11853.3
11678.9
11587.1
57277.3
43167.9
23419
15239.4
14248.7
14018.8
13909.3
13831.2
13769.2
13564.6
12928.8
10484.8
17668.8
127881
214601
234435
208777
161062
110749
70664.1
44403.9
29273.4
21001.5
16678.4
14579.6
13694.9
13350.1
13231.6
13196.5
13172.1
13111.8
12961.8
12731.9
12486.5
12237.2
12079
11949
11830.4
11713.9
11568.5
11363.6
11071.4
10767.3
10407.2
9984.32
9700.54
9463.97
9249.07
9049.33
8833.87
8574.17
8329.58
8165.17
7839.22
7472.63
7218.27
6929.26
6666.41
6455.25
6281.82
39981.3
23657.9
13883.4
13840.6
13794.1
13762.5
13740.5
13734.2
13755.8
13827.2
13995.7
14204.6
17006.6
103700
175105
195411
177906
136840
90577.6
53793.2
30858.6
18811.7
12660.5
9660.22
8262.08
7849.72
7772.01
7788.5
7823.91
7839.41
7811.52
7679.08
7483.51
7231.11
6851.38
6719.86
6614.72
6493.54
6378.68
6235.11
6061.47
5806.68
5567
5092.5
4504.08
4327.92
4129.56
3925.76
3762.82
3574.65
3274.35
3054.48
3001.99
2440.1
2017.87
1910.59
1538.16
1330.74
1244.79
1105.84
32231.4
16296.9
13825.1
13847.4
13806.5
13772.8
13748.2
13735.8
13744.6
13788
13890.5
14058.2
15405.2
79916.1
150733
163467
149640
112648
68220
33106.3
12533.2
4515.31
1592.23
819.938
766.074
1269.18
1743.23
2055.25
2252.5
2361.44
2420.39
2317.69
2248.02
2033.9
1342.38
1322.64
1291.08
1180.85
1124.95
1080.99
1037.54
931.728
908.986
611.685
82.7227
84.8128
14.1218
-67.0565
-70.067
-70.1169
-69.9061
-69.1729
-69.8765
-68.4528
-66.217
-66.3222
-62.6012
-58.2638
-64.1394
-65.6758
30834.1
18346.5
13862.5
13842.9
13810.2
13779.6
13752.9
13733.4
13731.1
13753.3
13815
13929.5
14119.6
56221.6
130936
136344
123941
89447.8
44496.5
8288.39
-3044.15
-2321.72
-1314.9
-620.74
-164.089
-40.9749
-54.9721
-64.051
-65.2107
-64.0528
-62.8484
-65.6066
-66.2211
-67.5866
-67.4349
-68.7398
-69.9627
-65.3151
-68.8892
-72.8796
-74.951
-76.5958
-77.7531
-78.0801
-77.0289
-76.6289
-75.4518
-71.1629
-73.2584
-73.7092
-73.7361
-73.5757
-73.486
-72.7211
-71.5937
-70.9862
-69.4159
-67.0332
-69.4462
-71.0869
32620.5
22442.5
13944.1
13848.8
13815.8
13785.2
13755.1
13728.2
13715.3
13719.3
13753.5
13825.3
13720.9
41638.6
109147
111935
100702
69285.8
18130.4
105.637
63.9339
67.7878
37.1824
9.61689
-11.3814
-32.1662
-43.0615
-50.8117
-56.1635
-59.7362
-61.6828
-65.1603
-67.6892
-69.6675
-71.0313
-72.3618
-73.6813
-73.8181
-75.6547
-78.3572
-80.4057
-81.9334
-82.9609
-83.3459
-82.6429
-81.9689
-80.6879
-78.338
-78.606
-78.865
-78.8631
-78.6921
-78.4934
-77.815
-76.857
-76.0875
-74.7733
-73.6976
-75.0742
-76.6722
35444.1
28672.2
14096.7
13861.3
13826.8
13791.4
13756.2
13723.3
13696.5
13688
13705.8
13753.2
13664.9
32467.4
86466.1
89217
79961.6
47810.4
219.535
124.682
82.1214
45.2737
17.8796
-5.79942
-23.8739
-38.4844
-48.8588
-56.4465
-61.6998
-65.2046
-67.5293
-70.3358
-72.8475
-74.8971
-76.4028
-77.8561
-79.2145
-79.9974
-81.4504
-83.6669
-85.6143
-87.1224
-88.1272
-88.5261
-88.1426
-87.4351
-86.2562
-84.6201
-84.1992
-84.1205
-83.9988
-83.779
-83.4798
-82.8875
-82.093
-81.3414
-80.421
-79.9022
-80.873
-82.4138
37987.8
35214.7
14938.4
13868.5
13845.5
13798.5
13755.4
13714.7
13677.9
13661.3
13669.3
13705.3
13693.8
26922
65602.1
68282.7
61341.1
12689
114.368
112.571
67.6741
32.3471
6.36556
-14.9476
-31.6139
-44.6956
-54.4948
-61.7093
-66.8547
-70.4517
-73.0402
-75.5465
-77.9267
-80.0092
-81.7122
-83.2927
-84.7763
-85.9832
-87.3962
-89.2628
-91.0578
-92.5114
-93.4999
-93.9313
-93.7225
-93.0761
-92.0326
-90.7274
-89.9832
-89.6056
-89.3101
-88.987
-88.6021
-88.0393
-87.3463
-86.674
-86.0338
-85.8389
-86.686
-88.217
39490.8
39659.1
19133.9
13931
13866.8
13805.3
13752.2
13701.9
13662.4
13640.5
13642.2
13662.3
13752.5
23596.1
47418.6
49838
42571.2
1069.42
69.5393
82.1901
46.2012
16.3651
-7.036
-25.953
-40.8572
-52.466
-61.2975
-67.8802
-72.6664
-76.1203
-78.719
-81.0394
-83.2623
-85.3105
-87.1235
-88.8258
-90.4516
-91.9029
-93.3704
-95.0616
-96.7245
-98.1119
-99.0827
-99.5452
-99.4395
-98.8772
-97.9402
-96.7861
-95.8849
-95.2716
-94.788
-94.3311
-93.8509
-93.2783
-92.6378
-92.0431
-91.5933
-91.5981
-92.4379
-94.0048
39595.7
41239.3
28263.2
14287.7
13864.8
13809
13744.4
13687.6
13646
13622.8
13624.8
13637.9
13668.8
21057.6
32863.6
34507.7
21532.6
263.135
64.5224
47.3045
21.4673
-2.23142
-22.1864
-38.4773
-51.3835
-61.415
-69.1015
-74.8612
-79.0929
-82.2137
-84.6321
-86.7544
-88.7965
-90.7684
-92.6312
-94.4385
-96.1914
-97.8091
-99.3681
-100.998
-102.575
-103.91
-104.868
-105.354
-105.321
-104.832
-103.967
-102.887
-101.895
-101.095
-100.426
-99.8195
-99.2271
-98.608
-97.9799
-97.4365
-97.1017
-97.2253
-98.0888
-99.7136
38027.1
41030.7
34268.4
15943.4
13909.6
13805.5
13728.5
13657.3
13613.6
13599.3
13610
13633
13594.3
17272
22361.6
22680.2
6428.79
11.2745
26.9074
14.2067
-3.65373
-21.9142
-38.2687
-51.906
-62.7966
-71.2621
-77.7208
-82.5376
-86.0826
-88.7286
-90.8269
-92.6923
-94.5274
-96.3832
-98.251
-100.131
-101.981
-103.729
-105.395
-107.037
-108.582
-109.893
-110.848
-111.355
-111.373
-110.935
-110.119
-109.072
-108.012
-107.058
-106.216
-105.451
-104.731
-104.036
-103.384
-102.855
-102.572
-102.749
-103.617
-105.294
34718.5
39301.4
34995.1
24236.9
14715
13762.3
13714.4
13605.1
13566.3
13562.6
13587.4
13636.4
13557.9
13218.2
15007.9
13618.9
1330.71
-13.0417
-4.98714
-14.9737
-27.4682
-41.3732
-54.4626
-65.6494
-74.6657
-81.647
-86.8955
-90.7409
-93.533
-95.613
-97.2941
-98.8411
-100.436
-102.149
-103.978
-105.891
-107.816
-109.679
-111.463
-113.165
-114.727
-116.046
-117.012
-117.538
-117.589
-117.185
-116.397
-115.356
-114.234
-113.15
-112.146
-111.221
-110.363
-109.568
-108.859
-108.304
-108.02
-108.189
-109.023
-110.712
30048.9
35772.2
32778.7
26213.4
16340.7
14047
13713.1
13514.3
13499.5
13500.6
13549.6
13594.2
13197.1
10024.7
9910.97
7121.71
164.208
-34.5164
-34.2001
-40.1674
-49.1034
-59.687
-70.0695
-79.1599
-86.5413
-92.2002
-96.3433
-99.2662
-101.302
-102.777
-103.984
-105.167
-106.492
-108.034
-109.789
-111.707
-113.696
-115.674
-117.584
-119.381
-121
-122.353
-123.341
-123.887
-123.959
-123.574
-122.798
-121.745
-120.561
-119.361
-118.207
-117.126
-116.125
-115.215
-114.422
-113.807
-113.476
-113.587
-114.333
-115.952
24498.1
30975.2
29048.6
23973.4
18726.5
12931.6
13488.9
13327.9
13443.6
13395.5
13481.4
13651.2
11849.8
7704.98
6352.62
2768.95
-36.1827
-68.018
-59.6669
-62.17
-68.3803
-76.4255
-84.6513
-92.0282
-98.0498
-102.597
-105.794
-107.9
-109.231
-110.112
-110.832
-111.627
-112.662
-114.012
-115.675
-117.585
-119.639
-121.733
-123.777
-125.688
-127.39
-128.796
-129.815
-130.38
-130.466
-130.088
-129.309
-128.232
-126.985
-125.679
-124.39
-123.161
-122.02
-120.987
-120.092
-119.396
-118.991
-119.005
-119.606
-121.033
18429.6
25421.5
24439.9
20966.2
16025.4
14842.6
11547.6
10960.5
12988.6
13130.4
13324.1
13755.4
9268.2
5803.82
3758.26
131.15
-68.8256
-83.9271
-80.0236
-81.0924
-85.3925
-91.5008
-98.0204
-104.014
-108.936
-112.586
-115.017
-116.445
-117.17
-117.509
-117.765
-118.177
-118.919
-120.073
-121.639
-123.542
-125.662
-127.874
-130.054
-132.09
-133.887
-135.354
-136.407
-136.989
-137.081
-136.701
-135.908
-134.799
-133.49
-132.091
-130.681
-129.317
-128.043
-126.89
-125.894
-125.112
-124.619
-124.52
-124.939
-126.05
12366.6
19219.8
19148.4
16626.2
14778.5
13474.8
14775
14693.9
11833.4
12456
13000.5
12952.8
7116.18
4577.99
1819.35
-716.954
-125.697
-98.2671
-97.0689
-97.3674
-100.384
-105.011
-110.167
-115.034
-119.067
-122.009
-123.846
-124.748
-124.986
-124.873
-124.719
-124.78
-125.245
-126.214
-127.69
-129.593
-131.783
-134.111
-136.423
-138.58
-140.47
-141.998
-143.084
-143.678
-143.768
-143.376
-142.564
-141.421
-140.057
-138.571
-137.055
-135.576
-134.188
-132.93
-131.846
-130.988
-130.422
-130.218
-130.453
-131.199
10313
12529.8
13274.2
12742.9
11004
9737.12
10662.8
10905.7
11205.2
11908.5
12502.3
12524.5
5338.96
3565.36
324.628
-525.102
-129.761
-115.208
-111.868
-111.559
-113.654
-117.147
-121.2
-125.127
-128.425
-130.801
-132.187
-132.705
-132.586
-132.13
-131.645
-131.409
-131.634
-132.442
-133.844
-135.755
-138.016
-140.451
-142.883
-145.147
-147.116
-148.692
-149.8
-150.397
-150.478
-150.073
-149.237
-148.057
-146.64
-145.087
-143.489
-141.92
-140.442
-139.106
-137.96
-137.058
-136.45
-136.177
-136.262
-136.702
10411.3
10255.5
9994.99
9128.69
9736.01
10697.4
10733.3
10783.1
11067
11523.2
11799
11539.3
4374.79
2589.61
-1040.63
-351.341
-117.244
-126.689
-124.267
-123.994
-125.486
-128.117
-131.272
-134.407
-137.076
-138.982
-140.024
-140.274
-139.924
-139.241
-138.525
-138.063
-138.098
-138.779
-140.129
-142.056
-144.38
-146.904
-149.427
-151.767
-153.788
-155.39
-156.501
-157.088
-157.153
-156.728
-155.867
-154.658
-153.205
-151.605
-149.95
-148.321
-146.788
-145.41
-144.243
-143.339
-142.738
-142.463
-142.54
-142.929
10400.8
10440
10200
10322.4
10453.6
10581.3
10676.4
10769.4
10966.1
11268.7
11735.8
9180.38
4180.95
1756.05
-1943.76
-207.779
-136.598
-137.13
-135.232
-135.047
-136.153
-138.138
-140.571
-143.03
-145.144
-146.642
-147.407
-147.475
-147.002
-146.213
-145.376
-144.775
-144.682
-145.276
-146.593
-148.533
-150.899
-153.473
-156.038
-158.406
-160.437
-162.032
-163.123
-163.685
-163.726
-163.277
-162.399
-161.174
-159.702
-158.08
-156.4
-154.747
-153.201
-151.829
-150.691
-149.849
-149.358
-149.195
-149.277
-149.527
10386.8
10326.3
10367.2
10393.9
10427.8
10513.8
10611.1
10706.5
10839.2
11005.1
11707.4
5178.22
3335.16
815.55
-2261.59
-152.53
-150.498
-146.753
-145.236
-145.069
-145.911
-147.416
-149.275
-151.168
-152.791
-153.92
-154.446
-154.387
-153.876
-153.094
-152.258
-151.622
-151.474
-152.024
-153.318
-155.246
-157.601
-160.155
-162.689
-165.017
-167.002
-168.55
-169.596
-170.12
-170.132
-169.665
-168.779
-167.554
-166.086
-164.471
-162.802
-161.17
-159.662
-158.365
-157.37
-156.704
-156.307
-156.136
-156.151
-156.282
10392.6
10345.8
10345.8
10383.9
10417.9
10474.8
10550.4
10629.9
10731.8
10849
10468
4460.84
2673.08
-291.73
-1857.65
-176.567
-154.139
-155.137
-154.323
-154.314
-154.992
-156.143
-157.551
-158.975
-160.177
-160.977
-161.289
-161.134
-160.646
-159.977
-159.273
-158.733
-158.62
-159.162
-160.411
-162.254
-164.495
-166.922
-169.329
-171.538
-173.418
-174.879
-175.857
-176.332
-176.315
-175.839
-174.961
-173.757
-172.321
-170.748
-169.137
-167.598
-166.252
-165.17
-164.34
-163.746
-163.365
-163.169
-163.123
-163.172
10385.7
10350.8
10344.9
10374.5
10400.6
10437.6
10490.9
10558.6
10621.6
10671.9
9946
3292.64
1915.39
-1408.55
-929.127
-176.793
-165.297
-163.678
-162.96
-163.034
-163.595
-164.478
-165.537
-166.589
-167.446
-167.968
-168.096
-167.866
-167.446
-166.954
-166.481
-166.236
-166.298
-166.835
-167.937
-169.553
-171.538
-173.716
-175.898
-177.916
-179.639
-180.979
-181.871
-182.292
-182.251
-181.778
-180.927
-179.774
-178.414
-176.958
-175.53
-174.229
-173.1
-172.164
-171.424
-170.875
-170.5
-170.283
-170.193
-170.185
10361.9
10340.1
10336.8
10347.2
10364.6
10399.1
10439.7
10494.7
10511.7
10671.6
7769.79
2951.55
1059.71
-2665.77
-478.712
-160.265
-172.941
-171.694
-171.298
-171.418
-171.877
-172.555
-173.347
-174.113
-174.701
-175.011
-174.997
-174.719
-174.375
-174.147
-173.965
-173.889
-174.067
-174.605
-175.569
-176.936
-178.61
-180.471
-182.365
-184.149
-185.671
-186.866
-187.661
-188.027
-187.974
-187.53
-186.753
-185.73
-184.564
-183.348
-182.157
-181.056
-180.082
-179.257
-178.587
-178.076
-177.712
-177.481
-177.359
-177.31
10330.2
10328.7
10315.5
10314.2
10334.1
10359.1
10396.8
10428.6
10437.4
10374.8
4732.41
2560.41
91.5259
-3396.23
-239.075
-179.554
-180.687
-179.701
-179.453
-179.591
-179.961
-180.477
-181.066
-181.616
-182.008
-182.166
-182.057
-181.802
-181.622
-181.523
-181.446
-181.471
-181.693
-182.202
-183.044
-184.201
-185.606
-187.175
-188.781
-190.279
-191.627
-192.672
-193.375
-193.711
-193.689
-193.342
-192.722
-191.899
-190.951
-189.948
-188.952
-188.012
-187.163
-186.431
-185.828
-185.354
-185.004
-184.765
-184.621
-184.545
10303.8
10305.6
10299.3
10297.6
10304.6
10321.4
10353.1
10378.8
10423.4
10171.2
3630.73
2047.97
-1070.37
-3102.73
-196.19
-189.592
-188.701
-187.809
-187.553
-187.656
-187.934
-188.322
-188.757
-189.147
-189.399
-189.454
-189.295
-189.063
-189.02
-188.99
-188.991
-189.08
-189.327
-189.795
-190.519
-191.492
-192.669
-193.98
-195.326
-196.604
-197.742
-198.657
-199.292
-199.626
-199.664
-199.428
-198.96
-198.314
-197.55
-196.722
-195.883
-195.078
-194.34
-193.693
-193.149
-192.712
-192.378
-192.14
-191.984
-191.892
10268
10271.2
10277.4
10277.9
10279.2
10288.3
10317.9
10340.4
10355.5
8668.73
3184.89
1290.09
-2360.25
-1673.86
-218.54
-196.273
-196.587
-195.826
-195.6
-195.655
-195.854
-196.142
-196.463
-196.738
-196.892
-196.88
-196.732
-196.543
-196.548
-196.564
-196.616
-196.747
-197.004
-197.433
-198.062
-198.884
-199.869
-200.965
-202.099
-203.186
-204.161
-204.96
-205.535
-205.865
-205.949
-205.803
-205.457
-204.951
-204.334
-203.651
-202.945
-202.257
-201.617
-201.045
-200.557
-200.156
-199.843
-199.612
-199.451
-199.35
10237.4
10248.5
10255
10257.3
10258.4
10259.8
10285.9
10302.7
10413.5
5461.79
2900.24
312.811
-3613.55
-688.63
-196.746
-206.189
-204.57
-203.866
-203.623
-203.63
-203.768
-203.983
-204.22
-204.413
-204.501
-204.448
-204.286
-204.185
-204.203
-204.249
-204.334
-204.489
-204.748
-205.143
-205.692
-206.393
-207.224
-208.147
-209.101
-210.024
-210.862
-211.561
-212.08
-212.4
-212.515
-212.436
-212.184
-211.791
-211.295
-210.733
-210.141
-209.553
-208.999
-208.498
-208.062
-207.698
-207.408
-207.187
-207.028
-206.923
10212.5
10222.6
10232.6
10239.9
10242.7
10245.5
10270.3
10296.9
10052.8
4312.79
2375.35
-848.697
-4331.51
-288.016
-209.517
-213.491
-212.394
-211.846
-211.626
-211.61
-211.706
-211.87
-212.05
-212.186
-212.232
-212.164
-211.98
-211.955
-211.984
-212.047
-212.151
-212.32
-212.575
-212.937
-213.42
-214.022
-214.727
-215.507
-216.313
-217.099
-217.821
-218.432
-218.897
-219.201
-219.336
-219.307
-219.128
-218.825
-218.429
-217.968
-217.473
-216.974
-216.497
-216.06
-215.673
-215.346
-215.079
-214.872
-214.717
-214.613
10199.7
10203.5
10213.7
10224.4
10228.2
10226.3
10230.4
10299.5
8464.05
3880.34
1496.6
-2192.61
-3508.07
-231.452
-221.67
-221.486
-220.388
-219.846
-219.649
-219.624
-219.695
-219.826
-219.967
-220.068
-220.089
-220.03
-219.853
-219.853
-219.888
-219.961
-220.077
-220.25
-220.495
-220.827
-221.253
-221.775
-222.378
-223.039
-223.723
-224.395
-225.016
-225.549
-225.966
-226.251
-226.396
-226.401
-226.279
-226.049
-225.735
-225.359
-224.948
-224.527
-224.118
-223.739
-223.398
-223.105
-222.862
-222.669
-222.523
-222.421
10183.3
10187.9
10195.2
10210.4
10221.7
10211
10218.8
10154.9
5867.93
3444.96
366.198
-3510.65
-1479.45
-242.129
-230.294
-229.395
-228.366
-227.892
-227.719
-227.691
-227.753
-227.866
-227.986
-228.066
-228.073
-228.026
-227.872
-227.877
-227.916
-227.994
-228.114
-228.286
-228.519
-228.822
-229.2
-229.654
-230.174
-230.738
-231.321
-231.896
-232.431
-232.897
-233.269
-233.533
-233.682
-233.712
-233.634
-233.463
-233.215
-232.911
-232.571
-232.218
-231.87
-231.542
-231.243
-230.982
-230.763
-230.584
-230.447
-230.35
10170
10174
10177.1
10189.3
10181.8
10177.1
10209.7
9485.27
5045.85
2557.38
-950.131
-4683.61
-517.45
-227.621
-238.738
-237.258
-236.419
-236.005
-235.855
-235.833
-235.896
-236.005
-236.116
-236.186
-236.186
-236.121
-236.021
-236.028
-236.07
-236.15
-236.271
-236.437
-236.656
-236.932
-237.269
-237.666
-238.115
-238.599
-239.099
-239.593
-240.055
-240.461
-240.793
-241.037
-241.185
-241.234
-241.189
-241.064
-240.871
-240.627
-240.348
-240.052
-239.757
-239.475
-239.215
-238.984
-238.787
-238.624
-238.497
-238.405
10161.6
10163.6
10162.8
10162.3
10163.2
10174.3
10207.3
7127.56
4426.01
1318.75
-2359.31
-4306.03
-265.279
-248.082
-246.768
-245.307
-244.548
-244.199
-244.074
-244.065
-244.137
-244.251
-244.361
-244.429
-244.433
-244.339
-244.294
-244.306
-244.351
-244.432
-244.55
-244.708
-244.912
-245.163
-245.463
-245.812
-246.201
-246.619
-247.05
-247.476
-247.875
-248.231
-248.527
-248.752
-248.896
-248.956
-248.938
-248.85
-248.702
-248.507
-248.279
-248.033
-247.785
-247.543
-247.318
-247.115
-246.939
-246.791
-246.674
-246.588
10156.7
10157.3
10153.2
10152.4
10163.2
10164.4
9671.43
6044.67
3372.95
-98.2431
-3818.41
-2048.72
-275.445
-254.471
-254.659
-253.442
-252.786
-252.494
-252.392
-252.4
-252.488
-252.613
-252.73
-252.799
-252.822
-252.715
-252.698
-252.714
-252.762
-252.843
-252.956
-253.105
-253.294
-253.522
-253.791
-254.098
-254.436
-254.798
-255.173
-255.54
-255.887
-256.199
-256.464
-256.669
-256.808
-256.876
-256.879
-256.82
-256.708
-256.554
-256.369
-256.166
-255.957
-255.752
-255.557
-255.38
-255.223
-255.091
-254.984
-254.904
10152
10153.8
10149.1
10149.6
10154.7
10160.6
7619.79
5116.56
1923.35
-1609.56
-5033.28
-565.202
-256.148
-264.629
-262.813
-261.716
-261.143
-260.897
-260.819
-260.852
-260.962
-261.102
-261.229
-261.304
-261.347
-261.241
-261.235
-261.257
-261.306
-261.386
-261.494
-261.634
-261.807
-262.014
-262.255
-262.526
-262.822
-263.139
-263.464
-263.783
-264.084
-264.36
-264.597
-264.785
-264.916
-264.989
-265.007
-264.971
-264.889
-264.769
-264.62
-264.454
-264.28
-264.106
-263.939
-263.784
-263.646
-263.528
-263.431
-263.357
10144.8
10150.4
10144.4
10139.5
10157.5
9214.23
6540.89
3725.34
278.53
-3193.17
-4263.09
-290.321
-273.863
-272.901
-271.092
-270.108
-269.62
-269.415
-269.366
-269.43
-269.565
-269.724
-269.862
-269.947
-269.981
-269.907
-269.909
-269.936
-269.987
-270.064
-270.167
-270.298
-270.457
-270.646
-270.861
-271.1
-271.361
-271.64
-271.923
-272.201
-272.466
-272.71
-272.922
-273.093
-273.217
-273.292
-273.321
-273.303
-273.245
-273.153
-273.035
-272.9
-272.756
-272.609
-272.466
-272.332
-272.211
-272.106
-272.019
-271.952
10130.4
10142.3
10144
10119.4
9870.26
7615.41
5215.34
1939.01
-1442.94
-4756.65
-1420.15
-289.851
-282.501
-280.96
-279.449
-278.615
-278.215
-278.057
-278.044
-278.141
-278.304
-278.485
-278.634
-278.734
-278.733
-278.71
-278.722
-278.754
-278.807
-278.882
-278.979
-279.101
-279.248
-279.419
-279.612
-279.824
-280.055
-280.301
-280.549
-280.792
-281.026
-281.244
-281.434
-281.589
-281.705
-281.782
-281.818
-281.814
-281.775
-281.706
-281.613
-281.505
-281.386
-281.263
-281.142
-281.026
-280.921
-280.829
-280.752
-280.691
10105.4
10125.1
10146
10062.1
8203.9
6279.78
3295.83
-18.214
-3184.16
-5258.82
-290.67
-290.224
-291.361
-289.194
-287.939
-287.256
-286.944
-286.837
-286.868
-287.001
-287.191
-287.391
-287.553
-287.675
-287.653
-287.658
-287.679
-287.715
-287.77
-287.844
-287.937
-288.051
-288.186
-288.341
-288.514
-288.705
-288.91
-289.126
-289.343
-289.558
-289.767
-289.961
-290.131
-290.272
-290.381
-290.458
-290.499
-290.507
-290.482
-290.431
-290.359
-290.273
-290.176
-290.075
-289.972
-289.874
-289.783
-289.702
-289.634
-289.579
10056.7
10101.9
10076.9
8681.15
6897.76
4205.25
1075.86
-1955.43
-4890.76
-2258.82
-320.437
-298.766
-299.131
-297.504
-296.534
-296.026
-295.805
-295.757
-295.839
-296.009
-296.224
-296.443
-296.625
-296.765
-296.735
-296.753
-296.781
-296.823
-296.881
-296.954
-297.043
-297.15
-297.273
-297.414
-297.571
-297.743
-297.925
-298.115
-298.307
-298.499
-298.685
-298.858
-299.011
-299.139
-299.243
-299.317
-299.362
-299.377
-299.365
-299.328
-299.274
-299.207
-299.129
-299.046
-298.96
-298.877
-298.799
-298.729
-298.668
-298.619
7642.68
9651.4
8828.37
7349.6
4821.74
1950.11
-879.956
-3618.35
-5601.91
-409.23
-303.276
-309.4
-307.403
-306.171
-305.454
-305.094
-304.945
-304.947
-305.062
-305.249
-305.459
-305.661
-305.844
-305.971
-305.97
-305.997
-306.034
-306.082
-306.142
-306.215
-306.301
-306.401
-306.515
-306.644
-306.787
-306.941
-307.103
-307.272
-307.444
-307.615
-307.781
-307.935
-308.072
-308.19
-308.287
-308.359
-308.406
-308.427
-308.423
-308.399
-308.36
-308.309
-308.248
-308.18
-308.109
-308.039
-307.973
-307.913
-307.859
-307.815
118654
123742
123712
123662
123597
123521
123422
123282
123077
122781
122363
121789
121014
119979
118594
116719
114103
110242
103810
91905.6
108471
113546
113514
113459
113389
113308
113208
113067
112862
112560
112130
111530
110710
109597
108083
105992
103006
98502.4
91179.6
78823.8
98312.3
103374
103339
103282
103209
103128
103032
102900
102702
102409
101983
101383
100555
99426.6
97889.6
95778.4
92826.3
88605.2
82489
73918.6
88178.5
93227.2
93191
93132.2
93059.6
92984.2
92899.5
92781.4
92599.5
92321.8
91913.3
91333.5
90531.1
89438.4
87961.1
85964.6
83256.7
79578.6
74641.2
68313.4
78070.9
83106.2
83069.2
83010.3
82942.9
82880.6
82811.6
82709.1
82543.7
82285.4
81901.6
81354.8
80598.7
79574.3
78204.1
76385.9
73989.9
70867.3
66893.7
62077.6
67990
73012
72974.4
72918.4
72865.2
72819.8
72763.5
72671.8
72519.2
72279.1
71921.9
71413.7
70713.8
69772.3
68526.8
66902
64810.9
62167.9
58919.7
55103
57936.3
62944.7
62907.4
62864.5
62830.7
62796.1
62744.6
62657.1
62512.6
62287.5
61955.2
61485.7
60843.3
59986.2
58864.7
57422.4
55600.9
53349.2
50643.8
47519.3
47909.7
52904.2
52876.2
52854.4
52832.2
52800.2
52747.6
52660
52519.4
52305.3
51994.1
51559.2
50970.3
50192.1
49184.1
47903.8
46311.2
44375.6
42085.8
39466.4
37909.9
42895.9
42888.5
42880.9
42862.3
42828.2
42771.1
42679.6
42539
42331.4
42036
41629.8
41087.9
40380.5
39473.2
38332.1
36930.8
35253
33293.1
31063.4
27941.3
32927.4
32938.8
32937.9
32919.3
32880.2
32815.2
32715.4
32569.6
32363.8
32078.3
31693.6
31191.9
30549
29730.7
28706.4
27461.3
25996.9
24312.1
22402.3
18017.8
22996.3
23018.4
23022.5
23003.9
22958.1
22881.4
22766.4
22609.1
22401.7
22120.5
21746.9
21278.8
20700.2
19965.1
19035.2
17907.3
16621.8
15187.6
13571
8293.28
13071.9
13103.2
13130
13119.5
13062.9
12967.1
12820.6
12638
12432.9
12149.4
11759.5
11313.9
10825.6
10175.8
9300.64
8192.87
7043.45
5837.01
4484.28
-1028.65
2930.91
3218.33
3354.4
3351.71
3253.37
3148.32
2960.04
2746.11
2612.13
2346.47
1894.69
1449.9
1060.42
646.678
13.2187
-840.795
-1246.34
-1388.13
-1338.57
-424.433
-423.129
-424.563
-425.624
-426.574
-427.722
-429.138
-430.913
-433.21
-434.679
-436.879
-440.314
-443.549
-443.63
-447.147
-448.798
-456.993
-458.701
-458.535
-446.618
-444.704
-436.926
-434.409
-433.982
-433.973
-434.08
-434.258
-434.502
-434.778
-434.993
-435.261
-435.636
-435.922
-435.983
-436.226
-436.543
-437.267
-437.628
-437.451
-436.192
-451.186
-446.509
-445.102
-444.502
-444.261
-444.191
-444.212
-444.294
-444.416
-444.557
-444.738
-444.968
-445.211
-445.443
-445.737
-446.096
-446.546
-446.855
-446.875
-446.506
-460.606
-455.84
-455.185
-454.747
-454.492
-454.367
-454.33
-454.354
-454.419
-454.516
-454.64
-454.79
-454.957
-455.136
-455.343
-455.581
-455.827
-456.004
-456.05
-455.966
-470.352
-465.221
-464.944
-464.692
-464.506
-464.393
-464.339
-464.333
-464.364
-464.425
-464.509
-464.613
-464.731
-464.862
-465.009
-465.17
-465.327
-465.448
-465.508
-465.512
-480.169
-474.794
-474.648
-474.51
-474.393
-474.311
-474.265
-474.252
-474.265
-474.303
-474.36
-474.434
-474.518
-474.612
-474.715
-474.824
-474.93
-475.02
-475.081
-475.116
-490.001
-484.463
-484.362
-484.285
-484.218
-484.168
-484.138
-484.128
-484.136
-484.161
-484.201
-484.254
-484.316
-484.385
-484.46
-484.538
-484.615
-484.686
-484.743
-484.788
-499.849
-494.203
-494.094
-494.054
-494.02
-493.996
-493.982
-493.978
-493.986
-494.005
-494.036
-494.075
-494.123
-494.176
-494.234
-494.295
-494.357
-494.416
-494.47
-494.519
-509.709
-503.979
-503.846
-503.832
-503.821
-503.815
-503.812
-503.815
-503.824
-503.841
-503.865
-503.897
-503.935
-503.979
-504.028
-504.081
-504.135
-504.189
-504.242
-504.295
-519.487
-513.769
-513.626
-513.632
-513.635
-513.637
-513.64
-513.645
-513.655
-513.67
-513.691
-513.719
-513.753
-513.793
-513.837
-513.886
-513.938
-513.991
-514.046
-514.101
-529.094
-523.593
-523.456
-523.46
-523.468
-523.472
-523.475
-523.48
-523.489
-523.503
-523.524
-523.55
-523.582
-523.62
-523.663
-523.71
-523.761
-523.815
-523.871
-523.929
43313.6
39683.4
47769.2
58082.2
66084.4
71426.6
74616.5
76203.2
76648.4
76140.3
74698.8
72155.3
68021.9
60952.7
46674.8
56483
41641.5
42321.4
49103.7
55428.6
59975.6
62788.6
64215.8
64519.1
63821.3
62100.1
59169.6
54608.2
47610.9
37001.4
62382.4
50490.3
46103.3
47052.1
49689.2
52109.1
53717.7
54421.5
54234.3
53150.3
51096.6
47914.6
43349.2
37084.1
28974.3
60827.1
53034.3
47966.9
45894.6
45585.4
45883.6
46092.6
45877.2
45069.6
43560
41243
37998.3
33700.6
28278
21861.1
56578.9
50778.8
46163.5
43102.1
41264.9
40106.5
39155.5
38081.2
36665.1
34755.2
32234.6
29009.5
25021.2
20287
14972.4
50797
46141.9
42021.9
38718.8
36183.8
34183.3
32442.3
30716.8
28812.8
26582.7
23915.2
20733
17004.2
12768
8159.84
44003.2
40109.6
36433.8
33179.5
30383.5
27955.6
25745.8
23593.2
21350
18893
16127.7
12989.4
9449.22
5493.23
1126.47
36514.6
33181.7
29902.8
26827.3
24010
21421.1
18981.7
16591.6
14147.1
11556
8737.08
5581.68
2004.66
-1536.3
-2566.96
28540.1
25645.3
22721.2
19889.4
17191
14615.8
12120.7
9645.41
7099.71
4365.66
1406.01
-1259.7
-1668.93
-693.292
-395.639
20222.1
17678.1
15065.1
12520.5
10038.3
7591.56
5101.57
2532.02
-21.0573
-1804.09
-1042.31
-515.365
-399.76
-382.92
-390.929
11682.6
9400.48
6968.41
4720.3
2412.34
179.698
-1722.89
-1944.39
-748.264
-469.113
-394.868
-395.647
-400.222
-401.866
-401.846
2753.92
683.472
-1514.98
-2240.92
-1911.71
-868.006
-477.525
-412.264
-404.016
-405.669
-409.972
-410.814
-410.594
-410.488
-410.622
-980.338
-812.483
-545.445
-459.81
-423.384
-411.322
-414.683
-418.119
-420.044
-419.435
-419.157
-419.3
-419.435
-419.574
-419.74
-415.444
-418.074
-421.6
-427.967
-427.092
-428.984
-428.483
-428.358
-428.331
-428.261
-428.32
-428.467
-428.623
-428.789
-428.971
-436.636
-437.579
-437.705
-438.109
-437.655
-437.513
-437.416
-437.457
-437.509
-437.56
-437.65
-437.787
-437.947
-438.121
-438.305
-446.228
-446.402
-446.606