/*--------------------------------*- C++ -*----------------------------------*\
| =========                 |                                                 |
| \\      /  F ield         | OpenFOAM: The Open Source CFD Toolbox           |
|  \\    /   O peration     | Version:  v1912                                 |
|   \\  /    A nd           | Website:  www.openfoam.com                      |
|    \\/     M anipulation  |                                                 |
\*---------------------------------------------------------------------------*/
FoamFile
{
    version     2.0;
    format      ascii;
    class       volScalarField;
    location    "12";
    object      p_rgh;
}
// * * * * * * * * * * * * * * * * * * * * * * * * * * * * * * * * * * * * * //

dimensions      [1 -1 -2 0 0 0 0];


internalField   nonuniform List<scalar> 
20320
(
429721
429794
429817
429865
429931
430010
430103
430209
430324
430446
430571
430700
430829
430968
431125
431298
431467
431586
431613
431588
429621
429712
429744
429794
429861
429943
430040
430148
430267
430394
430527
430660
430788
430919
431063
431215
431358
431465
431519
431572
429416
429544
429578
429630
429699
429783
429883
429995
430119
430250
430381
430503
430620
430739
430862
430986
431105
431206
431294
431411
429130
429296
429330
429383
429454
429540
429641
429757
429883
430010
430129
430238
430343
430448
430554
430660
430763
430863
430967
431107
428772
428974
429008
429061
429132
429219
429322
429438
429560
429678
429784
429881
429974
430067
430159
430253
430348
430446
430558
430709
428353
428584
428618
428671
428741
428828
428930
429043
429158
429263
429357
429443
429526
429608
429691
429775
429864
429962
430081
430239
427879
428136
428169
428221
428289
428373
428473
428580
428684
428778
428860
428937
429010
429082
429156
429233
429318
429416
429540
429707
427359
427638
427669
427719
427784
427865
427958
428057
428150
428232
428303
428369
428431
428494
428559
428630
428711
428810
428939
429115
426804
427098
427128
427174
427235
427310
427396
427484
427565
427634
427693
427746
427797
427848
427903
427967
428044
428143
428277
428462
426223
426528
426555
426596
426651
426718
426794
426871
426937
426992
427036
427075
427110
427147
427189
427243
427313
427411
427550
427747
425623
425935
425958
425994
426041
426098
426163
426226
426276
426313
426339
426358
426374
426391
426415
426453
426514
426607
426751
426961
425015
425328
425347
425376
425413
425460
425511
425557
425588
425604
425607
425600
425589
425578
425577
425592
425636
425721
425868
426093
424407
424717
424731
424752
424778
424812
424848
424874
424883
424873
424845
424805
424757
424708
424668
424649
424666
424735
424881
425125
423807
424109
424118
424129
424144
424163
424182
424186
424168
424127
424062
423977
423880
423777
423682
423610
423581
423620
423759
424024
423222
423513
423516
423517
423519
423523
423522
423502
423455
423376
423265
423125
422962
422785
422610
422456
422352
422336
422455
422742
422659
422936
422932
422923
422912
422900
422879
422833
422753
422632
422468
422261
422014
421738
421447
421168
420941
420822
420886
421190
422123
422383
422373
422354
422330
422302
422260
422188
422074
421909
421686
421400
421053
420648
420199
419733
419301
418986
418918
419197
421618
421859
421843
421815
421778
421735
421674
421578
421432
421222
420938
420569
420106
419545
418889
418155
417393
416706
416306
416407
421146
421369
421347
421310
421262
421205
421128
421011
420837
420589
420248
419796
419213
418479
417575
416485
415222
413855
412631
411920
420711
420913
420887
420843
420786
420717
420627
420495
420301
420022
419635
419112
418420
417518
416353
414853
412922
410443
407313
403561
103744
60317.1
37222.5
28546.4
25328.9
24074.9
23366.8
22401.2
20668.2
18684
20356.5
46695.8
154838
305521
362083
339362
280402
210256
145369
95606.6
62926.8
43781.9
33307.8
27965.7
25450.6
24396.3
24060.9
24032.2
24112.6
24203.7
24245.5
24201.2
24060.2
23843.6
23621.2
23468.7
23376.3
23321.5
23283.5
23239.5
23116
22893.5
22529.6
22017.3
21517.5
21177.7
20966.6
20835.6
20746.8
20634
20453.4
20211.7
19875.9
19399
18954.4
18647.9
18415.9
18259.2
18163.4
18089.8
90762.3
65479.4
43063.1
31760.1
26418.6
24430
23643.8
23230.1
22613.2
21164.3
18553.9
19489.5
67166.4
202060
285952
290533
250285
192318
135328
90554.4
60841.2
43343.5
33691
28609.9
26158.3
25102
24700.9
24584.2
24574.4
24581.6
24549.9
24428.8
24220.3
23993.1
23779.6
23618.6
23495.3
23397.8
23307.9
23190.2
23003.8
22721.2
22395.8
22019.8
21596.4
21272.7
21033.8
20845.4
20674.9
20489.3
20258.7
20015
19792.5
19448.2
19056.9
18758.4
18485.4
18244.9
18070.5
17978.7
71483.4
54768.8
30190.1
16836.2
15293.4
15297.2
15213.7
14827.6
14836.1
14773.9
14199.4
11885.3
21961.2
139440
226202
246036
220377
172663
122350
82265
56004.8
40874.3
32602.4
28279.4
26180.5
25295.8
24951
24832.5
24797.5
24773.1
24712.7
24562.7
24332.9
24087.4
23838.1
23680
23549.9
23431.3
23314.9
23169.4
22964.5
22672.3
22368.2
22008.1
21585.3
21301.4
21064.9
20850
20650.2
20434.8
20175.1
19930.5
19766.1
19440.2
19073.5
18819.2
18530.2
18267.3
18056.2
17882.8
59524.4
40045.4
13900.3
13857.5
13811
13779.4
13757.4
13751.1
13772.7
13844.1
14012.6
14221.5
17679.9
117403
192009
212315
194810
153744
107481
70696.8
47762.2
35715.3
29564.1
26563.8
25165.7
24753.3
24675.6
24692.1
24727.5
24743
24715.1
24582.7
24387.1
24134.7
23754.9
23623.5
23518.3
23397.1
23282.3
23138.7
22965.1
22710.3
22470.6
21996.1
21407.7
21231.5
21033.2
20829.4
20666.4
20478.2
20178
19958
19905.6
19343.7
18921.5
18814.2
18441.8
18164.4
17595.5
16056
57266.7
35452.3
13847.4
13869.7
13828.8
13795.1
13770.5
13758.1
13766.9
13810.3
13912.8
14080.6
15427.5
94473.2
173034
185769
171942
134950
90521.2
55407.6
34834.5
26816.6
23893.5
23121.3
23067.4
23570.5
24044.5
24356.6
24553.8
24662.8
24721.7
24619
24548.1
24332.4
23643.7
23623.9
23592.4
23482.1
23367.1
22868.7
22035.1
19006.2
18476.7
13195.3
2656.11
2759.85
1473.8
-16.3418
-47.7657
-47.8156
-47.6048
-46.8716
-47.5752
-46.0986
-43.9157
-44.0209
-40.2999
-35.9624
-41.8381
-43.3745
61414
40541.1
13890.3
13870.7
13838
13807.4
13780.7
13761.2
13758.9
13781.1
13843.1
13957.3
14147.4
69858.2
158732
164140
151737
117244
72292.3
36084.2
20240.8
12257.2
7094.76
3935.48
718.541
-13.179
22.4204
94.8271
122.183
89.718
3.55159
-37.8108
-38.4252
-39.7908
-39.6391
-40.944
-42.1669
-37.5192
-41.0934
-45.0837
-47.1552
-48.7999
-49.9573
-50.2842
-49.2331
-48.833
-47.656
-43.367
-45.4625
-45.9133
-45.9403
-45.7799
-45.6902
-44.9252
-43.7978
-43.1904
-41.62
-39.2373
-41.6504
-43.291
68818.6
50907.8
13977.5
13882.2
13849.2
13818.6
13788.5
13762.1
13750.5
13752.7
13787.5
13859.2
13754.3
58929
142536
145324
134091
102675
48431.7
139.026
97.3228
101.177
70.5714
43.0058
22.0076
1.22273
-9.67259
-17.4227
-22.7745
-26.3473
-28.2939
-31.7714
-34.3002
-36.2786
-37.6423
-38.9728
-40.2923
-40.4291
-42.2658
-44.9682
-47.0167
-48.5444
-49.572
-49.9569
-49.2539
-48.5799
-47.299
-44.9491
-45.2171
-45.476
-45.4742
-45.3031
-45.1044
-44.426
-43.468
-42.6985
-41.3843
-40.3086
-41.6852
-43.2833
77325.6
63971.3
14135.8
13900.4
13866
13830.5
13795.3
13764.5
13739.1
13727.1
13745.7
13792.7
13704
55333.3
125548
128299
119044
86892.7
258.617
163.764
121.204
84.356
56.9619
33.2829
15.2084
0.597826
-9.77656
-17.3642
-22.6175
-26.1223
-28.447
-31.2535
-33.7652
-35.8148
-37.3205
-38.7737
-40.1322
-40.9151
-42.3681
-44.5846
-46.532
-48.0401
-49.0449
-49.4438
-49.0603
-48.3528
-47.1739
-45.5378
-45.1169
-45.0382
-44.9165
-44.6967
-44.3976
-43.8052
-43.0107
-42.2592
-41.3387
-40.82
-41.7906
-43.3316
85802.1
79810.8
15363.3
13913.4
13890.4
13843.4
13800.3
13759.6
13726
13706.2
13714.4
13750.1
13738.7
59313.6
110480
113161
106219
32655.1
159.246
157.449
112.552
77.2249
51.2434
29.9302
13.264
0.182272
-9.61696
-16.8315
-21.9768
-25.5739
-28.1623
-30.6688
-33.0489
-35.1314
-36.8344
-38.4149
-39.8985
-41.1054
-42.5183
-44.385
-46.1799
-47.6336
-48.6221
-49.0535
-48.8447
-48.1983
-47.1547
-45.8496
-45.1054
-44.7278
-44.4322
-44.1092
-43.7243
-43.1615
-42.4685
-41.7963
-41.156
-40.961
-41.8083
-43.3393
93200.7
90436.3
33039.2
13981.8
13917.7
13856.1
13803
13752.7
13713.2
13691.5
13693
13714.3
13803.2
66963.3
98195.8
100615
93348.3
2449.23
120.316
132.967
96.9784
67.1423
43.7412
24.8241
9.91994
-1.68884
-10.5203
-17.103
-21.8893
-25.3431
-27.9418
-30.2623
-32.4851
-34.5333
-36.3464
-38.0486
-39.6744
-41.1258
-42.5932
-44.2844
-45.9474
-47.3347
-48.3055
-48.768
-48.6623
-48.1
-47.163
-46.0089
-45.1078
-44.4944
-44.0108
-43.554
-43.0737
-42.5011
-41.8606
-41.266
-40.8162
-40.821
-41.6608
-43.2277
99396
98021.6
64903.4
14387.9
13921.6
13865.7
13801.2
13747.6
13711.2
13681.4
13681.6
13697.4
13725.6
75305.5
89646
91290
78314.9
319.918
121.305
104.087
78.2496
54.551
34.5959
18.305
5.39888
-4.63269
-12.3192
-18.0788
-22.3105
-25.4314
-27.8498
-29.972
-32.0142
-33.9861
-35.8489
-37.6562
-39.4091
-41.0268
-42.5857
-44.2157
-45.7922
-47.1276
-48.0861
-48.572
-48.5388
-48.0491
-47.1849
-46.1045
-45.1126
-44.3122
-43.644
-43.0372
-42.4447
-41.8257
-41.1976
-40.6542
-40.3193
-40.4429
-41.3041
-42.9296
103994
103751
91286.9
38244
13972.5
13868.5
13791.4
13720.2
13685.3
13662.2
13672.9
13698.2
13657.2
80024.9
85256.9
85575.4
44239.9
74.1697
89.8026
77.1019
59.2415
40.981
24.6265
10.9893
0.0985707
-8.36688
-14.8257
-19.6424
-23.1874
-25.8335
-27.9317
-29.7971
-31.6322
-33.4879
-35.3558
-37.2363
-39.0863
-40.8336
-42.5002
-44.1422
-45.6863
-46.9978
-47.953
-48.4602
-48.4781
-48.0396
-47.2238
-46.1768
-45.1167
-44.163
-43.3207
-42.5555
-41.8355
-41.1407
-40.489
-39.9594
-39.6766
-39.8405
-40.7155
-42.3992
106983
108341
104019
67453.6
14784.1
13877.8
13784.6
13674.2
13635.4
13631.7
13656.9
13707.6
13627
82335.9
84125.6
82736.6
18183.2
56.076
64.1305
54.1439
41.6495
27.7445
14.6551
3.46826
-5.54799
-12.5293
-17.7778
-21.6232
-24.4152
-26.4953
-28.1764
-29.7234
-31.3187
-33.0316
-34.8606
-36.7733
-38.6981
-40.5615
-42.3453
-44.0475
-45.6095
-46.9281
-47.8939
-48.4203
-48.4718
-48.0672
-47.2794
-46.2388
-45.1163
-44.0322
-43.0283
-42.1033
-41.2451
-40.4501
-39.7412
-39.172
-38.8864
-39.0707
-39.9055
-41.5947
108710
111194
107954
98968.9
75886.4
14122.4
13794.4
13603.8
13574.9
13576.2
13627.8
13671.2
32609.5
85476.5
85362.7
82573.5
3828.57
40.9353
41.2516
35.2843
26.3484
15.7647
5.38227
-3.70811
-11.0896
-16.7485
-20.8915
-23.8144
-25.85
-27.3248
-28.5326
-29.715
-31.0403
-32.5818
-34.3371
-36.2552
-38.2445
-40.2222
-42.1326
-43.9289
-45.548
-46.901
-47.8891
-48.4352
-48.5076
-48.1226
-47.346
-46.2934
-45.109
-43.9089
-42.7556
-41.6742
-40.6731
-39.7525
-38.9484
-38.352
-38.0246
-38.1354
-38.8818
-40.4998
109664
112874
110946
103929
83125.3
84772.7
39375.2
13409.8
13525.7
13477.5
13565.6
13733.4
62187.4
89604.3
88252
84668.4
193.439
13.8814
22.2325
19.7294
13.519
5.47391
-2.75189
-10.1288
-16.1504
-20.6977
-23.8946
-26.0002
-27.3319
-28.2123
-28.9324
-29.7274
-30.7624
-32.1128
-33.7756
-35.6859
-37.7393
-39.8336
-41.8776
-43.789
-45.4906
-46.8968
-47.9157
-48.4807
-48.5663
-48.1884
-47.4094
-46.332
-45.0849
-43.7798
-42.4904
-41.257
-40.0921
-39.0732
-38.1927
-37.4969
-37.0914
-37.1057
-37.7071
-39.1334
110217
113884
112894
104684
101682
63718.3
32573.7
20286.7
15927.1
13218.9
13412.6
13843.8
87797.5
94266.5
92221
88593.7
19.637
4.53562
8.439
7.37029
3.07011
-3.03813
-9.55778
-15.5512
-20.4732
-24.1232
-26.5545
-27.9829
-28.707
-29.0467
-29.3019
-29.7148
-30.4565
-31.6106
-33.1761
-35.0791
-37.1996
-39.4114
-41.5914
-43.6272
-45.4239
-46.8912
-47.9448
-48.5268
-48.6182
-48.2374
-47.4449
-46.3364
-45.0275
-43.6075
-42.1757
-40.8408
-39.5801
-38.4274
-37.4318
-36.649
-36.1568
-36.0572
-36.4763
-37.5877
110895
114361
113976
111514
80192.3
76148.1
101359
55389.4
13297.9
12551.2
13111.6
13047.9
101556
99721.7
96963
66091.3
-30.5533
-3.12353
-1.9253
-2.2238
-5.24059
-9.86728
-15.0236
-19.8906
-23.9238
-26.8654
-28.7024
-29.6044
-29.8421
-29.7294
-29.5749
-29.6362
-30.1016
-31.0707
-32.5465
-34.4491
-36.6397
-38.9669
-41.2793
-43.4369
-45.3268
-46.8544
-47.94
-48.5338
-48.624
-48.2327
-47.416
-46.2064
-44.8416
-43.4151
-41.9112
-40.4327
-39.0442
-37.7868
-36.7024
-35.8447
-35.2781
-35.0742
-35.3091
-36.0557
10519
114257
114396
102949
93098.3
98495.2
10764.8
11007.6
11307.1
12010.4
12619
12626.4
107283
105510
102269
36819.7
-27.8168
-13.2632
-9.92369
-9.61456
-11.7095
-15.2029
-19.2552
-23.1831
-26.4802
-28.8565
-30.2431
-30.7603
-30.642
-30.1853
-29.701
-29.4642
-29.6898
-30.4975
-31.9001
-33.8112
-36.0721
-38.507
-40.9386
-43.2024
-45.1719
-46.7479
-47.8553
-48.4522
-48.5338
-48.0907
-47.253
-46.1093
-44.6956
-43.143
-41.545
-39.9754
-38.4977
-37.1617
-36.0157
-35.1135
-34.5059
-34.2325
-34.3176
-34.7571
10542.6
24949.1
64710.9
106002
93005.6
10806.3
10842.2
10892
11175.8
11652
11907.9
46827.7
113242
111457
107827
12099.9
-8.37695
-17.8216
-15.4
-15.1272
-16.6191
-19.2501
-22.405
-25.5398
-28.2082
-30.1145
-31.1568
-31.4065
-31.0566
-30.3742
-29.6582
-29.1958
-29.2309
-29.9116
-31.262
-33.1883
-35.5132
-38.0367
-40.5594
-42.8996
-44.9207
-46.5229
-47.6341
-48.2208
-48.2852
-47.8603
-46.9992
-45.7905
-44.3373
-42.7376
-41.0828
-39.4532
-37.9203
-36.5431
-35.376
-34.472
-33.871
-33.5956
-33.6731
-34.062
10648.7
13053.8
26596
10438.3
10569.5
10697.2
10792.3
10894.9
11105.6
11385.3
11851.8
92610.7
120095
117670
113970
1060.51
-20.6845
-21.2166
-19.3185
-19.1332
-20.2391
-22.2243
-24.657
-27.1166
-29.2299
-30.7279
-31.4932
-31.5613
-31.0878
-30.299
-29.4621
-28.8611
-28.7679
-29.3618
-30.6797
-32.6191
-34.9854
-37.5588
-40.1245
-42.4923
-44.5232
-46.1179
-47.2092
-47.7714
-47.8119
-47.3636
-46.4852
-45.2601
-43.788
-42.1658
-40.4857
-38.8333
-37.2873
-35.9146
-34.7772
-33.9353
-33.444
-33.2807
-33.3634
-33.6127
11087
10449.3
10499.4
10518.4
10550.9
10636.9
10734.2
10838.9
10966.6
11128.3
11830.5
123810
126423
123903
120826
-29.4427
-27.4107
-23.6656
-22.1481
-21.9817
-22.824
-24.3287
-26.1875
-28.0807
-29.7032
-30.8324
-31.3587
-31.2999
-30.7881
-30.007
-29.1706
-28.5346
-28.3863
-28.9362
-30.231
-32.1588
-34.5134
-37.0671
-39.602
-41.9298
-43.9151
-45.4624
-46.5085
-47.0324
-47.0442
-46.5776
-45.6919
-44.467
-42.999
-41.3841
-39.7146
-38.0822
-36.5747
-35.2773
-34.2831
-33.617
-33.2196
-33.0485
-33.0633
-33.1948
10898.6
10559.6
10583.6
10514.3
10549.4
10633.8
10709.4
10760.3
10862.2
10983.3
10598.4
134850
133062
130097
98158.4
-46.1779
-23.75
-24.7484
-23.9338
-23.9246
-24.6032
-25.7536
-27.162
-28.5861
-29.7876
-30.5879
-30.8996
-30.7447
-30.2567
-29.588
-28.8836
-28.3436
-28.2309
-28.7729
-30.0216
-31.8649
-34.1062
-36.533
-38.9402
-41.1493
-43.0293
-44.4896
-45.4679
-45.943
-45.9259
-45.45
-44.5718
-43.3684
-41.932
-40.3588
-38.748
-37.2086
-35.8626
-34.7805
-33.9508
-33.3567
-32.9758
-32.7797
-32.7338
-32.7834
10882.3
10824.4
10512.2
10620.4
10545.7
10586.3
10628.8
10696.4
10768.1
10810.1
44385.4
141115
139738
136414
53489.4
-38.971
-27.4745
-25.8555
-25.1385
-25.2118
-25.7727
-26.656
-27.7146
-28.767
-29.6236
-30.1464
-30.2735
-30.0436
-29.6238
-29.1323
-28.6589
-28.4142
-28.4756
-29.0126
-30.1152
-31.7308
-33.7161
-35.8936
-38.0758
-40.0942
-41.8167
-43.1568
-44.0492
-44.47
-44.4286
-43.9559
-43.1048
-41.9518
-40.5921
-39.1355
-37.7077
-36.4074
-35.2782
-34.3419
-33.6025
-33.0527
-32.678
-32.4608
-32.3708
-32.3629
10757.3
10588
10589.7
10588.7
10510.4
10563.4
10585.1
10640.8
10732
10817
114797
148340
146448
142722
15516.5
-14.8766
-27.5534
-26.3061
-25.9097
-26.0294
-26.4886
-27.1669
-27.9591
-28.7245
-29.3134
-29.6224
-29.6085
-29.3314
-28.9867
-28.7587
-28.5767
-28.5008
-28.679
-29.2168
-30.1807
-31.5475
-33.2216
-35.0828
-36.9771
-38.7612
-40.2829
-41.4779
-42.2726
-42.6393
-42.5856
-42.1422
-41.365
-40.3418
-39.176
-37.9595
-36.7693
-35.6679
-34.6943
-33.8686
-33.1993
-32.6876
-32.3237
-32.0933
-31.9709
-31.9215
11599
10481.8
10474.7
10467.5
10508.2
10514.5
10549.9
10709.5
10602.2
10527.9
155676
155650
153181
149694
675.574
-26.4644
-27.5967
-26.6115
-26.3631
-26.5014
-26.8708
-27.3875
-27.9764
-28.5262
-28.9184
-29.0762
-28.9669
-28.712
-28.5321
-28.4331
-28.3562
-28.3813
-28.6034
-29.1116
-29.9539
-31.1109
-32.5163
-34.0847
-35.6913
-37.1888
-38.5367
-39.5824
-40.2847
-40.6208
-40.5994
-40.2524
-39.6321
-38.8092
-37.8608
-36.8578
-35.862
-34.9217
-34.0732
-33.3414
-32.7376
-32.2642
-31.9138
-31.6753
-31.5314
-31.4553
11636.6
10466.5
10460.2
10458.6
10467.7
10482.3
10643.3
10674
10584.4
10332.1
164560
162978
159859
157827
-35.2608
-28.6625
-27.7712
-26.8796
-26.6233
-26.7266
-27.0045
-27.392
-27.8275
-28.2178
-28.4693
-28.524
-28.3651
-28.1337
-28.0904
-28.0606
-28.0618
-28.1508
-28.3977
-28.8649
-29.5898
-30.5625
-31.7394
-33.0505
-34.396
-35.6741
-36.8124
-37.7273
-38.3621
-38.6964
-38.7341
-38.4983
-38.0304
-37.3848
-36.62
-35.7922
-34.9532
-34.148
-33.4104
-32.7636
-32.2195
-31.7822
-31.4483
-31.2101
-31.054
-30.9625
11665.4
10440.1
10446.3
10464.6
10448.1
10468.7
10627.8
10556.6
10524.4
106361
172094
170200
166549
90403.1
-49.6303
-27.3638
-27.6773
-26.9161
-26.6906
-26.7452
-26.9443
-27.2324
-27.5539
-27.8283
-27.9825
-27.9702
-27.8228
-27.6339
-27.6383
-27.6541
-27.7067
-27.8369
-28.0948
-28.5239
-29.1525
-29.9748
-30.9596
-32.0558
-33.1897
-34.2763
-35.2512
-36.0505
-36.625
-36.9552
-37.0397
-36.8938
-36.5474
-36.0416
-35.4242
-34.7412
-34.0358
-33.3475
-32.7071
-32.1359
-31.6473
-31.2466
-30.9334
-30.7021
-30.5415
-30.4403
11254
10425.6
10456.8
10456.6
10435.4
10510.2
10610.7
10533.1
10590.5
173985
179933
177346
173420
28563.7
-19.7128
-29.1557
-27.5365
-26.8325
-26.5894
-26.5965
-26.7349
-26.9496
-27.1871
-27.3797
-27.4682
-27.4145
-27.2529
-27.1516
-27.1701
-27.2152
-27.3004
-27.4554
-27.7152
-28.1093
-28.6587
-29.3593
-30.1907
-31.1139
-32.0673
-32.991
-33.8292
-34.5282
-35.0467
-35.3663
-35.482
-35.4032
-35.1511
-34.7577
-34.2619
-33.6999
-33.1075
-32.5199
-31.9658
-31.4645
-31.0289
-30.665
-30.3747
-30.1542
-29.9948
-29.8894
10402
10407.9
10474.4
10425.2
10428
10436.8
10465.1
10539.4
10238.1
189615
187678
184454
180971
1299.79
-24.2142
-28.1882
-27.0911
-26.5438
-26.3238
-26.3077
-26.4038
-26.5675
-26.7471
-26.8838
-26.9294
-26.8611
-26.6772
-26.6526
-26.6811
-26.7443
-26.8489
-27.017
-27.2721
-27.6339
-28.1171
-28.7193
-29.4248
-30.2041
-31.0102
-31.7967
-32.5181
-33.1291
-33.5948
-33.8987
-34.0338
-34.0041
-33.8253
-33.5222
-33.1259
-32.6649
-32.1699
-31.6713
-31.1943
-30.7569
-30.3708
-30.0429
-29.7764
-29.5689
-29.4148
-29.31
10398.4
10453.1
10407.4
10418.1
10447.3
10420.1
10548.1
10495
138191
197600
195217
191528
190212
-37.7322
-27.9499
-27.7658
-26.6678
-26.1262
-25.9293
-25.9038
-25.9746
-26.1054
-26.2472
-26.3482
-26.3684
-26.3102
-26.1325
-26.1326
-26.168
-26.2408
-26.3564
-26.5295
-26.7752
-27.1064
-27.5332
-28.0545
-28.658
-29.3193
-30.0031
-30.6749
-31.2959
-31.8292
-32.2457
-32.5306
-32.6758
-32.6813
-32.5593
-32.329
-32.0145
-31.6387
-31.2276
-30.8068
-30.3981
-30.0185
-29.6783
-29.3848
-29.142
-28.9487
-28.8025
-28.7005
10392.4
10391.3
10397.5
10415.4
10424
10413.5
10463.3
10357.2
208014
205733
202654
198778
89314.8
-39.841
-28.0059
-27.1065
-26.0781
-25.6037
-25.4306
-25.4031
-25.4645
-25.5776
-25.6975
-25.7779
-25.785
-25.7375
-25.5841
-25.5885
-25.6279
-25.7055
-25.8262
-25.9978
-26.231
-26.5339
-26.912
-27.3658
-27.8853
-28.4496
-29.0325
-29.6079
-30.1432
-30.6085
-30.9804
-31.2449
-31.3938
-31.4242
-31.3461
-31.1743
-30.9268
-30.6226
-30.2829
-29.9294
-29.5813
-29.2534
-28.9551
-28.6941
-28.4744
-28.2962
-28.1589
-28.0616
10385.5
10385
10388.2
10400.4
10946.2
10595
10420.7
76067.1
216057
213568
210061
206327
16663.5
-16.6105
-27.7276
-26.2473
-25.4079
-24.9941
-24.8445
-24.8222
-24.885
-24.9942
-25.1049
-25.1755
-25.1755
-25.1103
-25.01
-25.0173
-25.0593
-25.1394
-25.2606
-25.4266
-25.6452
-25.9215
-26.2579
-26.655
-27.1037
-27.5879
-28.0879
-28.5821
-29.0439
-29.4503
-29.7823
-30.0264
-30.1746
-30.2227
-30.1785
-30.0533
-29.8606
-29.616
-29.3368
-29.0414
-28.7465
-28.4645
-28.2044
-27.9735
-27.7761
-27.6133
-27.4857
-27.3939
10386.1
10383.5
10382.7
10937.9
10763.2
10429.1
10427.1
214129
224315
221208
217530
215583
-45.3896
-28.1932
-26.8789
-25.4177
-24.6591
-24.3103
-24.1854
-24.1764
-24.2482
-24.3617
-24.4724
-24.5402
-24.5444
-24.4496
-24.4053
-24.417
-24.4621
-24.5433
-24.6615
-24.8193
-25.0228
-25.2741
-25.5744
-25.9234
-26.3121
-26.7296
-27.1613
-27.5871
-27.9861
-28.3418
-28.6381
-28.8626
-29.007
-29.0673
-29.0495
-28.9614
-28.8131
-28.618
-28.3899
-28.1444
-27.8958
-27.6542
-27.4289
-27.2261
-27.0497
-26.9022
-26.7847
-26.6988
10390.3
10386.2
10382.2
10703.7
10427.1
10410
60421.1
234971
232299
228828
225108
130527
-46.5187
-25.5445
-25.7323
-24.5157
-23.8598
-23.5677
-23.4655
-23.4735
-23.562
-23.6866
-23.8038
-23.8725
-23.8956
-23.7886
-23.7713
-23.7878
-23.8357
-23.9167
-24.03
-24.179
-24.3671
-24.5952
-24.8643
-25.1714
-25.5094
-25.8719
-26.2464
-26.614
-26.9601
-27.2725
-27.5373
-27.7429
-27.8815
-27.9498
-27.9521
-27.8933
-27.7814
-27.6273
-27.4424
-27.2397
-27.0311
-26.8254
-26.631
-26.4538
-26.2971
-26.1644
-26.0571
-25.9773
10394.8
10395.3
10388.1
10388.2
10446.1
10398.7
238033
243243
240050
236517
233093
24152.3
-18.0219
-26.5028
-24.6867
-23.5893
-23.0165
-22.7703
-22.6929
-22.726
-22.8354
-22.976
-23.1025
-23.1778
-23.2212
-23.1143
-23.1086
-23.1303
-23.1802
-23.2593
-23.3675
-23.5075
-23.6809
-23.8877
-24.1289
-24.3996
-24.6954
-25.0124
-25.338
-25.6564
-25.9582
-26.234
-26.4709
-26.6585
-26.7899
-26.8631
-26.8803
-26.8444
-26.7624
-26.6423
-26.4939
-26.328
-26.1539
-25.9795
-25.8124
-25.658
-25.5199
-25.4016
-25.3044
-25.2307
10397
10397.9
10457.9
10404.5
10407.4
153883
254032
251217
247770
244298
243228
-42.8296
-26.3714
-25.4099
-23.6006
-22.6165
-22.1281
-21.9234
-21.8746
-21.9383
-22.0738
-22.2329
-22.3706
-22.4557
-22.4895
-22.4155
-22.418
-22.4444
-22.4958
-22.5727
-22.6755
-22.8061
-22.9661
-23.1542
-23.3699
-23.6088
-23.8695
-24.1484
-24.4321
-24.7092
-24.9742
-25.2189
-25.4311
-25.6014
-25.7252
-25.801
-25.8293
-25.8113
-25.7534
-25.6612
-25.5434
-25.4089
-25.2646
-25.1175
-24.9742
-24.8403
-24.7197
-24.6149
-24.5278
-24.4604
10392.9
10508.1
10418.1
10377.3
29898.9
264639
262239
258962
255580
252267
96596.6
-32.8272
-25.4771
-23.9364
-22.4258
-21.5913
-21.192
-21.0331
-21.0209
-21.1173
-21.2807
-21.4613
-21.6111
-21.7103
-21.7099
-21.687
-21.6989
-21.7303
-21.7833
-21.8583
-21.9556
-22.0775
-22.2251
-22.3959
-22.5887
-22.801
-23.0321
-23.2775
-23.5254
-23.7685
-24.0028
-24.2207
-24.4108
-24.5653
-24.6817
-24.7584
-24.7946
-24.791
-24.752
-24.6821
-24.5897
-24.4817
-24.3628
-24.2401
-24.1182
-24.0026
-23.8979
-23.8058
-23.7282
-23.6672
10436.1
10437.5
10426.9
10328.9
274931
273007
270023
266709
263543
261469
578.571
-23.4967
-24.6336
-22.4661
-21.2112
-20.5287
-20.2169
-20.1093
-20.14
-20.273
-20.4635
-20.6638
-20.8255
-20.9474
-20.9259
-20.931
-20.9513
-20.9879
-21.0428
-21.1166
-21.2094
-21.3234
-21.4588
-21.6135
-21.7869
-21.9772
-22.1826
-22.3981
-22.6157
-22.8307
-23.0392
-23.2334
-23.4039
-23.5446
-23.654
-23.7302
-23.7716
-23.7791
-23.755
-23.7032
-23.6316
-23.5457
-23.449
-23.3475
-23.245
-23.1462
-23.0557
-22.975
-22.9061
-22.8513
10419.6
10384.9
11262.1
285286
283503
280810
277681
274650
271714
173819
-43.8319
-22.1609
-22.5254
-20.8989
-19.9291
-19.4205
-19.1994
-19.1519
-19.2337
-19.404
-19.619
-19.8378
-20.0199
-20.1602
-20.1299
-20.1474
-20.1758
-20.218
-20.2754
-20.3487
-20.438
-20.5447
-20.6684
-20.8088
-20.966
-21.1375
-21.3202
-21.5099
-21.7022
-21.8936
-22.0799
-22.2531
-22.4058
-22.5343
-22.6374
-22.712
-22.7566
-22.7722
-22.7595
-22.7228
-22.6687
-22.6015
-22.5243
-22.441
-22.3551
-22.2718
-22.1942
-22.1238
-22.0629
-22.0135
72409.8
57767.3
295488
294009
291481
288610
285779
283041
281058
7489.72
-16.616
-22.7403
-20.7433
-19.5117
-18.7943
-18.4341
-18.2854
-18.2872
-18.4023
-18.5897
-18.7995
-19.0015
-19.1851
-19.3117
-19.3103
-19.338
-19.3746
-19.4225
-19.4825
-19.5557
-19.6418
-19.7417
-19.8556
-19.9841
-20.127
-20.2814
-20.4439
-20.6125
-20.7842
-20.9552
-21.1214
-21.2759
-21.413
-21.5306
-21.6273
-21.6995
-21.746
-21.7673
-21.7637
-21.7398
-21.7006
-21.6491
-21.5886
-21.5207
-21.4494
-21.3798
-21.3138
-21.253
-21.1994
-21.1552
420312
420495
420465
420415
420350
420273
420175
420035
419830
419533
419115
418541
417767
416731
415346
413471
410855
406995
400563
388658
419939
420109
420076
420022
419952
419871
419770
419630
419424
419123
418692
418093
417272
416160
414646
412555
409568
405065
397742
385386
419590
419747
419712
419655
419582
419501
419405
419272
419075
418781
418355
417755
416928
415799
414262
412151
409199
404978
398861
390291
419266
419410
419374
419315
419242
419167
419082
418964
418782
418504
418096
417516
416714
415621
414144
412147
409439
405761
400824
394496
418968
419099
419062
419003
418935
418873
418804
418701
418536
418278
417894
417347
416591
415567
414197
412378
409982
406860
402886
398070
418698
418815
418777
418721
418668
418622
418566
418474
418322
418082
417724
417216
416516
415575
414329
412704
410613
407970
404722
400906
418454
418557
418520
418477
418443
418409
418357
418270
418125
417900
417568
417098
416456
415599
414477
413035
411213
408962
406256
403132
418237
418327
418299
418277
418255
418223
418170
418082
417942
417728
417417
416982
416393
415614
414607
413326
411734
409798
407508
404889
418047
418128
418121
418113
418095
418061
418004
417912
417771
417564
417268
416862
416320
415613
414706
413564
412163
410485
408526
406296
417889
417970
417981
417980
417962
417923
417858
417758
417612
417406
417121
416736
416234
415591
414773
413749
412504
411039
409354
407445
417775
417849
417871
417875
417856
417811
417734
417619
417462
417254
416973
416599
416131
415553
414818
413888
412760
411474
410040
408423
417861
417734
417766
417793
417782
417725
417630
417483
417301
417095
416812
416422
415976
415488
414838
413963
412855
411706
410499
409147
38360
417403
417691
417827
417824
417726
417621
417433
417219
417085
416819
416367
415922
415533
414862
412982
405875
392528
370893
344794
4.75434
1.15361
-0.280453
-1.34119
-2.29199
-3.43922
-4.85567
-6.63026
-8.92758
-10.3968
-12.5963
-16.031
-19.2666
-19.3474
-22.8643
-24.515
-32.7104
-34.4187
-34.2528
-22.3359
-5.70655
-2.83353
-0.316621
0.110085
0.119555
0.0128491
-0.165842
-0.409135
-0.685312
-0.90076
-1.16871
-1.54371
-1.82976
-1.89067
-2.13361
-2.45084
-3.17442
-3.53512
-3.35819
-2.09909
-2.37853
-2.60666
-1.19983
-0.599772
-0.358174
-0.288017
-0.309745
-0.391444
-0.513149
-0.65477
-0.835058
-1.06582
-1.3087
-1.54069
-1.83464
-2.19368
-2.64341
-2.95297
-2.97252
-2.60374
-1.98833
-2.12766
-1.47202
-1.0343
-0.779353
-0.654948
-0.617846
-0.641101
-0.70695
-0.803104
-0.927363
-1.07781
-1.24411
-1.42341
-1.63094
-1.86814
-2.11408
-2.29163
-2.33742
-2.25355
-1.92476
-1.69867
-1.42178
-1.16916
-0.983927
-0.870247
-0.816913
-0.810876
-0.841797
-0.902211
-0.986938
-1.0908
-1.20845
-1.3391
-1.48635
-1.64707
-1.80419
-1.92521
-1.98515
-1.98946
-1.93198
-1.46178
-1.31572
-1.17718
-1.06069
-0.978838
-0.932989
-0.919208
-0.93296
-0.970449
-1.02799
-1.10121
-1.18568
-1.27934
-1.38219
-1.4914
-1.59786
-1.68724
-1.74843
-1.78306
-1.95344
-1.32039
-1.21913
-1.14249
-1.07544
-1.02549
-0.995513
-0.985268
-0.993451
-1.01855
-1.05879
-1.11159
-1.17378
-1.24286
-1.31744
-1.3956
-1.47299
-1.54307
-1.60038
-1.64525
-1.99114
-1.25008
-1.14158
-1.10135
-1.06751
-1.04313
-1.02909
-1.02586
-1.03378
-1.053
-1.08305
-1.12267
-1.17012
-1.22354
-1.28152
-1.34261
-1.40444
-1.46374
-1.51781
-1.56693
-2.04124
-1.2168
-1.08388
-1.06999
-1.05898
-1.05233
-1.04985
-1.0525
-1.06152
-1.07807
-1.1025
-1.13434
-1.17283
-1.21699
-1.26578
-1.31815
-1.37248
-1.4268
-1.4799
-1.53207
-2.00925
-1.19635
-1.05395
-1.05935
-1.06253
-1.0649
-1.06768
-1.07291
-1.08228
-1.09725
-1.11863
-1.14643
-1.18042
-1.22016
-1.26478
-1.31355
-1.36536
-1.41872
-1.47301
-1.52838
-1.80655
-1.21023
-1.07379
-1.07794
-1.08555
-1.08913
-1.09236
-1.09773
-1.10685
-1.12099
-1.14104
-1.16712
-1.19919
-1.23703
-1.28001
-1.32748
-1.37868
-1.43259
-1.48855
-1.54619
340066
336436
344522
354835
362837
368179
371369
372956
373401
372893
371451
368908
364774
357705
343427
363046
348204
348884
355666
361991
366538
369351
370778
371082
370384
368663
365732
361171
354173
343564
378755
366863
362476
363425
366062
368482
370090
370794
370607
369523
367469
364287
359722
353457
345347
387009
379217
374149
372077
371768
372066
372275
372060
371252
369742
367425
364181
359883
354460
348044
392571
386771
382156
379095
377257
376099
375148
374074
372658
370748
368227
365002
361014
356279
350965
396599
391944
387824
384521
381986
379986
378245
376519
374615
372385
369718
366535
362807
358571
353962
399616
395722
392046
388792
385996
383568
381358
379206
376962
374506
371740
368602
365062
361106
356739
401937
398604
395325
392250
389433
386844
384404
382014
379569
376978
374160
371004
367427
363886
322308
403773
400878
397954
395122
392424
389848
387353
384878
382332
379598
376639
373973
317995
34867.1
-20.4061
405265
402721
400108
397563
395081
392634
390144
387575
385021
383238
277705
4093.64
-14.7178
2.1227
-5.88683
406535
404253
401821
399573
397265
395032
393130
362743
171305
-74.2606
-0.0154675
-0.794209
-5.36999
-7.01343
-6.99321
407416
405346
403148
399669
355206
202773
-72.8628
-7.60118
0.646289
-1.00627
-5.30945
-6.15104
-5.9317
-5.82507
-5.95945
295910
149723
2436.45
-45.338
-8.91169
3.15086
-0.210747
-3.64653
-5.57177
-4.9625
-4.68453
-4.82733
-4.96241
-5.10156
-5.26794
8.83836
6.20801
2.68252
-3.68481
-2.80966
-4.70124
-4.20067
-4.07537
-4.04801
-3.97866
-4.03714
-4.18421
-4.34059
-4.50674
-4.68805
-2.54378
-3.48641
-3.61227
-4.01602
-3.56284
-3.4203
-3.32309
-3.36489
-3.41625
-3.46704
-3.55751
-3.69419
-3.85436
-4.02823
-4.21228
-2.32542
-2.49915
-2.70379
-2.92868
-2.92874
-2.91139
-2.906
-2.93867
-2.99341
-3.07106
-3.17863
-3.31506
-3.47071
-3.63896
-3.81596
-2.18218
-2.23871
-2.34802
-2.46223
-2.51538
-2.54466
-2.5763
-2.62315
-2.68818
-2.77504
-2.885
-3.0152
-3.16049
-3.31672
-3.4805
-1.98372
-2.01722
-2.08387
-2.16204
-2.22769
-2.28237
-2.33489
-2.39325
-2.46399
-2.55144
-2.65589
-2.775
-2.90597
-3.04594
-3.19185
-1.80844
-1.84748
-1.904
-1.97167
-2.03966
-2.10375
-2.16571
-2.22989
-2.30139
-2.38406
-2.47861
-2.58356
-2.69698
-2.81676
-2.94054
-1.68603
-1.73452
-1.7921
-1.857
-1.92417