/*--------------------------------*- C++ -*----------------------------------*\
| =========                 |                                                 |
| \\      /  F ield         | OpenFOAM: The Open Source CFD Toolbox           |
|  \\    /   O peration     | Version:  v1912                                 |
|   \\  /    A nd           | Website:  www.openfoam.com                      |
|    \\/     M anipulation  |                                                 |
\*---------------------------------------------------------------------------*/
FoamFile
{
    version     2.0;
    format      ascii;
    class       surfaceScalarField;
    location    "12";
    object      phi;
}
// * * * * * * * * * * * * * * * * * * * * * * * * * * * * * * * * * * * * * //

dimensions      [0 3 -1 0 0 0 0];
oriented        oriented;


internalField   nonuniform List<scalar> 
40282
(
0.00292031
0.00236004
1.94562
-1.95276
1.94795
0.00481652
-1.94001
1.92958
0.0104338
-1.91661
1.90092
0.0156916
-1.88292
1.86285
0.0200773
-1.84043
1.81569
0.0247382
-1.78911
1.7611
0.0280143
-1.73136
1.69979
0.0315648
-1.66703
1.63343
0.0335998
-1.59879
1.56347
0.0353131
-1.5283
1.4936
0.0347073
-1.4596
1.4266
0.0330011
-1.39382
1.35898
0.0348426
-1.31895
1.27057
0.0483816
-1.21106
1.13828
0.0727847
-1.05059
0.946984
0.103603
-0.827225
0.691238
0.135987
-0.539988
0.379519
0.160469
-0.22349
0.0903422
0.133147
0.00263331
-0.0398535
0.0372202
-0.0037889
0.00504445
1.87975
-1.87575
1.86957
-0.0124831
0.0186608
-1.86103
1.85005
-0.0223968
0.0333794
-1.83667
1.82098
-0.0319389
0.0476272
-1.80295
1.78269
-0.0407874
0.0610513
-1.76038
1.73604
-0.0492622
0.0735994
-1.70961
1.68118
-0.0568156
0.0852383
-1.651
1.61908
-0.0635609
0.0954786
-1.58548
1.55057
-0.0688665
0.103778
-1.51451
1.47704
-0.0722625
0.109736
-1.43791
1.3966
-0.0732245
0.114544
-1.35152
1.30068
-0.0763272
0.127162
-1.24308
1.17922
-0.0880908
0.151951
-1.11035
1.03777
-0.113498
0.186085
-0.962486
0.88528
-0.150521
0.227727
-0.806805
0.72775
-0.193669
0.272723
-0.648972
0.571589
-0.234247
0.31163
-0.496643
0.424046
-0.254296
0.326894
-0.3518
0.276196
-0.221578
0.297183
-0.193959
0.102673
-0.125983
0.217269
-0.0063589
0.00761083
1.81237
-1.80854
1.8023
-0.0251104
0.0313459
-1.79361
1.78262
-0.0447388
0.0557347
-1.76932
1.75363
-0.063618
0.0793128
-1.73567
1.71552
-0.0816422
0.101789
-1.69307
1.66848
-0.0985677
0.123158
-1.64194
1.61319
-0.11419
0.142938
-1.58232
1.54987
-0.128365
0.160811
-1.51566
1.47926
-0.139666
0.176069
-1.44084
1.39973
-0.149293
0.190406
-1.35399
1.30238
-0.161937
0.213538
-1.24528
1.18377
-0.186605
0.248116
-1.11891
1.05156
-0.220341
0.287692
-0.98244
0.91224
-0.259624
0.329824
-0.841666
0.771417
-0.302943
0.373192
-0.702155
0.634441
-0.346416
0.41413
-0.568636
0.50475
-0.38127
0.445156
-0.442237
0.379843
-0.393421
0.455815
-0.315649
0.24742
-0.369486
0.437714
-0.173124
0.0912033
-0.306566
0.388487
-0.00882618
0.0100675
1.74741
-1.74378
1.73776
-0.037618
0.0436323
-1.7294
1.71854
-0.0667672
0.0776248
-1.7053
1.68987
-0.0952322
0.110669
-1.67209
1.65199
-0.122351
0.142455
-1.62976
1.60521
-0.14807
0.17262
-1.57827
1.5495
-0.172512
0.201277
-1.5189
1.48584
-0.194002
0.227069
-1.45044
1.41256
-0.213854
0.251738
-1.37054
1.32301
-0.23561
0.283139
-1.27024
1.21341
-0.269807
0.326639
-1.15365
1.09178
-0.311593
0.373458
-1.0284
0.963982
-0.35505
0.419468
-0.898972
0.83381
-0.39873
0.463892
-0.768929
0.704737
-0.44139
0.505582
-0.641567
0.579624
-0.479704
0.541647
-0.518917
0.459193
-0.507648
0.567371
-0.399902
0.3402
-0.517768
0.57747
-0.279045
0.215346
-0.504754
0.568453
-0.148133
0.0766344
-0.466143
0.537641
-0.0112534
0.0124157
1.68484
-1.68134
1.67542
-0.0496611
0.0555797
-1.66711
1.65662
-0.088599
0.0990915
-1.64386
1.62866
-0.126235
0.141441
-1.61118
1.59151
-0.162712
0.182377
-1.56942
1.54516
-0.197679
0.221943
-1.51913
1.49081
-0.230207
0.258523
-1.45986
1.42667
-0.261021
0.29421
-1.39046
1.34945
-0.291682
0.3327
-1.30301
1.25205
-0.333841
0.384803
-1.19783
1.14133
-0.38474
0.441235
-1.08321
1.02392
-0.435305
0.494597
-0.963806
0.903181
-0.483137
0.543762
-0.842339
0.78156
-0.527902
0.588681
-0.721101
0.661173
-0.568594
0.628522
-0.601922
0.543392
-0.602806
0.661336
-0.485506
0.428048
-0.626934
0.684392
-0.370661
0.312876
-0.637257
0.695042
-0.254155
0.193954
-0.631413
0.691613
-0.131787
0.0672348
-0.606525
0.671078
-0.0135371
0.014676
1.62456
-1.62098
1.61533
-0.0615421
0.0671945
-1.60755
1.59742
-0.10952
0.119649
-1.58491
1.57031
-0.156726
0.171323
-1.55356
1.53441
-0.202173
0.221323
-1.51323
1.49019
-0.246005
0.269038
-1.46467
1.43662
-0.287404
0.315455
-1.40641
1.37287
-0.327979
0.361524
-1.33426
1.29042
-0.376166
0.420004
-1.24248
1.19168
-0.43694
0.487746
-1.13888
1.08462
-0.497745
0.551996
-1.02928
0.973125
-0.553395
0.609554
-0.916382
0.859268
-0.603658
0.660772
-0.801981
0.744703
-0.648693
0.705971
-0.687588
0.630752
-0.687863
0.744699
-0.57426
0.518113
-0.719639
0.775786
-0.462244
0.406511
-0.741983
0.797716
-0.350708
0.294581
-0.753012
0.809138
-0.23785
0.180236
-0.7515
0.809114
-0.121489
0.0613997
-0.734295
0.794384
-0.0157747
0.0168401
1.56616
-1.56315
1.55792
-0.0727008
0.0779295
-1.55039
1.54067
-0.12985
0.13957
-1.52909
1.5154
-0.185683
0.199366
-1.49933
1.4813
-0.240352
0.258381
-1.46147
1.43921
-0.292095
0.314354
-1.41459
1.38788
-0.343378
0.370081
-1.35775
1.32251
-0.396497
0.43174
-1.28215
1.23785
-0.465168
0.509462
-1.19084
1.14191
-0.538661
0.587588
-1.09155
1.04007
-0.605866
0.65735
-0.987681
0.934568
-0.665173
0.718286
-0.880897
0.826821
-0.717336
0.771412
-0.77248
0.717999
-0.762806
0.817288
-0.663478
0.608993
-0.801312
0.855797
-0.554581
0.500245
-0.831989
0.886326
-0.445944
0.391602
-0.85373
0.908072
-0.33711
0.282334
-0.865571
0.920346
-0.227134
0.17137
-0.866767
0.92253
-0.114924
0.0577175
-0.853955
0.911162
-0.0178123
0.0187301
1.51028
-1.50751
1.50248
-0.0831552
0.0881868
-1.49549
1.48683
-0.148962
0.157619
-1.47616
1.46313
-0.212973
0.225998
-1.44828
1.43184
-0.275938
0.292374
-1.41315
1.39219
-0.336498
0.357459
-1.36928
1.34309
-0.396827
0.423009
-1.31191
1.27564
-0.468333
0.5046
-1.23545
1.19253
-0.554031
0.596954
-1.14766
1.1013
-0.636152
0.682514
-1.05371
1.00508
-0.708319
0.756949
-0.955555
0.905267
-0.7709
0.821188
-0.854339
0.802886
-0.825092
0.876546
-0.751012
0.698811
-0.871546
0.923747
-0.646361
0.593719
-0.910283
0.962925
-0.540921
0.487983
-0.940894
0.993832
-0.434894
0.381625
-0.962817
1.01609
-0.328131
0.274354
-0.975564
1.02934
-0.220235
0.16572
-0.978605
1.03312
-0.110769
0.0553938
-0.968367
1.02374
-0.0195794
0.0204128
1.45621
-1.45345
1.44892
-0.093114
0.0976368
-1.44293
1.43511
-0.165941
0.173763
-1.42505
1.4133
-0.238729
0.250473
-1.40028
1.38527
-0.30836
0.323371
-1.36803
1.34899
-0.377849
0.396888
-1.32711
1.30053
-0.449844
0.476419
-1.2689
1.23324
-0.54142
0.57708
-1.19474
1.15419
-0.639542
0.680091
-1.11204
1.06853
-0.728297
0.771807
-1.02382
0.978021
-0.805023
0.850818
-0.931246
0.883588
-0.871036
0.918694
-0.835143
0.785999
-0.927732
0.976876
-0.736241
0.685946
-0.975892
1.02619
-0.63518
0.583998
-1.01574
1.06692
-0.532444
0.480548
-1.04717
1.09906
-0.428328
0.375792
-1.06991
1.12245
-0.322941
0.269771
-1.08374
1.13691
-0.216278
0.162466
-1.0882
1.14202
-0.108353
0.0540149
-1.07951
1.13384
-0.0212072
0.0219839
1.40418
-1.40175
1.39804
-0.101836
0.105543
-1.39281
1.38555
-0.181458
0.188718
-1.37671
1.36692
-0.261471
0.271269
-1.35552
1.34195
-0.337974
0.351543
-1.32671
1.30923
-0.415401
0.432875
-1.28765
1.26113
-0.503577
0.530094
-1.23043
1.19671
-0.612542
0.646264
-1.1608
1.12315
-0.719959
0.757608
-1.084
1.04349
-0.814608
0.85512
-1.0017
0.958715
-0.896027
0.939016
-0.914598
0.869424
-0.965951
1.01113
-0.823264
0.776191
-1.02585
1.07292
-0.728273
0.679578
-1.07656
1.12525
-0.630167
0.580097
-1.11844
1.16851
-0.529423
0.47819
-1.15152
1.20276
-0.426444
0.374225
-1.17573
1.22795
-0.321571
0.268524
-1.19092
1.24397
-0.215123
0.161418
-1.19667
1.25037
-0.107471
0.0534292
-1.18891
1.24295
-0.0226949
0.0233437
1.35392
-1.35198
1.34895
-0.108939
0.111967
-1.34423
1.338
-0.195674
0.201903
-1.33105
1.32303
-0.280286
0.28831
-1.31302
1.30137
-0.364456
0.3761
-1.28817
1.27174
-0.450103
0.466529
-1.25073
1.22543
-0.556634
0.581937
-1.19689
1.166
-0.679258
0.710156
-1.13324
1.09885
-0.794329
0.828712
-1.06296
1.02562
-0.89479
0.932134
-0.986864
0.946745
-0.981349
1.02147
-0.905302
0.862582
-1.05589
1.09861
-0.818635
0.773513
-1.11986
1.16498
-0.727273
0.67997
-1.17412
1.22142
-0.631664
0.582415
-1.21905
1.2683
-0.532285
0.481339
-1.25474
1.30568
-0.429644
0.377273
-1.28114
1.33351
-0.324303
0.270813
-1.29812
1.35161
-0.21689
0.162625
-1.3052
1.35947
-0.108128
0.0536536
-1.29806
1.35254
-0.0238878
0.0243371
1.3056
-1.30396
1.3014
-0.114796
0.11735
-1.29745
1.29283
-0.207471
0.212084
-1.28773
1.28109
-0.295754
0.302395
-1.27278
1.26341
-0.386824
0.396195
-1.25195
1.23664
-0.48274
0.498051
-1.2171
1.19413
-0.606643
0.629611
-1.16864
1.14118
-0.739941
0.767401
-1.11201
1.08123
-0.861939
0.892717
-1.04887
1.01494
-0.968468
1.0024
-0.979442
0.942373
-1.06081
1.09788
-0.903748
0.863585
-1.14084
1.181
-0.821909
0.778747
-1.20995
1.25311
-0.734137
0.688119
-1.26893
1.31495
-0.640745
0.592072
-1.31813
1.36681
-0.542169
0.491113
-1.35757
1.40863
-0.438996
0.385921
-1.38712
1.4402
-0.332004
0.277372
-1.40655
1.46118
-0.222164
0.166522
-1.41522
1.47087
-0.110622
0.0549501
-1.40858
1.46425
-0.0246729
0.0249125
1.25918
-1.25793
1.25589
-0.11971
0.121754
-1.2531
1.25021
-0.215885
0.21877
-1.24656
1.24135
-0.308467
0.313677
-1.23521
1.22808
-0.404581
0.41171
-1.21828
1.20466
-0.512873
0.526485
-1.18756
1.16779
-0.651467
0.671231
-1.14599
1.12246
-0.793429
0.816962
-1.0973
1.0705
-0.92209
0.948884
-1.04204
1.01188
-1.03509
1.06526
-0.979969
0.946276
-1.13397
1.16766
-0.910772
0.873437
-1.22051
1.25785
-0.834259
0.793232
-1.29602
1.33705
-0.750361
0.70566
-1.36117
1.40587
-0.659158
0.610898
-1.41616
1.46442
-0.560944
0.509379
-1.46084
1.5124
-0.456309
0.40187
-1.49485
1.54929
-0.34622
0.289544
-1.51771
1.57439
-0.232049
0.173958
-1.52851
1.5866
-0.115564
0.0578649
-1.52247
1.58017
-0.0250553
0.0251167
1.21405
-1.21333
1.21199
-0.123504
0.124848
-1.21056
1.20916
-0.220916
0.222321
-1.20676
1.20333
-0.318125
0.321558
-1.19955
1.19453
-0.417888
0.42291
-1.18665
1.17549
-0.539195
0.550356
-1.16163
1.14572
-0.689469
0.705376
-1.12813
1.10899
-0.838753
0.857893
-1.08829
1.06594
-0.973975
0.99632
-1.04187
1.01598
-1.09388
1.11977
-0.988189
0.958407
-1.20007
1.22985
-0.926562
0.89258
-1.29425
1.32824
-0.856399
0.81796
-1.3776
1.41603
-0.777216
0.734133
-1.45064
1.49372
-0.688693
0.640901
-1.51336
1.56115
-0.590788
0.538421
-1.56531
1.61767
-0.483907
0.427398
-1.6057
1.66221
-0.369097
0.309258
-1.63355
1.69338
-0.248188
0.186241
-1.64743
1.70937
-0.123959
0.0634622
-1.64247
1.70297
-0.0251029
0.0250213
1.17075
-1.17041
1.16991
-0.125797
0.126295
-1.16978
1.16958
-0.223109
0.223302
-1.16853
1.16713
-0.324038
0.325441
-1.16563
1.1627
-0.426966
0.429891
-1.15719
1.14914
-0.560211
0.568264
-1.13911
1.12754
-0.719418
0.730987
-1.11461
1.1003
-0.874982
0.889292
-1.08452
1.06715
-1.01661
1.03398
-1.04806
1.02709
-1.14372
1.16468
-1.00412
0.979006
-1.25792
1.28303
-0.951612
0.921805
-1.36084
1.39065
-0.88945
0.854416
-1.45358
1.48861
-0.816576
0.775812
-1.53654
1.5773
-0.732021
0.685124
-1.60946
1.65636
-0.635076
0.581875
-1.67145
1.72466
-0.52558
0.466325
-1.72108
1.78034
-0.404331
0.339926
-1.75647
1.82088
-0.27355
0.205787
-1.77523
1.84299
-0.137699
0.0737485
-1.77253
1.83648
-0.0248798
0.0246776
1.12894
-1.12882
1.12918
-0.126356
0.125991
-1.13014
1.13102
-0.22294
0.222058
-1.13145
1.1321
-0.325818
0.325177
-1.13271
1.13199
-0.431763
0.432482
-1.12926
1.12477
-0.574696
0.579191
-1.11895
1.11205
-0.740424
0.747324
-1.1041
1.09502
-0.901252
0.910335
-1.08465
1.07283
-1.04892
1.06074
-1.05938
1.0441
-1.18324
1.19851
-1.02683
1.00736
-1.30588
1.32534
-0.985505
0.96105
-1.41846
1.44291
-0.93378
0.903468
-1.5221
1.55241
-0.869878
0.832767
-1.61718
1.65429
-0.791896
0.747034
-1.70329
1.74815
-0.697976
0.644561
-1.7791
1.83251
-0.586695
0.524386
-1.84227
1.90458
-0.457782
0.387222
-1.88952
1.96008
-0.31329
0.236941
-1.91659
1.99294
-0.160275
0.0921676
-1.91869
1.9868
-0.0244247
0.0241148
1.08862
-1.08911
1.09025
-0.125206
0.124063
-1.0921
1.09401
-0.220634
0.21873
-1.09594
1.09847
-0.323538
0.321017
-1.10105
1.10264
-0.432045
0.430454
-1.10293
1.10219
-0.581864
0.582596
-1.10074
1.09867
-0.751903
0.753975
-1.09592
1.09236
-0.916805
0.920366
-1.0878
1.08205
-1.06975
1.07551
-1.07489
1.06611
-1.21086
1.21964
-1.0555
1.04282
-1.34187
1.35456
-1.02781
1.0102
-1.46455
1.48215
-0.989706
0.965983
-1.5802
1.60393
-0.938676
0.907388
-1.68947
1.72075
-0.871691
0.831129
-1.79205
1.83261
-0.785229
0.733519
-1.88643
1.93814
-0.675567
0.611023
-1.96947
2.03401
-0.539704
0.461706
-2.03594
2.11393
-0.377578
0.288689
-2.07823
2.16712
-0.198958
0.125493
-2.09113
2.16459
-0.0237615
0.0233552
1.04961
-1.05048
1.05227
-0.122551
0.120763
-1.05486
1.05772
-0.216292
0.213427
-1.06105
1.0652
-0.317585
0.313438
-1.06958
1.07347
-0.427652
0.423764
-1.07678
1.07977
-0.581426
0.578436
-1.08262
1.08534
-0.753627
0.750905
-1.08783
1.08993
-0.921119
0.919025
-1.09143
1.09213
-1.07812
1.07741
-1.09182
1.09028
-1.22497
1.22652
-1.08727
1.08253
-1.36357
1.36831
-1.0758
1.06675
-1.49594
1.50498
-1.05506
1.04031
-1.62385
1.6386
-1.02204
0.999738
-1.74851
1.77082
-0.97277
0.940431
-1.87036
1.9027
-0.901904
0.856267
-1.98849
2.03413
-0.802502
0.739535
-2.09983
2.1628
-0.666321
0.58203
-2.19764
2.28193
-0.486384
0.38051
-2.26959
2.37546
-0.270732
0.189098
-2.30781
2.38944
-0.0229137
0.0224256
1.01209
-1.01349
1.01577
-0.118669
0.116382
-1.01895
1.02267
-0.21006
0.206344
-1.02717
1.03265
-0.308497
0.303017
-1.03861
1.04462
-0.418691
0.412685
-1.05073
1.05716
-0.573589
0.567156
-1.06402
1.07129
-0.745775
0.738512
-1.07883
1.08648
-0.914035
0.906378
-1.09407
1.10139
-1.07333
1.06601
-1.10824
1.11442
-1.2242
1.21802
-1.11971
1.12387
-1.3687
1.36453
-1.12666
1.12778
-1.5092
1.50808
-1.12691
1.12365
-1.64808
1.65133
-1.11755
1.10805
-1.78752
1.79702
-1.09448
1.07599
-1.92939
1.94789
-1.05153
1.01981
-2.0748
2.10652
-0.979172
0.927603
-2.22307
2.27464
-0.862637
0.781427
-2.36946
2.45067
-0.680972
0.55938
-2.49993
2.62152
-0.42345
0.326348
-2.60602
2.70312
-0.0219128
0.0213621
0.976048
-0.977526
0.980179
-0.113849
0.111196
-0.983807
0.988206
-0.20219
0.197792
-0.993615
1.00011
-0.296877
0.290377
-1.00735
1.01512
-0.405613
0.397836
-1.0236
1.03299
-0.559028
0.549641
-1.04337
1.0547
-0.728972
0.71764
-1.06687
1.07975
-0.895867
0.882992
-1.09316
1.10694
-1.05523
1.04145
-1.12091
1.13492
-1.20773
1.19373
-1.14878
1.16233
-1.35554
1.34199
-1.17537
1.1877
-1.50131
1.48898
-1.19911
1.20934
-1.64798
1.63775
-1.21807
1.22493
-1.79874
1.79187
-1.22946
1.23104
-1.95724
1.95566
-1.22888
1.2219
-2.12772
2.13471
-1.20859
1.18685
-2.31506
2.3368
-1.15364
1.10458
-2.52422
2.57328
-1.03308
0.929689
-2.75775
2.86114
-0.790828
0.711478
-3.04548
3.12483
-1.07865
2.11693
-1.03827
2.11619
-2.72971
0.61352
3.05951
-3.22192
0.162406
3.31964
-3.3708
0.051156
3.40074
-3.41683
0.0160871
3.42833
-3.43697
0.00863532
3.44442
-3.45272
0.00830475
3.46543
-3.48969
0.0242594
3.53562
-3.61236
0.0767364
3.72407
-3.87087
0.146792
4.04946
-4.24746
0.197996
4.42887
-4.50055
0.0716866
4.30329
-3.63837
-0.664925
2.50669
-1.21561
-1.29108
0.027894
1.03245
-1.06035
-1.95656
2.76898
-0.812423
-3.48669
4.11908
-0.632393
-4.6695
5.13839
-0.468891
-5.52656
5.83678
-0.310214
-6.0749
6.24912
-0.174213
-6.36909
6.44476
-0.0756689
-6.48576
6.50078
-0.0150185
-6.49559
6.4755
0.0200868
-6.44641
6.41121
0.0351975
-6.37201
6.33031
0.0417047
-6.28752
6.24482
0.0426947
-6.20304
6.16278
0.0402642
-6.12446
6.08835
0.036105
-6.0546
6.02327
0.0313295
-5.99436
5.96786
0.0265054
-5.94372
5.92195
0.0217705
-5.90271
5.88624
0.0164722
-5.87247
5.86063
0.0118375
-5.84938
5.83753
0.0118596
-5.82467
5.81119
0.0134779
-5.79776
5.78495
0.0128114
-5.77315
5.76254
0.0106089
-5.75325
5.74539
0.0078611
-5.73912
5.73462
0.00450156
-5.73213
5.7321
2.70851e-05
-5.73469
5.74028
-0.00559397
-5.7487
5.759
-0.0103049
-5.76922
5.77674
-0.00751353
-5.77944
5.77655
0.0028936
-5.76947
5.76019
0.00928754
-5.7503
5.7409
0.00939622
-5.73257
5.7258
0.00676405
-5.72112
5.719
0.00212936
-5.71987
5.7237
-0.00382321
-5.73049
5.73982
-0.00933205
-5.75106
5.76394
-0.0128833
-5.77714
5.78967
-0.0125362
-5.79877
5.80282
-0.00405056
-5.80092
5.79393
0.00699209
-5.78469
5.77436
0.0103336
-5.76496
5.75622
0.00874391
-5.74942
5.74493
0.00449208
-5.7431
5.74613
-0.00303218
-5.74932
5.75766
-0.00834442
-5.76332
5.76944
-0.00612126
-3.07841
3.89761
-0.819203
1.71492
-2.34194
-1.24923
1.87625
2.7901
-3.07538
-0.384624
0.66991
3.26764
-3.39663
-0.137252
0.266236
3.47668
-3.52272
-0.0447605
0.090799
3.5482
-3.56182
-0.0175353
0.031157
3.56836
-3.57023
-0.00995165
0.0118221
3.56824
-3.56189
-0.0241216
0.0177706
3.55125
-3.53665
-0.0859717
0.0713718
3.51726
-3.49066
-0.172496
0.145895
3.45241
-3.39979
-0.24046
0.187834
3.33599
-3.25601
-0.0752773
-0.00470167
3.14406
-2.86056
1.07092
-1.35442
2.25202
-1.35947
2.34204
-3.23459
0.360597
0.602358
2.05906
-3.02202
-1.4925
2.30276
1.61981
-2.43007
-3.0328
3.685
1.27149
-1.92369
-4.26022
4.75736
0.95093
-1.44807
-5.17556
5.51621
0.637081
-0.977729
-5.78346
5.98443
0.364094
-0.565064
-6.12841
6.22568
0.163994
-0.26127
-6.28674
6.32048
0.0402597
-0.0739933
-6.33571
6.33641
-0.0276433
0.0269395
-6.32791
6.31314
-0.0591805
0.0739464
-6.29431
6.27309
-0.0721869
0.093406
-6.25088
6.22867
-0.0740384
0.0962428
-6.20713
6.18664
-0.06938
0.0898627
-6.16746
6.1497
-0.0617178
0.0794761
-6.13348
6.1188
-0.0530505
0.0677383
-6.10565
6.09409
-0.0442924
0.0558582
-6.08405
6.07549
-0.0357337
0.0442917
-6.0684
6.06282
-0.0264594
0.0320425
-6.05882
6.05609
-0.0182719
0.0210041
-6.05371
6.05058
-0.0185044
0.0216378
-6.04614
6.04071
-0.0220379
0.0274662
-6.03493
6.02929
-0.0212491
0.0268879
-6.02413
6.01967
-0.0174791
0.0219481
-6.01597
6.01318
-0.0126012
0.0153963
-6.01145
6.01097
-0.00649104
0.00697163
-6.01198
6.01456
0.0015459
-0.00412917
-6.01893
6.02504
0.0115838
-0.0176951
-6.03277
6.04188
0.0199567
-0.0290714
-6.05165
6.06048
0.0159294
-0.024761
-6.06632
6.06772
-0.00296058
0.00155948
-6.06513
6.0602
-0.0157915
0.0207236
-6.05444
6.04875
-0.0165295
0.0222183
-6.04366
6.03951
-0.0119267
0.0160753
-6.0367
6.03572
-0.00360545
0.00458957
-6.03674
6.03999
0.00736028
-0.0106047
-6.04526
6.05216
0.0171762
-0.0240747
-6.06012
6.06865
0.0230843
-0.0316163
-6.0779
6.08751
0.0233907
-0.0329972
-6.09647
6.10275
0.00952787
-0.0158088
-6.10456
6.10183
-0.011181
0.0139182
-6.09615
6.08974
-0.0181558
0.0245676
-6.08336
6.07754
-0.0157445
0.0215709
-6.0722
6.06795
-0.0089783
0.0132288
-6.06562
6.06518
0.00342432
-0.00298552
-6.06765
6.07099
0.0129167
-0.0162542
-6.07535
6.07845
0.0100905
-0.0131855
-4.55174
5.01587
-0.464137
1.16484
-1.66648
-2.45391
2.95555
2.14336
-2.59986
-1.02911
1.4856
3.02108
-3.28166
-0.451511
0.712091
3.44239
-3.53872
-0.157388
0.253712
3.59351
-3.6223
-0.0510628
0.0798512
3.63758
-3.64543
-0.0158813
0.023729
3.64906
-3.64785
-0.0116464
0.0104441
3.63889
-3.6193
-0.0498569
0.0302727
3.58622
-3.53457
-0.0975925
0.0459383
3.45467
-3.33
-0.0794161
-0.045249
3.12419
-2.78616
0.186324
-0.524354
2.38733
-2.11808
1.60214
-1.87139
1.7938
-1.18312
3.97429
-4.58497
0.394891
0.43246
3.91608
-4.74343
-1.24052
2.00562
3.21701
-3.98211
-2.71606
3.36379
2.57215
-3.21988
-3.94367
4.44998
1.94748
-2.45379
-4.87869
5.229
1.32227
-1.67258
-5.50502
5.71413
0.770117
-0.979229
-5.86678
5.97431
0.363569
-0.471103
-6.04802
6.09731
0.11535
-0.164642
-6.12915
6.1487
-0.0172159
-0.00233098
-6.15983
6.16516
-0.0790128
0.073678
-6.16639
6.16478
-0.104976
0.106586
-6.16159
6.15778
-0.109215
0.113018
-6.15383
6.14993
-0.101878
0.105784
-6.14629
6.14301
-0.0897374
0.0930203
-6.14015
6.13784
-0.0759465
0.0782627
-6.13611
6.13503
-0.0618717
0.0629496
-6.1347
6.13503
-0.0481144
0.0477782
-6.1359
6.13729
-0.0338839
0.032498
-6.13949
6.14267
-0.0205758
0.0173993
-6.14616
6.14866
-0.0217983
0.0193003
-6.1493
6.1485
-0.0303419
0.0311429
-6.1471
6.14566
-0.0302152
0.0316604
-6.14447
6.14364
-0.0244381
0.0252618
-6.14323
6.14334
-0.0166024
0.0164912
-6.14415
6.14583
-0.00626262
0.00458028
-6.1485
6.15227
0.00737315
-0.0111444
-6.15721
6.1632
0.0237252
-0.0297219
-6.17008
6.1779
0.0374881
-0.0453059
-6.18678
6.19595
0.0337593
-0.0429344
-6.20332
6.20661
0.000856757
-0.00415454
-6.2058
6.20288
-0.024472
0.0273854
-6.19942
6.19612
-0.0266161
0.0299154
-6.19322
6.19081
-0.0192963
0.0217046
-6.18919
6.18881
-0.00524799
0.00563156
-6.18992
6.19262
0.0135413
-0.0162435
-6.19685
6.20229
0.0301382
-0.0355718
-6.20822
6.21402
0.0386323
-0.0444338
-6.22006
6.22701
0.0412242
-0.0481688
-6.23471
6.24156
0.0224004
-0.0292443
-6.24514
6.24416
-0.0156562
0.0166371
-6.24034
6.2361
-0.0297835
0.0340181
-6.2322
6.22862
-0.0262294
0.02981
-6.22487
6.22119
-0.0171517
0.0208278
-6.21846
6.21715
0.00209451
-0.000786596
-6.21787
6.21974
0.0188045
-0.0206724
-6.22266
6.22459
0.01559
-0.0175177
-5.30861
5.45174
-0.143124
0.535357
-0.805684
-3.33258
3.60291
1.00534
-1.01661
-2.0484
2.05967
1.73701
-2.2705
-1.0406
1.57408
2.61518
-2.84884
-0.388141
0.621803
3.02163
-3.16462
-0.126909
0.269901
3.29365
-3.41878
-0.0384952
0.163628
3.54453
-3.67121
-0.0179518
0.144624
3.79517
-3.91232
-0.0203538
0.137513
4.01916
-4.11001
-0.00407614
0.0949293
4.16537
-4.15988
0.162152
-0.167635
3.94214
-3.28862
1.03761
-1.69114
2.34218
-1.59321
2.16253
-2.9115
1.15074
-0.686651
5.09461
-5.5587
0.109039
0.539441
5.47342
-6.1219
-1.21571
1.89185
4.7002
-5.37634
-2.54384
3.1576
3.84826
-4.46202
-3.71772
4.21271
2.95374
-3.44872
-4.6328
4.97531
2.01794
-2.36044
-5.24382
5.44902
1.18575
-1.39096
-5.6025
5.71661
0.580864
-0.694968
-5.80303
5.87035
0.221673
-0.28899
-5.92355
5.96635
0.03246
-0.0752502
-6.00143
6.03079
-0.0570089
0.0276578
-6.05524
6.07549
-0.0976037
0.0773567
-6.09273
6.10785
-0.107414
0.0922955
-6.12126
6.13319
-0.101625
0.0896962
-6.14389
6.15353
-0.0896189
0.0799803
-6.16234
6.17049
-0.0751004
0.0669566
-6.17816
6.1855
-0.0595533
0.0522145
-6.19275
6.19999
-0.043762
0.0365265
-6.20701
6.2135
-0.0283636
0.0218663
-6.21992
6.22712
-0.0119759
0.00477876
-6.23494
6.24189
-0.0144679
0.00752077
-6.24632
6.24873
-0.0302063
0.0277901
-6.25047
6.25207
-0.0314614
0.029868
-6.25376
6.2556
-0.0246428
0.0228005
-6.25757
6.25971
-0.0152773
0.0131391
-6.26224
6.26537
-0.00211505
-0.00100847
-6.26912
6.27352
0.0152466
-0.0196538
-6.27861
6.28427
0.0355211
-0.041186
-6.29009
6.29602
0.052209
-0.0581419
-6.30302
6.31147
0.051892
-0.0603425
-6.31984
6.32488
0.00824391
-0.013281
-6.32523
6.3239
-0.0295181
0.0308489
-6.32249
6.32138
-0.0321027
0.0332171
-6.32053
6.3197
-0.0232948
0.0241174
-6.31907
6.31915
-0.00576264
0.00568264
-6.32028
6.3224
0.0186503
-0.0207778
-6.32553
6.32961
0.0403194
-0.0444044
-6.3341
6.33783
0.0490404
-0.0527694
-6.34094
6.34475
0.0535951
-0.0574101
-6.35003
6.35629
0.0359896
-0.0422507
-6.36143
6.36227
-0.0168204
0.0159774
-6.36017
6.35813
-0.0372048
0.0392381
-6.35653
6.35521
-0.0322257
0.0335491
-6.3532
6.35012
-0.0242002
0.0272805
-6.347
6.34485
-0.000931071
0.00308533
-6.34359
6.34325
0.021648
-0.0213129
-6.34426
6.3457
0.0191225
-0.0205654
-5.48163
5.42632
0.055308
0.0862531
-0.188561
-3.76523
3.86754
0.50588
-0.916045
-2.40404
2.81421
1.02561
-1.21161
-1.9602
2.1462
1.4799
-1.74308
-0.884525
1.1477
1.98773
-2.22368
-0.467605
0.703551
2.46074
-2.70332
-0.35772
0.600309
2.95011
-3.19423
-0.341321
0.585443
3.42335
-3.62553
-0.309694
0.511874
3.78968
-3.90069
-0.208197
0.319209
3.93909
-3.88731
0.15809
-0.209871
3.76803
-3.63077
1.82288
-1.96014
2.85227
-1.73147
4.46334
-5.58414
0.776058
-0.20602
6.04763
-6.61767
-0.285409
0.797814
6.68917
-7.20157
-1.34424
1.91405
5.99276
-6.56257
-2.48686
3.04215
5.04316
-5.59845
-3.56234
4.02572
3.92604
-4.38943
-4.41886
4.73387
2.68862
-3.00362
-4.98063
5.17305
1.58875
-1.78117
-5.32739
5.45355
0.812493
-0.938646
-5.56237
5.65808
0.367852
-0.463564
-5.74229
5.81611
0.131857
-0.205679
-5.88089
5.93764
0.014831
-0.0715796
-5.98765
6.03133
-0.0458257
0.00215281
-6.06926
6.10231
-0.0681266
0.0350766
-6.1311
6.15627
-0.0707914
0.0456222
-6.17849
6.1982
-0.0649498
0.0452459
-6.2158
6.23163
-0.0546389
0.0388036
-6.24599
6.2591
-0.0417064
0.0285969
-6.27126
6.28285
-0.0268054
0.0152117
-6.29398
6.30394
-0.0135479
0.00358515
-6.31249
6.32099
0.00338121
-0.011878
-6.33026
6.33974
0.00101666
-0.0104904
-6.34716
6.35216
-0.0241265
0.0191281
-6.35655
6.36042
-0.02709
0.0232195
-6.36404
6.36756
-0.0199974
0.0164707
-6.37105
6.37446
-0.0102918
0.00688127
-6.37798
6.38205
0.00460906
-0.00868181
-6.38653
6.3913
0.0242134
-0.0289781
-6.39622
6.40123
0.0465572
-0.0515652
-6.40593
6.40953
0.0628405
-0.0664375
-6.41277
6.41694
0.0672192
-0.0713858
-6.42331
6.43031
0.0193078
-0.0263078
-6.43185
6.43344
-0.0308792
0.0292884
-6.43491
6.436
-0.0332101
0.0321153
-6.43698
6.43756
-0.0241694
0.023592
-6.43778
6.43831
-0.00536362
0.00483632
-6.43956
6.44118
0.0225582
-0.0241762
-6.44294
6.44496
0.0474679
-0.049484
-6.44756
6.45054
0.0558235
-0.0588079
-6.45271
6.45341
0.0596034
-0.0603019
-6.45355
6.45496
0.0467207
-0.048133
-6.4589
6.46401
-0.0135362
0.00842866
-6.46769
6.46882
-0.0397795
0.0386533
-6.46863
6.46759
-0.0337869
0.0348249
-6.46286
6.43224
-0.0299301
0.0605525
-6.36567
6.30403
-0.0056837
0.0673185
-6.27306
6.25742
0.0192253
-0.00358797
-6.24868
6.24353
0.0214473
-0.0162951
-5.3083
5.14205
0.166252
-0.177327
0.183844
-3.9264
3.91989
-0.133324
-0.0742448
-3.11902
3.32659
0.323005
-0.409127
-2.25931
2.34543
0.548253
-0.744187
-1.38121
1.57715
0.973866
-1.22589
-0.953827
1.20586
1.49575
-1.7793
-0.868103
1.15166
2.07086
-2.35916
-0.854971
1.14327
2.62475
-2.84562
-0.724523
0.9454
3.00521
-3.08423
-0.412367
0.491388
3.05742
-2.90233
0.326777
-0.481864
2.61321
-2.27023
2.22944
-2.57242
1.91316
-1.37214
6.26789
-6.80891
0.502441
0.161799
7.28493
-7.94917
-0.642669
1.07969
7.6641
-8.10112
-1.53075
2.00505
7.07652
-7.55082
-2.49456
2.98283
6.11692
-6.60519
-3.44628
3.86071
4.82714
-5.24157
-4.2035
4.47063
3.29557
-3.5627
-4.67913
4.85401
1.96377
-2.13865
-5.02164
5.19376
1.07916
-1.25129
-5.3563
5.50064
0.58071
-0.725049
-5.6292
5.74236
0.297971
-0.411138
-5.84011
5.92315
0.141642
-0.224682
-5.99494
6.06111
0.0526952
-0.118869
-6.11889
6.16361
0.00473329
-0.0494547
-6.2005
6.23202
-0.01646
-0.0150574
-6.25943
6.28349
-0.0226851
-0.00137089
-6.3047
6.32363
-0.020925
0.00199702
-6.34067
6.35605
-0.0140033
-0.00137703
-6.36996
6.38272
-0.00283812
-0.00992251
-6.39474
6.4062
0.00720292
-0.0186656
-6.41615
6.42314
0.0198146
-0.0268039
-6.42821
6.43347
0.0194713
-0.0247239
-6.43884
6.44785
-0.0138052
0.00479338
-6.45465
6.46043
-0.0184486
0.0126672
-6.46473
6.46675
-0.0126197
0.0106012
-6.46011
6.43087
-0.00314587
0.0323933
-6.39662
6.37826
0.0130869
0.00527278
-6.37037
6.36781
0.0340098
-0.0314456
-6.36721
6.36701
0.0561604
-0.0559625
-6.36645
6.36524
0.0694214
-0.0682089
-6.36225
6.35778
0.0714842
-0.0670133
-6.35337
6.35167
0.0306845
-0.0289828
-6.35406
6.35535
-0.0247413
0.0234451
-6.35362
6.34836
-0.030549
0.0358015
-6.3375
6.31725
-0.0350499
0.0553017
-6.29324
6.26717
-0.0576193
0.0836959
-6.24065
6.21883
0.00786115
0.0139543
-6.20168
6.1873
0.0423225
-0.0279429
-6.17462
6.16343
0.0543475
-0.0431568
-6.15295
6.1419
0.0550878
-0.0440381
-6.13
6.11805
0.0423408
-0.0303888
-6.10735
6.10069
-0.00951278
0.0161783
-6.09573
6.08876
-0.0412402
0.0482107
-6.07818
6.06259
-0.0447343
0.0603226
-6.04141
6.02092
-0.0893075
0.109799
-6.00776
5.99455
-0.0940942
0.107305
-5.97757
5.96169
-0.0138827
0.0297606
-5.94875
5.93893
0.00809123
0.00173238
-4.93624
4.70194
0.234301
-0.349636
0.453938
-3.86389
3.75959
-0.576454
0.566159
-3.44376
3.45406
-0.455956
0.386509
-2.44548
2.51493
-0.327829
0.216252
-1.72806
1.83964
-0.0478372
-0.169708
-1.44251
1.66006
0.427145
-0.713362
-1.43692
1.72314
1.01589
-1.31847
-1.43684
1.73942
1.59922
-1.83495
-1.17134
1.40708
2.00399
-2.08333
-0.564513
0.643852
2.05216
-1.89385
0.646799
-0.805107
1.60175
-1.22812
2.93486
-3.30849
0.998073
-0.463842
7.37171
-7.90594
-0.0328772
0.534846
8.53846
-9.04043
-0.951062
1.32821
8.50679
-8.88393
-1.70775
2.10568
7.97918
-8.37711
-2.51973
2.93947
7.05503
-7.47477
-3.33976
3.68661
5.61998
-5.96683
-3.95556
4.1504
3.7928
-3.98764
-4.30785
4.48926
2.30937
-2.49079
-4.56766
4.96807
1.48412
-1.88453
-5.23863
5.45481
0.889838
-1.10602
-5.62151
5.75404
0.536564
-0.669096
-5.86193
5.95076
0.313898
-0.402736
-6.02414
6.08893
0.159815
-0.224611
-6.12472
6.1645
0.100218
-0.14
-6.19514
6.21839
0.0500861
-0.073334
-6.23618
6.25005
0.0267113
-0.0405816
-6.26067
6.26794
0.0141582
-0.0214255
-6.27183
6.27238
0.00645819
-0.00700376
-6.26952
6.26351
-0.000506676
0.0065207
-6.25529
6.24891
0.016901
-0.0105227
-6.2443
6.24064
0.0282302
-0.0245722
-6.23737
6.23514
0.0255426
-0.0233077
-6.23627
6.23903
0.00110773
-0.00387599
-6.24236
6.24481
-0.00846023
0.00601125
-6.24528
6.24302
-0.0116319
0.0138946
-6.23851
6.23527
-0.0427396
0.0459784
-6.23077
6.22183
-0.0200712
0.0290122
-6.21232
6.20409
0.024703
-0.0164755
-6.19696
6.1901
0.051838
-0.0449759
-6.18293
6.1752
0.0633126
-0.0555833
-6.16627
6.15585
0.0592369
-0.0488161
-6.14467
6.13532
0.0227496
-0.013407
-6.12894
6.12202
-0.0262463
0.0331589
-6.11231
6.09872
-0.0460655
0.0596581
-6.08108
6.06262
-0.074914
0.0933754
-6.04869
6.03476
-0.100153
0.114082
-6.01513
5.99195
-0.0366219
0.0598067
-5.96808
5.94456
0.00849776
0.0150269
-5.92171
5.89978
0.0263395
-0.00440879
-5.87842
5.85697
0.0276883
-0.00623475
-5.83514
5.81357
0.0133162
0.00825924
-5.79381
5.77737
-0.0278997
0.0443425
-5.76277
5.74763
-0.0594252
0.0745644
-5.73063
5.71194
-0.0781719
0.0968566
-5.69448
5.68417
-0.123545
0.133851
-5.68056
5.67581
-0.114407
0.119161
-5.66637
5.65439
-0.0433166
0.0553003
-5.64226
5.63135
-0.0121665
0.0230787
-4.44253
4.16685
0.275677
-0.466649
0.66098
-3.60662
3.41229
-0.951611
1.20451
-3.3625
3.1096
-1.37504
1.27839
-2.58427
2.68092
-1.24994
1.20336
-1.91386
1.96045
-1.10421
0.942769
-1.84919
2.01063
-0.721321
0.44832
-2.00207
2.27507
-0.138337
-0.18332