/*--------------------------------*- C++ -*----------------------------------*\
| =========                 |                                                 |
| \\      /  F ield         | OpenFOAM: The Open Source CFD Toolbox           |
|  \\    /   O peration     | Version:  v1912                                 |
|   \\  /    A nd           | Website:  www.openfoam.com                      |
|    \\/     M anipulation  |                                                 |
\*---------------------------------------------------------------------------*/
FoamFile
{
    version     2.0;
    format      ascii;
    class       volVectorField;
    location    "12";
    object      U;
}
// * * * * * * * * * * * * * * * * * * * * * * * * * * * * * * * * * * * * * //

dimensions      [0 1 -1 0 0 0 0];


internalField   nonuniform List<vector> 
20320
(
(1.88023 0.00577974 0)
(1.87992 -0.00597343 0)
(1.86698 0.00222466 0)
(1.84112 0.00985156 0)
(1.80484 0.0146705 0)
(1.76292 0.0217034 0)
(1.71197 0.0250213 0)
(1.65381 0.0300311 0)
(1.59104 0.0320603 0)
(1.52334 0.0346615 0)
(1.45569 0.0336947 0)
(1.3896 0.0312117 0)
(1.32667 0.0353813 0)
(1.25068 0.0543742 0)
(1.13681 0.0886192 0)
(0.968446 0.134089 0)
(0.73796 0.187694 0)
(0.443924 0.245084 0)
(0.140648 0.188551 0)
(-0.0382944 -0.0204503 0)
(1.88036 0.0101568 0)
(1.87284 0.0311168 0)
(1.85554 0.0578552 0)
(1.82874 0.0841661 0)
(1.79273 0.108758 0)
(1.74829 0.132162 0)
(1.69556 0.153555 0)
(1.63525 0.172296 0)
(1.56807 0.188075 0)
(1.49615 0.197835 0)
(1.41762 0.203205 0)
(1.32696 0.21914 0)
(1.21178 0.264064 0)
(1.07442 0.33337 0)
(0.92414 0.422492 0)
(0.767403 0.522406 0)
(0.609994 0.612499 0)
(0.459653 0.650639 0)
(0.313599 0.57824 0)
(0.148647 0.379274 0)
(1.88034 0.0155122 0)
(1.87275 0.0622542 0)
(1.85462 0.110984 0)
(1.82691 0.157753 0)
(1.78956 0.202631 0)
(1.74331 0.245294 0)
(1.68845 0.284176 0)
(1.62453 0.320222 0)
(1.55372 0.349175 0)
(1.47381 0.374614 0)
(1.37847 0.413422 0)
(1.26001 0.481182 0)
(1.12561 0.564111 0)
(0.982345 0.655527 0)
(0.83607 0.752455 0)
(0.692498 0.846464 0)
(0.55603 0.919313 0)
(0.426151 0.943991 0)
(0.292423 0.897518 0)
(0.138808 0.774143 0)
(1.88035 0.0209966 0)
(1.8727 0.0903978 0)
(1.85461 0.16043 0)
(1.82612 0.228935 0)
(1.78777 0.294332 0)
(1.74024 0.356191 0)
(1.68269 0.415645 0)
(1.61686 0.46757 0)
(1.54066 0.51657 0)
(1.44978 0.574337 0)
(1.33612 0.661709 0)
(1.20764 0.761024 0)
(1.07138 0.860936 0)
(0.931595 0.959128 0)
(0.792085 1.05292 0)
(0.65624 1.13536 0)
(0.525651 1.19462 0)
(0.398011 1.2169 0)
(0.266193 1.19288 0)
(0.122504 1.1167 0)
(1.88033 0.026302 0)
(1.87275 0.116905 0)
(1.85414 0.208677 0)
(1.82562 0.297368 0)
(1.78666 0.383432 0)
(1.73762 0.466413 0)
(1.68 0.542751 0)
(1.61077 0.616713 0)
(1.52968 0.692284 0)
(1.42576 0.797605 0)
(1.3048 0.917631 0)
(1.1752 1.03346 0)
(1.04114 1.14141 0)
(0.905448 1.24111 0)
(0.770601 1.33051 0)
(0.638438 1.40478 0)
(0.509301 1.45699 0)
(0.381223 1.48025 0)
(0.250076 1.47025 0)
(0.112413 1.42037 0)
(1.88036 0.0313184 0)
(1.87261 0.143089 0)
(1.85457 0.254521 0)
(1.82555 0.364599 0)
(1.78683 0.470531 0)
(1.73824 0.5723 0)
(1.67936 0.669829 0)
(1.60918 0.765371 0)
(1.51951 0.883696 0)
(1.40842 1.02726 0)
(1.28629 1.16655 0)
(1.15828 1.29246 0)
(1.02702 1.40525 0)
(0.8945 1.50546 0)
(0.762369 1.5919 0)
(0.631671 1.66159 0)
(0.502401 1.71066 0)
(0.373247 1.73559 0)
(0.241891 1.73405 0)
(0.10707 1.69893 0)
(1.88031 0.0362319 0)
(1.87297 0.167275 0)
(1.85483 0.299372 0)
(1.82703 0.427776 0)
(1.78846 0.554283 0)
(1.7414 0.67375 0)
(1.68222 0.792735 0)
(1.60967 0.919375 0)
(1.5125 1.08262 0)
(1.39964 1.25153 0)
(1.27884 1.40384 0)
(1.15316 1.53745 0)
(1.02439 1.6544 0)
(0.894018 1.75581 0)
(0.763209 1.84127 0)
(0.632655 1.90914 0)
(0.502359 1.95737 0)
(0.371569 1.98415 0)
(0.239048 1.988 0)
(0.104781 1.96136 0)
(1.88033 0.0405822 0)
(1.87331 0.190247 0)
(1.85582 0.340697 0)
(1.82926 0.487667 0)
(1.79238 0.631573 0)
(1.74632 0.771223 0)
(1.68905 0.910518 0)
(1.61123 1.08056 0)
(1.51099 1.27897 0)
(1.39934 1.46547 0)
(1.28094 1.62837 0)
(1.15772 1.76923 0)
(1.031 1.89087 0)
(0.901933 1.99483 0)
(0.771424 2.08128 0)
(0.640048 2.14952 0)
(0.507939 2.19852 0)
(0.37479 2.22738 0)
(0.240069 2.23501 0)
(0.104573 2.21337 0)
(1.8804 0.0443815 0)
(1.87348 0.211912 0)
(1.8579 0.377308 0)
(1.83191 0.543704 0)
(1.79849 0.701941 0)
(1.75427 0.861001 0)
(1.6976 1.02871 0)
(1.61569 1.24275 0)
(1.51618 1.46657 0)
(1.40738 1.66715 0)
(1.29199 1.84014 0)
(1.17127 1.98881 0)
(1.04623 2.11634 0)
(0.917807 2.22452 0)
(0.786778 2.31393 0)
(0.653712 2.38443 0)
(0.51892 2.4356 0)
(0.382469 2.46699 0)
(0.244355 2.47765 0)
(0.105995 2.45905 0)
(1.8804 0.0479337 0)
(1.87414 0.230377 0)
(1.86 0.411161 0)
(1.83627 0.592123 0)
(1.8061 0.766225 0)
(1.76534 0.942535 0)
(1.7075 1.14833 0)
(1.62505 1.39897 0)
(1.52885 1.6422 0)
(1.42406 1.85569 0)
(1.31222 2.03928 0)
(1.19413 2.19698 0)
(1.07058 2.33205 0)
(0.942319 2.44639 0)
(0.810059 2.54083 0)
(0.674413 2.61551 0)
(0.535894 2.67029 0)
(0.394918 2.70491 0)
(0.251939 2.71842 0)
(0.108931 2.70183 0)
(1.88031 0.0511141 0)
(1.8753 0.245306 0)
(1.86201 0.441771 0)
(1.84263 0.631812 0)
(1.8153 0.823085 0)
(1.77859 1.01842 0)
(1.72017 1.26525 0)
(1.64071 1.54432 0)
(1.54973 1.80396 0)
(1.45007 2.03043 0)
(1.34249 2.22576 0)
(1.22743 2.39414 0)
(1.10543 2.53879 0)
(0.97705 2.66161 0)
(0.842938 2.76343 0)
(0.703758 2.84445 0)
(0.56023 2.90456 0)
(0.41313 2.94347 0)
(0.26339 2.96008 0)
(0.113565 2.94516 0)
(1.88025 0.0535493 0)
(1.87649 0.257746 0)
(1.86481 0.46628 0)
(1.85006 0.664576 0)
(1.82658 0.87032 0)
(1.79361 1.08984 0)
(1.73717 1.37409 0)
(1.6636 1.67553 0)
(1.57957 1.95033 0)
(1.48638 2.19048 0)
(1.38414 2.39904 0)
(1.27291 2.58015 0)
(1.15289 2.73686 0)
(1.02442 2.87089 0)
(0.887988 2.98294 0)
(0.74427 3.073 0)
(0.594172 3.14071 0)
(0.438862 3.18548 0)
(0.279843 3.20591 0)
(0.120389 3.19287 0)
(1.88027 0.0550522 0)
(1.8775 0.268126 0)
(1.8688 0.48301 0)
(1.85794 0.691315 0)
(1.83994 0.907276 0)
(1.81079 1.15514 0)
(1.75948 1.47038 0)
(1.69427 1.79019 0)
(1.61909 2.07972 0)
(1.5341 2.33451 0)
(1.43879 2.55801 0)
(1.33276 2.7542 0)
(1.21576 2.92586 0)
(1.08772 3.07444 0)
(0.948841 3.2003 0)
(0.799648 3.30295 0)
(0.641148 3.38144 0)
(0.474911 3.43451 0)
(0.303185 3.46013 0)
(0.130261 3.44975 0)
(1.88034 0.0556921 0)
(1.87848 0.275827 0)
(1.87358 0.492458 0)
(1.86637 0.710918 0)
(1.85491 0.934513 0)
(1.83065 1.21115 0)
(1.7875 1.55074 0)
(1.73295 1.8862 0)
(1.66878 2.19026 0)
(1.59422 2.46058 0)
(1.50812 2.70077 0)
(1.40948 2.91454 0)
(1.2974 3.10445 0)
(1.1712 3.2716 0)
(1.03044 3.41584 0)
(0.875209 3.53593 0)
(0.706338 3.62987 0)
(0.525707 3.69509 0)
(0.336539 3.72833 0)
(0.144716 3.722 0)
(1.8804 0.0556326 0)
(1.87962 0.280009 0)
(1.8786 0.495934 0)
(1.87554 0.721873 0)
(1.87098 0.952416 0)
(1.85337 1.2546 0)
(1.82097 1.61263 0)
(1.77935 1.9615 0)
(1.72865 2.27967 0)
(1.66729 2.5661 0)
(1.59349 2.82441 0)
(1.50549 3.05819 0)
(1.40154 3.26983 0)
(1.27998 3.46019 0)
(1.13929 3.62859 0)
(0.9785 3.77279 0)
(0.797636 3.88916 0)
(0.598433 3.97291 0)
(0.385223 4.01826 0)
(0.166418 4.01813 0)
(1.88044 0.0550035 0)
(1.88097 0.280296 0)
(1.8835 0.494364 0)
(1.88529 0.723574 0)
(1.88768 0.960706 0)
(1.87862 1.28297 0)
(1.85907 1.65424 0)
(1.83253 2.01422 0)
(1.79796 2.3455 0)
(1.75312 2.64788 0)
(1.69554 2.92505 0)
(1.6227 3.18069 0)
(1.53182 3.4173 0)
(1.41987 3.63583 0)
(1.28366 3.83528 0)
(1.12015 4.01251 0)
(0.92728 4.16184 0)
(0.705253 4.27495 0)
(0.458947 4.34107 0)
(0.200089 4.35097 0)
(1.88045 0.053878 0)
(1.88244 0.276868 0)
(1.88814 0.488126 0)
(1.89519 0.716409 0)
(1.90451 0.958833 0)
(1.90549 1.29479 0)
(1.90034 1.67445 0)
(1.8908 2.04277 0)
(1.87503 2.38525 0)
(1.85028 2.70232 0)
(1.8136 2.99789 0)
(1.76173 3.276 0)
(1.69088 3.53975 0)
(1.5965 3.79075 0)
(1.47312 4.02857 0)
(1.31446 4.2499 0)
(1.11413 4.44744 0)
(0.867514 4.60834 0)
(0.576904 4.71291 0)
(0.256117 4.74186 0)
(1.88045 0.0523046 0)
(1.8839 0.270245 0)
(1.89243 0.477435 0)
(1.90472 0.701353 0)
(1.92085 0.946541 0)
(1.93269 1.28969 0)
(1.9428 1.67297 0)
(1.95168 2.04614 0)
(1.95704 2.39681 0)
(1.95592 2.72589 0)
(1.94511 3.03765 0)
(1.92097 3.3368 0)
(1.87903 3.62753 0)
(1.81356 3.91303 0)
(1.71686 4.1948 0)
(1.5787 4.47156 0)
(1.38586 4.73694 0)
(1.12309 4.97548 0)
(0.780145 5.15559 0)
(0.361674 5.22852 0)
(1.88043 0.050338 0)
(1.88523 0.261066 0)
(1.89628 0.462657 0)
(1.91338 0.679649 0)
(1.93595 0.92425 0)
(1.95865 1.26839 0)
(1.98407 1.65043 0)
(2.01206 2.02422 0)
(2.04023 2.3789 0)
(2.06569 2.71576 0)
(2.08535 3.03946 0)
(2.0957 3.35547 0)
(2.09244 3.66938 0)
(2.06977 3.98668 0)
(2.0193 4.31243 0)
(1.92835 4.65058 0)
(1.77718 5.00183 0)
(1.5352 5.35797 0)
(1.16079 5.68632 0)
(0.599961 5.89147 0)
(1.88042 0.0480523 0)
(1.88637 0.24996 0)
(1.89958 0.44442 0)
(1.92079 0.652661 0)
(1.94909 0.893147 0)
(1.98178 1.23263 0)
(2.02172 1.60846 0)
(2.06862 1.97798 0)
(2.1203 2.33148 0)
(2.17417 2.67052 0)
(2.22762 2.99995 0)
(2.2779 3.32577 0)
(2.32189 3.65472 0)
(2.35557 3.9944 0)
(2.37305 4.35377 0)
(2.36476 4.74395 0)
(2.31349 5.17919 0)
(2.18548 5.67729 0)
(1.908 6.25531 0)
(1.298 6.83432 0)
(-3.92627 3.14253 0)
(-10.0996 0.68365 0)
(-12.193 0.146037 0)
(-12.9119 0.0321718 2.00081e-20)
(-13.1345 0.00485455 0)
(-13.2223 0.00314396 0)
(-13.2821 0.00937896 0)
(-13.399 0.0485858 0)
(-13.8042 0.15742 0)
(-14.7339 0.285645 2.01341e-22)
(-16.2195 0.340516 0)
(-17.5228 0.027307 0)
(-14.9145 -1.26947 2.72782e-19)
(-6.30639 -2.05086 1.78257e-19)
(2.62855 -1.5865 0)
(9.55842 -1.191 1.34511e-19)
(15.0039 -0.924536 -1.71425e-19)
(19.1618 -0.689922 3.37106e-19)
(22.0957 -0.46454 0)
(23.8945 -0.272156 9.64623e-20)
(24.7847 -0.132071 -5.89357e-20)
(25.066 -0.0422666 -6.56893e-20)
(25.0025 0.00784441 1.70916e-20)
(24.7655 0.0284191 -8.07954e-21)
(24.4541 0.0417795 0)
(24.1211 0.0472162 -1.07928e-21)
(23.798 0.0464288 0)
(23.5035 0.042413 -3.52924e-22)
(23.2449 0.0370717 -8.44396e-22)
(23.0236 0.0312815 0)
(22.8391 0.0254021 -1.27699e-22)
(22.6929 0.0180624 -1.25994e-22)
(22.5884 0.0118341 1.79725e-22)
(22.5019 0.0124812 -2.38503e-22)
(22.4029 0.0147831 0)
(22.2998 0.0139237 0)
(22.2097 0.0108674 -6.18927e-23)
(22.1389 0.00706878 0)
(22.0915 0.00308359 4.63924e-23)
(22.0733 -0.0010242 0)
(22.0947 -0.00973381 0)
(22.1605 -0.0166608 3.55776e-22)
(22.2382 -0.0117442 0)
(22.2569 0.0016557 0)
(22.2019 0.00922246 -4.61929e-22)
(22.1258 0.00895003 -2.88884e-22)
(22.0619 0.00556414 0)
(22.0264 0.000826946 5.67379e-23)
(22.0342 -0.00720117 -5.83101e-23)
(22.0874 -0.0152208 8.61654e-23)
(22.1745 -0.0207559 0)
(22.2752 -0.0193321 -1.62461e-22)
(22.3432 -0.00596983 0)
(22.3281 0.00826195 1.35765e-22)
(22.2587 0.0123456 0)
(22.1897 0.0102052 0)
(22.1424 0.00412325 6.95868e-26)
(22.1316 -0.00678382 1.66465e-26)
(22.1536 -0.0141498 0)
(22.1925 -0.0103104 0)
(-5.61511 6.87608 0)
(-9.37627 3.10849 0)
(-11.7013 1.07045 -5.4668e-20)
(-12.8596 0.41612 0)
(-13.3271 0.137293 0)
(-13.4793 0.0486294 5.75891e-21)
(-13.5169 0.0215204 -2.46243e-21)
(-13.5098 0.0414872 0)
(-13.4775 0.154563 1.55386e-23)
(-13.3962 0.311626 2.3922e-21)
(-13.1459 0.414029 -9.98223e-24)
(-12.5296 0.0499216 1.41541e-20)
(-10.5766 -2.52588 9.23912e-20)
(-4.79446 -5.63289 0)
(2.44582 -5.09587 0)
(8.75281 -4.04883 -9.10667e-20)
(13.9334 -3.18871 0)
(17.9764 -2.39064 0)
(20.8526 -1.60747 1.3799e-22)
(22.6337 -0.923474 0)
(23.5513 -0.420391 0)
(23.909 -0.110361 0)
(23.9653 0.0581128 1.37999e-20)
(23.8762 0.137447 -6.57256e-21)
(23.7248 0.169764 2.62112e-21)
(23.5564 0.174155 6.8926e-22)
(23.3978 0.16279 0)
(23.2589 0.144303 0)
(23.1427 0.123469 -4.16802e-22)
(23.0498 0.102471 4.53539e-24)
(22.9797 0.0819997 0)
(22.9318 0.0600875 -3.24185e-24)
(22.9066 0.0406484 -2.93529e-22)
(22.8887 0.0414441 0)
(22.8537 0.0506084 0)
(22.8106 0.0491035 -1.73963e-22)
(22.7738 0.0402671 0)
(22.7484 0.0286778 0)
(22.7383 0.0139255 0)
(22.7492 -0.00547945 -1.48743e-22)
(22.786 -0.0291954 -2.52882e-22)
(22.8473 -0.0491267 6.75412e-22)
(22.9197 -0.0405209 -3.54435e-22)
(22.9567 0.00493223 0)
(22.9333 0.0370588 3.60737e-22)
(22.8897 0.0393038 0)
(22.8527 0.0283845 -1.96257e-22)
(22.834 0.00816913 8.48353e-23)
(22.8446 -0.0180499 9.02671e-23)
(22.8865 -0.0414854 -1.0868e-22)
(22.9471 -0.0551879 1.34653e-22)
(23.0166 -0.0568474 1.21554e-22)
(23.0815 -0.0252408 -2.70343e-22)
(23.092 0.0255708 0)
(23.0495 0.0432181 0)
(23.0027 0.0377845 0)
(22.9638 0.0222957 0)
(22.946 -0.00660685 2.32256e-23)
(22.9603 -0.0293848 -2.88537e-23)
(22.9881 -0.0234621 0)
(-6.07786 9.48473 0)
(-7.92341 5.38991 -1.46292e-19)
(-9.97708 2.23139 0)
(-12.2416 0.904642 -1.39061e-19)
(-13.162 0.317692 -3.85981e-20)
(-13.472 0.1042 -2.62448e-21)
(-13.5535 0.0321072 0)
(-13.5748 0.0214449 1.73375e-20)
(-13.5404 0.0948966 0)
(-13.3356 0.191133 0)
(-12.7235 0.149157 0)
(-11.0277 -0.326986 0)
(-6.9108 -3.31398 0)
(-2.45444 -8.51768 0)
(3.3481 -8.6148 0)
(8.73662 -7.14615 0)
(13.4445 -5.74131 0)
(17.2166 -4.36061 -9.42528e-20)
(19.8847 -2.96663 0)
(21.4945 -1.73298 0)
(22.316 -0.825632 0)
(22.6788 -0.274001 0)
(22.8205 0.019477 0)
(22.861 0.156333 0)
(22.8539 0.21444 0)
(22.829 0.224516 0)
(22.8054 0.209519 0)
(22.7869 0.184228 0)
(22.7749 0.155401 -1.05818e-23)
(22.7709 0.125836 0)
(22.7766 0.0967992 -1.1681e-22)
(22.7908 0.0671357 0)
(22.8144 0.0387627 0)
(22.8399 0.0418476 0)
(22.8409 0.0618016 0)
(22.831 0.0621126 0)
(22.825 0.0499536 -1.09379e-22)
(22.8256 0.03336 0)
(22.8359 0.0111823 0)
(22.8609 -0.0180839 0)
(22.9031 -0.0529321 2.26532e-22)
(22.9583 -0.0823517 -2.78637e-22)
(23.0229 -0.076005 2.698e-22)
(23.0664 -0.00453098 0)
(23.0536 0.0517783 3.23058e-22)
(23.0277 0.0564886 0)
(23.0083 0.0409919 0)
(22.9999 0.0109143 0)
(23.0122 -0.0296557 0)
(23.0466 -0.065441 -1.05489e-22)
(23.0913 -0.0828261 0)
(23.1363 -0.0893471 -1.71718e-22)
(23.1902 -0.0513189 0)
(23.2108 0.0325423 0)
(23.182 0.0637735 -6.46611e-23)
(23.1541 0.0560856 5.94216e-23)
(23.1272 0.0380928 -1.2957e-22)
(23.1079 -0.00286488 2.48653e-23)
(23.1122 -0.0395388 0)
(23.132 -0.0330937 6.52545e-24)
(-5.81015 10.6753 0)
(-5.92985 6.87242 0)
(-6.31146 4.39687 0)
(-8.97835 3.20386 0)
(-10.5822 1.17484 1.41115e-19)
(-11.4925 0.401348 0)
(-12.3202 0.144958 0)
(-13.2146 0.0860853 2.43256e-22)
(-14.1046 0.0426269 0)
(-14.8324 -0.0972501 -3.46858e-23)
(-14.9385 -0.730349 6.0238e-19)
(-13.4908 -3.89405 0)
(-4.37837 -4.70557 0)
(0.683577 -10.516 -1.71636e-22)
(5.11135 -11.472 2.09959e-22)
(9.3942 -9.9619 -2.51797e-22)
(13.436 -8.20746 -6.23211e-20)
(16.7876 -6.31925 0)
(19.1112 -4.32256 7.37466e-20)
(20.4359 -2.54335 0)
(21.1107 -1.25527 -1.00938e-22)
(21.4864 -0.497135 6.88143e-23)
(21.7455 -0.0988371 -4.43507e-23)
(21.9428 0.0904248 5.39078e-21)
(22.0958 0.178352 -2.65499e-21)
(22.2162 0.201596 0)
(22.3184 0.192263 0)
(22.4041 0.169998 -3.82558e-24)
(22.4772 0.142197 2.41816e-24)
(22.542 0.111819 0)
(22.6037 0.0804193 1.62355e-22)
(22.6626 0.0504474 0)
(22.7179 0.0169912 0)
(22.7737 0.0223338 0)
(22.7992 0.0576251 -9.55213e-22)
(22.8115 0.0607724 0)
(22.8271 0.0469589 0)
(22.8454 0.0280578 -1.14037e-22)
(22.869 0.00103889 2.31463e-22)
(22.9027 -0.0349016 -1.32238e-22)
(22.9464 -0.0763852 -3.18962e-22)
(22.9933 -0.109765 0)
(23.044 -0.111811 -3.89858e-22)
(23.0903 -0.0213683 0)
(23.0846 0.0597829 -3.00328e-22)
(23.0738 0.0646824 1.67236e-22)
(23.0699 0.0468719 0)
(23.0698 0.0110734 7.26006e-23)
(23.0828 -0.0394589 0)
(23.1095 -0.0843627 -8.70167e-23)
(23.142 -0.101206 -1.60628e-22)
(23.1657 -0.109988 3.56583e-23)
(23.201 -0.0776241 -1.00748e-22)
(23.229 0.0317561 -3.61893e-22)
(23.2144 0.07474 0)
(23.2034 0.0650903 6.97475e-23)
(23.1895 0.048993 1.00135e-22)
(23.1686 0.00265022 -1.75406e-23)
(23.1601 -0.0426751 0)
(23.1665 -0.0389654 0)
(-5.32033 10.7584 -1.88379e-20)
(-4.36617 7.55285 5.98261e-20)
(-4.83144 5.18086 0)
(-5.89576 4.04509 -7.20563e-20)
(-6.7227 1.9898 9.0441e-20)
(-8.07262 1.13529 0)
(-9.67028 0.924436 0)
(-11.4218 0.895159 8.0957e-23)
(-13.0182 0.801383 9.79198e-23)
(-14.0742 0.532738 -1.28037e-19)
(-14.012 -0.307021 -2.60459e-19)
(-11.6163 -3.67881 1.78164e-21)
(-1.88377 -10.966 3.55971e-18)
(3.43443 -12.3773 0)
(7.09657 -13.6567 1.16492e-22)
(10.4363 -12.3491 -3.36893e-20)
(13.7501 -10.4633 0)
(16.5745 -8.17434 -7.17373e-20)
(18.4246 -5.59793 -6.9418e-20)
(19.3736 -3.31175 0)
(19.9257 -1.72373 3.01742e-20)
(20.4001 -0.822761 -7.64178e-23)
(20.8449 -0.338625 0)
(21.2299 -0.0903167 0)
(21.5481 0.0411474 7.44857e-23)
(21.8048 0.0965181 -2.75616e-24)
(22.008 0.11071 0)
(22.1696 0.105511 0)
(22.3009 0.0897044 -6.51293e-24)
(22.4104 0.0674192 0)
(22.5051 0.0398565 3.52073e-22)
(22.5904 0.0155485 6.79833e-24)
(22.6605 -0.0152974 -1.34189e-23)
(22.7252 -0.0111199 -1.96887e-21)
(22.7674 0.0431407 2.36683e-21)
(22.7964 0.0510598 1.30464e-21)
(22.8254 0.0376682 0)
(22.8542 0.0188427 1.74393e-24)
(22.8852 -0.0101268 0)
(22.924 -0.0484579 2.86546e-22)
(22.9662 -0.0923477 2.57622e-22)
(23.0036 -0.124402 2.65674e-22)
(23.0274 -0.133417 1.58199e-22)
(23.0551 -0.0410309 -8.97144e-22)
(23.0672 0.0599618 -5.74758e-22)
(23.075 0.0654078 -1.11363e-21)
(23.0835 0.0481381 2.28824e-21)
(23.0907 0.0126324 -2.76753e-24)
(23.1041 -0.0405776 -2.13652e-21)
(23.1208 -0.0885447 1.99682e-21)
(23.1402 -0.106022 -1.8258e-21)
(23.1553 -0.114519 0)
(23.1538 -0.0877428 -1.44253e-21)
(23.1751 0.0272521 1.37613e-21)
(23.1983 0.0775595 0)
(23.1982 0.0659414 -3.77471e-22)
(23.1658 0.0616545 -7.68091e-22)
(22.6587 0.0437533 -1.68457e-24)
(22.4677 -0.0292271 0)
(22.4026 -0.0442901 -4.68629e-23)
(-4.76456 10.2338 -1.49312e-21)
(-3.29328 7.69111 0)
(-2.59047 6.3958 2.46623e-22)
(-3.51358 4.50786 0)
(-3.59436 2.91177 0)
(-4.82315 2.11453 -6.23207e-20)
(-6.64267 1.97028 0)
(-8.67438 1.94606 3.16751e-20)
(-10.3869 1.62769 5.83268e-21)
(-11.1858 0.885945 -1.08268e-19)
(-10.3077 -0.782774 1.15866e-19)
(-6.31113 -4.68322 -1.59466e-19)
(-2.73047 -12.8532 -8.94303e-18)
(5.81943 -14.9077 -2.40982e-19)
(8.86822 -15.4177 0)
(11.5475 -14.3133 3.2561e-20)
(14.1932 -12.4486 0)
(16.4357 -9.85441 0)
(17.6743 -6.71459 1.41238e-19)
(18.1779 -4.03889 0)
(18.7514 -2.24655 0)
(19.5319 -1.20567 9.80645e-21)
(20.2423 -0.613604 3.07848e-20)
(20.8237 -0.281987 0)
(21.2709 -0.0791818 3.47705e-20)
(21.6427 0.018735 0)
(21.8935 0.0531288 -2.83836e-20)
(22.0843 0.0633061 0)
(22.2362 0.0566857 -4.29865e-20)
(22.3609 0.0402077 0)
(22.4655 0.0158592 2.01891e-20)
(22.5557 -0.00484076 -1.89477e-20)
(22.6304 -0.0293695 0)
(22.6686 -0.0325834 1.50969e-20)
(22.6916 0.0269669 -2.14915e-20)
(22.7485 0.0366766 1.26666e-20)
(22.7817 0.0246356 4.42465e-23)
(22.7497 0.00839175 -6.11279e-21)
(22.4972 -0.0303129 -3.39444e-21)
(22.4563 -0.0871022 -1.6651e-23)
(22.4576 -0.131335 0)
(22.4562 -0.150026 -6.14327e-22)
(22.4331 -0.148131 -3.25508e-22)
(22.393 -0.0740817 0)
(22.3883 0.0402661 2.17105e-24)
(22.3754 0.0557068 6.28125e-22)
(22.2959 0.0881476 -2.79714e-21)
(22.1029 0.145663 8.41342e-23)
(21.9487 0.00494248 -1.02365e-21)
(21.8325 -0.0730654 -6.20039e-23)
(21.7452 -0.0996006 -7.83135e-23)
(21.6698 -0.100587 -5.00015e-23)
(21.5833 -0.0751831 1.24077e-22)
(21.5055 0.0222152 0)
(21.4656 0.0852328 -3.04581e-22)
(21.3904 0.100545 0)
(21.2477 0.20241 -6.19085e-22)
(21.1401 0.203629 0)
(21.033 0.0439239 0)
(20.9441 -0.00646152 0)
(-4.17889 9.38056 -9.86796e-21)
(-2.38899 7.43645 0)
(-1.54548 6.75695 0)
(-1.08167 4.82865 -4.8814e-20)
(-0.621798 3.48918 0)
(-1.55509 3.03063 0)
(-3.33176 3.07584 0)
(-5.40786 3.09066 0)
(-7.07071 2.50305 0)
(-7.65681 1.17031 0)
(-6.35326 -1.42186 0)
(-2.30039 -6.07507 1.71717e-20)
(0.273232 -14.8802 0)
(8.1676 -17.1433 0)
(10.3651 -16.9314 -8.0682e-21)
(12.5247 -15.9258 0)
(14.6058 -14.1475 1.26883e-22)
(16.2469 -11.2835 0)
(16.6638 -7.60489 -2.03772e-22)
(16.7619 -4.5794 0)
(17.2556 -3.52757 0)
(19.2749 -2.22855 -1.18211e-20)
(20.1676 -1.44977 -1.27566e-20)
(20.7419 -0.921263 1.20416e-20)
(21.1393 -0.510229 -2.16241e-20)
(21.3497 -0.246992 0)
(21.5294 -0.137564 -1.70213e-24)
(21.6386 -0.0898066 -2.18477e-23)
(21.701 -0.0535716 0)
(21.7195 -0.0209043 -3.58417e-21)
(21.691 0.01132 0)
(21.6472 -0.0270608 -4.85815e-21)
(21.6209 -0.054737 4.82395e-25)
(21.5964 -0.0500583 -2.21511e-21)
(21.591 -0.0036766 0)
(21.6105 0.0136853 2.17097e-21)
(21.6111 0.0242926 -1.58786e-21)
(21.5747 0.0916293 -5.33726e-22)
(21.5444 0.0519324 -2.31563e-21)
(21.4955 -0.0391555 -1.65782e-21)
(21.4546 -0.0940702 0)
(21.408 -0.115991 8.49108e-22)
(21.3433 -0.105501 5.04361e-22)
(21.2565 -0.03564 2.38819e-24)
(21.1975 0.056252 0)
(21.1254 0.101888 -6.97191e-22)
(20.9984 0.164322 1.69522e-21)
(20.8932 0.209557 -6.01938e-22)
(20.7737 0.0937725 0)
(20.617 0.00510217 2.30625e-23)
(20.4621 -0.0317428 0)
(20.3139 -0.0349182 0)
(20.1606 -0.00647166 0)
(20.0208 0.0683416 0)
(19.9167 0.128686 0)
(19.7981 0.170143 0)
(19.6801 0.250986 0)
(19.6527 0.227697 -8.63025e-23)
(19.5932 0.0964674 -1.61793e-22)
(19.5129 0.0340889 7.919e-23)
(-3.57876 8.33344 0)
(-1.48413 6.81435 -2.87412e-22)
(-0.3865 6.31474 1.86213e-18)
(1.87338 5.10734 -1.07698e-19)
(2.47604 3.76007 0)
(1.82125 3.75246 0)
(0.168846 4.14708 0)
(-1.95913 4.26963 8.05457e-20)
(-3.66074 3.44898 0)
(-4.19753 1.52363 0)
(-2.83302 -1.92971 0)
(0.829445 -7.41607 9.45235e-20)
(4.89317 -16.649 0)
(10.2549 -18.6316 0)
(11.6482 -18.1776 7.02169e-21)
(13.3027 -17.245 0)
(14.9148 -15.573 0)
(15.9263 -12.4299 0)
(15.6358 -8.45963 -6.24688e-19)
(18.0115 -5.83149 -5.13743e-20)
(18.8189 -4.0499 0)
(19.3826 -2.6938 -4.4399e-20)
(20.0138 -1.64885 -4.07846e-20)
(20.4486 -0.995318 -3.21669e-20)
(20.7153 -0.570625 -2.37755e-20)
(20.8487 -0.341631 0)
(20.9008 -0.180696 0)
(20.9007 -0.0890299 0)
(20.8604 -0.0354732 0)
(20.7975 0.00234001 0)
(20.7346 0.0316704 0)
(20.677 0.00709794 3.55367e-21)
(20.6112 -0.0243961 0)
(20.5525 -0.0299062 0)
(20.5207 -0.00736311 -1.83937e-21)
(20.5114 0.0104074 -1.8755e-21)
(20.4996 0.0330432 2.60947e-24)
(20.4874 0.0862795 0)
(20.5049 0.0675459 0)
(20.4831 -0.00867472 0)
(20.4345 -0.061935 0)
(20.3671 -0.0784633 0)
(20.2784 -0.0579274 0)
(20.1706 0.00900864 0)
(20.073 0.0954896 0)
(19.9643 0.161788 0)
(19.8301 0.231786 0)
(19.7255 0.262128 0)
(19.5989 0.184619 0)
(19.42 0.107244 -1.04622e-22)
(19.2217 0.0690646 0)
(19.0205 0.0646641 0)
(18.8192 0.0907973 0)
(18.6362 0.146948 0)
(18.4852 0.198796 -3.11945e-22)
(18.347 0.241469 0)
(18.2477 0.284511 0)
(18.2173 0.243729 0)
(18.1644 0.138688 0)
(18.0873 0.0774804 4.33197e-23)
(-2.95993 7.16452 1.65848e-20)
(-0.674879 5.94638 0)
(1.51394 4.17625 2.19977e-18)
(5.67225 5.42942 0)
(5.66667 3.86038 0)
(5.28338 4.2333 0)
(3.795 5.12299 -1.08137e-19)
(1.63154 5.53773 0)
(-0.302034 4.56552 1.74249e-19)
(-1.05014 2.08622 0)
(0.164591 -2.16777 1.32649e-20)
(3.54756 -8.34952 -8.72094e-20)
(7.91042 -18.336 0)
(11.9615 -19.5705 0)
(12.7038 -19.1003 -8.2171e-21)
(13.8819 -18.2977 -2.67795e-20)
(15.1273 -16.7505 1.52323e-19)
(15.4791 -13.5656 -3.34228e-19)
(19.1267 -8.70939 -8.92645e-19)
(18.0951 -6.83365 0)
(18.7621 -4.58751 6.92281e-20)
(19.0957 -3.19611 -4.36858e-20)
(19.4376 -2.06985 0)
(19.7373 -1.27685 2.77956e-20)
(19.9333 -0.741838 0)
(20.0263 -0.413474 -1.60274e-20)
(20.0333 -0.202931 1.15705e-20)
(19.987 -0.0742465 0)
(19.9035 0.000815072 0)
(19.8039 0.0460832 0)
(19.7124 0.0703689 3.17122e-21)
(19.6345 0.0532638 3.14094e-21)
(19.5546 0.0199098 -5.40905e-21)
(19.483 0.0019971 0)
(19.4366 0.00583662 2.03454e-21)
(19.414 0.0159153 -3.9631e-21)
(19.4015 0.0368118 -1.80712e-21)
(19.4036 0.0738673 3.27116e-21)
(19.43 0.0669109 -2.48158e-21)
(19.4256 0.0151897 -2.58854e-21)
(19.3824 -0.0249284 1.11711e-21)
(19.3087 -0.031422 1.856e-24)
(19.2088 -0.000752046 -4.59207e-22)
(19.0894 0.0677138 -8.08168e-24)
(18.9677 0.153862 3.57223e-22)
(18.8366 0.231999 -6.42192e-22)
(18.6951 0.301866 0)
(18.568 0.328911 -7.68766e-22)
(18.4171 0.283668 -9.5329e-27)
(18.217 0.227128 0)
(17.9885 0.195067 0)
(17.7509 0.19066 0)
(17.5162 0.210954 0)
(17.3022 0.249814 5.53176e-22)
(17.1203 0.286831 0)
(16.9689 0.313603 0)
(16.8654 0.321248 2.13117e-22)
(16.8082 0.269352 -6.29195e-23)
(16.7397 0.181803 -1.2372e-22)
(16.6549 0.12503 -9.32704e-23)
(-2.33806 5.94682 0)
(-0.0302193 5.02479 0)
(2.16129 2.69226 0)
(8.77964 3.77024 0)
(8.37966 3.75752 0)
(8.53072 4.4177 0)
(7.33734 5.92225 0)
(5.15198 6.85337 0)
(2.94415 5.99111 0)
(1.70021 3.01605 0)
(2.57528 -2.14439 0)
(6.11157 -9.12059 0)
(12.1716 -19.4025 0)
(13.0894 -20.1044 0)
(13.4787 -19.7225 0)
(14.277 -19.1053 0)
(15.2057 -17.7454 0)
(15.4842 -15.0178 0)
(17.4261 -11.1597 0)
(17.3116 -7.62308 0)
(17.7951 -5.18431 0)
(18.1358 -3.60515 0)
(18.4056 -2.41333 0)
(18.6441 -1.5284 0)
(18.8159 -0.901193 0)
(18.9058 -0.486561 0)
(18.9154 -0.218544 1.09522e-20)
(18.8685 -0.050442 0)
(18.7843 0.0480378 0)
(18.683 0.100844 0)
(18.5864 0.12075 0)
(18.5031 0.104683 0)
(18.4252 0.0690781 0)
(18.3577 0.0393008 0)
(18.3124 0.0257115 0)
(18.2903 0.0240542 0)
(18.2843 0.0362107 0)
(18.2962 0.0593123 0)
(18.3236 0.0589161 0)
(18.3277 0.0307023 0)
(18.2917 0.00993863 0)
(18.2186 0.0182239 0)
(18.1146 0.0608574 0)
(17.9881 0.134944 0)
(17.8509 0.224708 0)
(17.7036 0.310503 0)
(17.549 0.381572 0)
(17.3948 0.413757 0)
(17.2155 0.395254 5.52746e-22)
(16.9939 0.361203 4.239e-22)
(16.7427 0.339075 0)
(16.4806 0.335387 0)
(16.2232 0.34807 0)
(15.9872 0.370233 0)
(15.7835 0.38837 2.68457e-22)
(15.6165 0.392836 -1.1298e-22)
(15.4929 0.372768 6.17615e-23)
(15.4005 0.312668 0)
(15.3047 0.234535 -1.22437e-22)
(15.2025 0.179989 0)
(-1.73539 4.73878 -1.54807e-20)
(0.388302 4.06581 0)
(2.71177 1.59482 -1.74336e-19)
(4.26003 0.966789 4.13274e-19)
(9.35964 2.97053 0)
(10.6789 4.06835 0)
(10.3351 6.3827 0)
(8.26877 8.18745 1.43231e-19)
(5.75216 7.67003 1.0011e-19)
(3.96264 4.47992 0)
(4.24487 -1.7028 1.43043e-20)
(7.78698 -10.0102 0)
(13.6742 -19.7112 0)
(13.8104 -20.2613 -4.45146e-20)
(14.0054 -20.1071 -6.23361e-21)
(14.517 -19.6987 -1.82359e-20)
(15.093 -18.5973 -2.30471e-22)
(15.5506 -16.7189 0)
(16.2401 -11.9364 -4.78911e-21)
(15.9844 -8.35886 1.09891e-19)
(16.3055 -5.81439 2.93036e-22)
(16.6762 -4.0575 -7.51288e-20)
(16.9812 -2.76461 2.98557e-20)
(17.232 -1.79304 2.34535e-20)
(17.4202 -1.08046 0)
(17.5356 -0.584162 2.50758e-23)
(17.5763 -0.253005 1.00549e-20)
(17.5582 -0.0407702 0)
(17.5002 0.0852759 5.17611e-21)
(17.4221 0.149968 3.74553e-21)
(17.3428 0.169878 -2.94242e-21)
(17.273 0.152657 2.62487e-21)
(17.2118 0.11332 0)
(17.1623 0.0728225 0)
(17.132 0.0438232 0)
(17.1222 0.0289936 0)
(17.1291 0.0302129 2.09639e-21)
(17.151 0.0429998 -2.0241e-21)
(17.18 0.0475144 -5.00728e-25)
(17.1883 0.0398328 -2.22365e-21)
(17.1579 0.0408125 -2.03342e-21)
(17.0873 0.067403 0)
(16.9819 0.12455 4.98728e-22)
(16.8503 0.208067 0)
(16.7018 0.30468 0)
(16.5404 0.397867 0)
(16.3691 0.47397 0)
(16.1885 0.516442 0)
(15.9824 0.520795 0)
(15.7408 0.507702 -5.63835e-22)
(15.4725 0.496418 0)
(15.1939 0.493619 -2.5022e-22)
(14.921 0.498166 -2.57478e-22)
(14.6686 0.504285 2.70673e-22)
(14.4466 0.502664 2.56847e-22)
(14.2592 0.485165 0)
(14.106 0.44458 3.69605e-23)
(13.9738 0.377932 -8.80897e-23)
(13.8425 0.303276 0)
(13.7141 0.246358 -5.49329e-23)
(-1.18956 3.56397 1.51072e-20)
(0.772947 3.089 0)
(2.88445 1.26715 0)
(4.01691 -0.733285 -6.9227e-20)
(5.68334 0.329074 0)
(10.2562 2.48146 1.67192e-19)
(11.8634 5.95843 2.32593e-19)
(10.7673 9.3401 0)
(8.0568 9.56729 2.41459e-19)
(5.5749 6.50105 -3.43229e-20)
(5.20112 -0.633801 -5.19333e-20)
(8.49853 -10.8009 0)
(14.2314 -19.8908 0)
(14.2475 -20.2752 0)
(14.3263 -20.3088 4.18876e-21)
(14.6331 -20.1013 -6.66746e-23)
(14.9404 -19.316 0)
(15.874 -16.9684 0)
(14.5297 -12.5903 1.28194e-20)
(14.4011 -9.02468 0)
(14.6301 -6.44983 -7.34456e-20)
(14.9884 -4.56611 0)
(15.3267 -3.15997 2.60538e-20)
(15.6108 -2.0937 2.07706e-20)
(15.8317 -1.29465 1.60013e-20)
(15.9839 -0.717863 1.21397e-20)
(16.0666 -0.319937 0)
(16.0907 -0.0586276 0)
(16.0732 0.0996989 -4.63292e-21)
(16.0326 0.181276 0)
(15.9862 0.206006 2.6626e-21)
(15.9451 0.188342 2.35761e-21)
(15.9129 0.144875 0)
(15.8924 0.094913 2.22126e-21)
(15.8878 0.0527734 2.21771e-21)
(15.8998 0.0256436 3.79741e-24)
(15.9249 0.0168402 2.24413e-21)
(15.9589 0.0231432 2.1949e-21)
(15.992 0.0332373 0)
(16.003 0.0442366 2.21491e-21)
(15.976 0.0677827 -2.01711e-21)
(15.9072 0.115158 1.61053e-21)
(15.8007 0.189482 -5.18602e-22)
(15.6643 0.285805 1.76975e-22)
(15.5062 0.392382 1.67841e-22)
(15.3314 0.494729 4.72183e-22)
(15.1426 0.579582 0)
(14.9385 0.635213 7.94223e-22)
(14.7095 0.65964 -7.57168e-22)
(14.4509 0.664937 -6.87204e-22)
(14.1699 0.663812 0)
(13.8803 0.661813 0)
(13.5964 0.658617 0)
(13.3304 0.650297 0)
(13.09 0.630909 0)
(12.8772 0.595301 9.40844e-23)
(12.6879 0.540552 2.62721e-23)
(12.511 0.46906 0)
(12.3357 0.394164 -5.24672e-25)
(12.1703 0.329376 -5.98756e-23)
(-0.726327 2.49143 0)
(1.03797 2.15812 0)
(2.82616 0.85106 1.60037e-20)
(3.82212 -0.8487 0)
(4.31401 -1.99231 0)
(6.64829 -0.650931 -2.46577e-19)
(10.3073 3.69145 3.59224e-19)
(11.7484 9.62795 0)
(9.65299 11.5396 0)
(6.5407 9.09365 5.53266e-22)
(5.56082 1.05782 0)
(8.8309 -11.1519 0)
(14.487 -19.8965 -6.06685e-20)
(14.4742 -20.2202 8.75944e-21)
(14.486 -20.3881 1.7183e-21)
(14.66 -20.3464 -1.99058e-20)
(14.8309 -19.8825 -1.07919e-19)
(15.2392 -17.024 3.75125e-23)
(13.3503 -12.9927 -3.74381e-20)
(12.9406 -9.62493 0)
(13.0188 -7.05767 0)
(13.2982 -5.09655 -5.24093e-20)
(13.6162 -3.59143 -4.42481e-20)
(13.9066 -2.43106 3.57498e-20)
(14.1463 -1.5456 1.39183e-20)
(14.3268 -0.889371 0)
(14.446 -0.423432 -7.72214e-21)
(14.5113 -0.109797 5.54726e-21)
(14.5369 0.0846207 -3.93625e-21)
(14.539 0.187249 0)
(14.5329 0.220813 2.27631e-21)
(14.5299 0.204499 -2.05476e-21)
(14.535 0.157503 0)
(14.5509 0.0995823 2.14681e-21)
(14.5793 0.0468676 -2.27049e-21)
(14.6191 0.00981036 -2.38046e-21)
(14.6661 -0.00623462 4.83442e-21)
(14.7143 -0.00225105 0)
(14.7532 0.0155544 2.37495e-21)
(14.7664 0.0449914 0)
(14.7406 0.0917191 -2.06235e-21)
(14.6718 0.161744 4.15342e-25)
(14.5632 0.25567 -5.42226e-22)
(14.4215 0.367736 2.0771e-22)
(14.2543 0.487147 0)
(14.067 0.601021 -4.46055e-22)
(13.8621 0.697495 -6.86922e-22)
(13.6386 0.767646 -2.89223e-25)
(13.3917 0.809897 8.35483e-22)
(13.1201 0.830968 0)
(12.8303 0.838826 0)
(12.5334 0.837727 0)
(12.2407 0.828155 3.42104e-22)
(11.9616 0.808264 -3.20898e-22)
(11.7006 0.775257 2.7819e-22)
(11.4571 0.727229 -9.72876e-23)