/*--------------------------------*- C++ -*----------------------------------*\
| =========                 |                                                 |
| \\      /  F ield         | OpenFOAM: The Open Source CFD Toolbox           |
|  \\    /   O peration     | Version:  v1912                                 |
|   \\  /    A nd           | Website:  www.openfoam.com                      |
|    \\/     M anipulation  |                                                 |
\*---------------------------------------------------------------------------*/
FoamFile
{
    version     2.0;
    format      ascii;
    class       surfaceScalarField;
    location    "32";
    object      alphaPhi0.water;
}
// * * * * * * * * * * * * * * * * * * * * * * * * * * * * * * * * * * * * * //

dimensions      [0 3 -1 0 0 0 0];
oriented        oriented;


internalField   nonuniform List<scalar> 
40282
(
0.00276839
0.00264836
1.91886
-1.92547
1.91987
0.00559918
-1.91084
1.89864
0.0122056
-1.88348
1.86538
0.0181035
-1.84442
1.82058
0.0238451
-1.79398
1.7646
0.0293759
-1.73258
1.69791
0.0346731
-1.66074
1.62107
0.0396682
-1.57903
1.53463
0.044405
-1.48794
1.43905
0.0488942
-1.38794
1.33483
0.0531168
-1.27959
1.22256
0.057029
-1.16352
1.10291
0.0606069
-1.04037
0.976508
0.0638596
-0.910862
0.844109
0.0667534
-0.775699
0.706235
0.0694637
-0.635185
0.56287
0.0723148
-0.488826
0.412672
0.0761537
-0.335037
0.253127
0.0819099
-0.170704
0.0785905
0.0921132
-0.00422695
0.00560011
1.85397
-1.84949
1.84254
-0.014095
0.0210394
-1.83287
1.82043
-0.0256185
0.0380593
-1.80521
1.78726
-0.0369208
0.0548726
-1.7666
1.74326
-0.0479919
0.071332
-1.71726
1.68864
-0.0587604
0.0873838
-1.65743
1.6237
-0.0692012
0.102932
-1.58749
1.54886
-0.0792576
0.117884
-1.50787
1.46456
-0.0888777
0.132182
-1.419
1.37123
-0.0980089
0.14578
-1.32131
1.26929
-0.106617
0.158635
-1.21525
1.15921
-0.114667
0.170707
-1.10126
1.04142
-0.122107
0.181947
-0.979795
0.916396
-0.12888
0.192278
-0.851344
0.784638
-0.134892
0.201598
-0.716425
0.646703
-0.140136
0.209858
-0.57563
0.503228
-0.144737
0.217139
-0.429711
0.355264
-0.149321
0.223767
-0.280116
0.204985
-0.155278
0.230409
-0.129771
0.0575533
-0.165336
0.237553
-0.00700951
0.00835779
1.78752
-1.78334
1.77653
-0.0281731
0.0349836
-1.76707
1.75497
-0.0506824
0.062779
-1.74025
1.7229
-0.0729226
0.0902711
-1.70294
1.6804
-0.0947317
0.117272
-1.65531
1.6277
-0.116014
0.14362
-1.59762
1.56508
-0.136651
0.169183
-1.53015
1.49284
-0.15651
0.19381
-1.45323
1.41137
-0.17549
0.217351
-1.36733
1.32116
-0.19353
0.239695
-1.27295
1.22276
-0.210584
0.260771
-1.17067
1.11675
-0.226619
0.280546
-1.06105
1.00364
-0.241608
0.299014
-0.944584
0.883921
-0.255468
0.316131
-0.821705
0.757974
-0.268026
0.331757
-0.692767
0.626106
-0.278984
0.345646
-0.558011
0.488511
-0.287984
0.357483
-0.417707
0.345765
-0.294969
0.36691
-0.272979
0.199777
-0.300337
0.373539
-0.126645
0.0559374
-0.307307
0.378015
-0.00964288
0.0109185
1.72352
-1.71965
1.71323
-0.041702
0.0481201
-1.70426
1.69273
-0.074814
0.0863383
-1.67867
1.66209
-0.107542
0.124124
-1.64301
1.62144
-0.139723
0.161287
-1.59742
1.57096
-0.171177
0.197633
-1.5421
1.51086
-0.201706
0.232944
-1.47729
1.44141
-0.231128
0.267008
-1.40327
1.36292
-0.259265
0.299614
-1.32041
1.27581
-0.285965
0.33057
-1.22917
1.18057
-0.311107
0.359703
-1.1301
1.07783
-0.334619
0.386884
-1.02387
0.968301
-0.356493
0.412062
-0.911218
0.852707
-0.376724
0.435235
-0.792844
0.731694
-0.395238
0.456388
-0.669307
0.605723
-0.411772
0.475356
-0.540959
0.475009
-0.425692
0.491641
-0.407863
0.339536
-0.436079
0.504405
-0.270129
0.199838
-0.442191
0.512483
-0.129004
0.0594627
-0.446677
0.516218
-0.0121385
0.0133453
1.66179
-1.65814
1.65205
-0.0544916
0.0605797
-1.64353
1.6326
-0.0977864
0.10872
-1.61926
1.60352
-0.140595
0.156337
-1.58539
1.56489
-0.182715
0.203213
-1.54204
1.51685
-0.22394
0.249127
-1.48935
1.45956
-0.264031
0.293819
-1.42751
1.39324
-0.302743
0.337018
-1.35677
1.31815
-0.339837
0.378456
-1.27743
1.23464
-0.375088
0.417877
-1.18984
1.14309
-0.408274
0.455021
-1.09446
1.04402
-0.439205
0.489643
-0.99186
0.938069
-0.467767
0.521558
-0.882749
0.826008
-0.493914
0.550656
-0.767951
0.708678
-0.517666
0.576939
-0.648276
0.586815
-0.538958
0.600419
-0.524348
0.460907
-0.557314
0.620755
-0.396508
0.331142
-0.571521
0.636887
-0.264782
0.197402
-0.579788
0.647167
-0.128998
0.0612878
-0.583548
0.651258
-0.0144922
0.0156199
1.60239
-1.59879
1.59307
-0.0665965
0.0723154
-1.58507
1.57479
-0.11953
0.12981
-1.56223
1.54741
-0.171912
0.186733
-1.53033
1.511
-0.223511
0.242846
-1.48942
1.46561
-0.274094
0.297904
-1.43958
1.41135
-0.323378
0.351606
-1.38094
1.34838
-0.37107
0.403635
-1.31368
1.27689
-0.416871
0.453667
-1.23803
1.19714
-0.460498
0.501387
-1.15426
1.10945
-0.501651
0.546461
-1.06276
1.01425
-0.540036
0.588548
-0.963984
0.912049
-0.575401
0.627335
-0.858533
0.803537
-0.607554
0.66255
-0.747173
0.689554
-0.636449
0.694068
-0.630792
0.570991
-0.662138
0.721939
-0.510234
0.448587
-0.684383
0.746031
-0.386094
0.322775
-0.702057
0.765376
-0.258595
0.193445
-0.712953
0.778103
-0.12704
0.0616756
-0.717402
0.782767
-0.0166851
0.0177244
1.5448
-1.54177
1.53646
-0.0779376
0.0832476
-1.52903
1.51947
-0.139921
0.149478
-1.50779
1.49399
-0.201324
0.215127
-1.47806
1.46001
-0.261902
0.279955
-1.43983
1.41753
-0.321404
0.343706
-1.39311
1.36657
-0.379513
0.406046
-1.33793
1.3072
-0.435887
0.466616
-1.2744
1.23953
-0.490177
0.525042
-1.20263
1.16372
-0.542038
0.580948
-1.12284
1.08001
-0.591098
0.633925
-1.03529
0.988717
-0.636972
0.683542
-0.940357
0.890274
-0.679286
0.72937
-0.838543
0.785255
-0.717688
0.770976
-0.730511
0.674426
-0.751964
0.808049
-0.617122
0.558723
-0.782126
0.840525
-0.499345
0.43909
-0.808101
0.868357
-0.378036
0.316233
-0.828956
0.890759
-0.253668
0.19022
-0.842453
0.905901
-0.125297
0.062577
-0.848422
0.911141
-0.0186979
0.0196383
1.48963
-1.48687
1.48202
-0.0884286
0.0932814
-1.47522
1.46647
-0.158809
0.167557
-1.45576
1.44309
-0.228623
0.241293
-1.42845
1.41182
-0.297634
0.314265
-1.39319
1.37256
-0.365588
0.386223
-1.3499
1.32523
-0.432142
0.456815
-1.29853
1.2698
-0.496914
0.525646
-1.23903
1.20625
-0.559509
0.592298
-1.17144
1.13462
-0.619519
0.656333
-1.09582
1.05505
-0.676499
0.717266
-1.01235
0.96775
-0.729967
0.774568
-0.921295
0.87304
-0.779436
0.827691
-0.823049
0.771397
-0.824396
0.876048
-0.718176
0.663493
-0.864435
0.919119
-0.607469
0.550239
-0.899403
0.956632
-0.491941
0.432708
-0.929248
0.988481
-0.372659
0.311881
-0.953234
1.01401
-0.250399
0.188105
-0.969262
1.03156
-0.123966
0.0635559
-0.977059
1.03747
-0.0205086
0.021338
1.43633
-1.43368
1.42934
-0.0979697
0.102309
-1.42326
1.41541
-0.176018
0.183861
-1.4058
1.3944
-0.253569
0.264971
-1.38119
1.36615
-0.330414
0.345454
-1.34925
1.33048
-0.406316
0.425091
-1.3098
1.28719
-0.480918
0.503525
-1.26264
1.23611
-0.553813
0.580338
-1.2076
1.17708
-0.62456
0.655075
-1.14455
1.11001
-0.692695
0.727242
-1.07344
1.03486
-0.757689
0.79627
-0.99428
0.951719
-0.818962
0.861523
-0.907209
0.860787
-0.875901
0.922323
-0.812504
0.762423
-0.927841
0.977922
-0.710623
0.657202
-0.974153
1.02757
-0.602277
0.545988
-1.01445
1.07074
-0.488491
0.429951
-1.04856
1.1071
-0.370533
0.310388
-1.07588
1.13602
-0.249612
0.188183
-1.09455
1.15598
-0.124555
0.066493
-1.10438
1.16244
-0.0220933
0.0227992
1.38508
-1.38277
1.379
-0.106446
0.110215
-1.37371
1.36687
-0.191348
0.198183
-1.35847
1.34849
-0.275882
0.285871
-1.33688
1.32361
-0.359894
0.373161
-1.30864
1.29194
-0.443186
0.459888
-1.27346
1.25316
-0.525408
0.545712
-1.23099
1.20692
-0.606139
0.630212
-1.1809
1.1529
-0.684907
0.712907
-1.12288
1.09082
-0.761193
0.793254
-1.05669
1.02048
-0.834386
0.870602
-0.982164
0.941757
-0.903792
0.944199
-0.899263
0.854704
-0.968661
1.01322
-0.808111
0.759532
-1.02816
1.07674
-0.70903
0.656691
-1.08142
1.13376
-0.602627
0.546977
-1.12776
1.18341
-0.489913
0.431632
-1.16678
1.22506
-0.372349
0.3123
-1.19789
1.25794
-0.25169
0.190669
-1.21955
1.28057
-0.126853
0.0709257
-1.2314
1.28732
-0.0234271
0.0239973
1.33551
-1.33357
1.33043
-0.113739
0.116877
-1.32602
1.3203
-0.204589
0.210307
-1.31325
1.30483
-0.295265
0.303684
-1.295
1.28371
-0.385694
0.396988
-1.2709
1.25651
-0.47575
0.490135
-1.24049
1.22277
-0.565113
0.582833
-1.20329
1.18197
-0.653367
0.67468
-1.15877
1.1336
-0.740027
0.765193
-1.10641
1.07715
-0.824529
0.853793
-1.04575
1.01218
-0.906184
0.939757
-0.976391
0.938355
-0.98418
1.02222
-0.898054
0.855482
-1.05761
1.10019
-0.810646
0.763571
-1.12545
1.17253
-0.714301
0.662903
-1.18658
1.23797
-0.609476
0.554157
-1.23994
1.29526
-0.497124
0.438603
-1.28479
1.34331
-0.378863
0.318228
-1.3204
1.38104
-0.257032
0.195699
-1.34551
1.40684
-0.130351
0.0768716
-1.35985
1.41333
-0.0244864
0.0249104
1.28781
-1.28609
1.28364
-0.119729
0.12218
-1.28018
1.27568
-0.215523
0.220023
-1.2701
1.2634
-0.311402
0.318102
-1.25553
1.24641
-0.407406
0.416522
-1.23598
1.22417
-0.503508
0.515319
-1.2109
1.19607
-0.599449
0.614277
-1.1796
1.1614
-0.694851
0.713049
-1.14138
1.11944
-0.789237
0.811179
-1.09548
1.06942
-0.882027
0.908088
-1.04117
1.01063
-0.972466
1.003
-0.977734
0.942412
-1.05963
1.09495
-0.904605
0.86427
-1.14245
1.18279
-0.821376
0.775912
-1.21968
1.26514
-0.72789
0.67735
-1.28989
1.34043
-0.624368
0.569066
-1.35163
1.40693
-0.511626
0.452295
-1.40361
1.46294
-0.391393
0.329342
-1.44483
1.50688
-0.266623
0.204019
-1.47417
1.53677
-0.134993
0.084515
-1.49211
1.54258
-0.0252517
0.0255216
1.24196
-1.24068
1.23897
-0.124308
0.126026
-1.23653
1.23333
-0.223953
0.22715
-1.22933
1.22448
-0.323999
0.328847
-1.21872
1.21197
-0.424626
0.431378
-1.20415
1.19516
-0.525943
0.534931
-1.18491
1.17329
-0.627787
0.639403
-1.1602
1.1455
-0.729852
0.744545
-1.12909
1.11083
-0.831717
0.849978
-1.09059
1.06824
-0.932816
0.955168
-1.04364
1.01667
-1.03237
1.05934
-0.987196
0.955097
-1.12937
1.16147
-0.920262
0.882592
-1.22259
1.26026
-0.842001
0.798424
-1.31054
1.35412
-0.751818
0.702176
-1.39148
1.44112
-0.649532
0.593978
-1.46342
1.51898
-0.535684
0.474917
-1.52442
1.58519
-0.412065
0.347691
-1.57291
1.63728
-0.28252
0.217868
-1.60774
1.67239
-0.143696
0.0963862
-1.63017
1.67748
-0.0257091
0.025821
1.19743
-1.19679
1.19583
-0.127391
0.128347
-1.19445
1.19262
-0.229718
0.231551
-1.19028
1.18739
-0.332801
0.335696
-1.18387
1.17963
-0.436988
0.441219
-1.1746
1.16867
-0.542557
0.548493
-1.16172
1.15363
-0.649478
0.657567
-1.14427
1.1335
-0.757567
0.768337
-1.12116
1.10711
-0.866507
0.880563
-1.09116
1.07315
-0.975813
0.993826
-1.05289
1.03019
-1.08474
1.10744
-1.00488
0.976758
-1.19225
1.22038
-0.945645
0.911365
-1.29702
1.3313
-0.87375
0.83265
-1.39735
1.43845
-0.787938
0.739519
-1.49114
1.53956
-0.687349
0.631449
-1.57582
1.63172
-0.571942
0.509092
-1.64855
1.7114
-0.443347
0.37547
-1.7069
1.77478
-0.306566
0.238813
-1.74961
1.81736
-0.158486
0.114998
-1.77829
1.82178
-0.0258534
0.0258086
1.15474
-1.15456
1.15438
-0.128928
0.129114
-1.15408
1.15363
-0.232713
0.23316
-1.15299
1.1521
-0.337627
0.338517
-1.15089
1.14928
-0.444203
0.445813
-1.14717
1.14446
-0.552913
0.555625
-1.14102
1.13673
-0.663902
0.668194
-1.13144
1.12499
-0.777155
0.783607
-1.11721
1.1079
-0.892529
0.901832
-1.09688
1.08392
-1.00969
1.02266
-1.06879
1.05126
-1.12805
1.14558
-1.03106
1.00794
-1.24662
1.26974
-0.981618
0.951823
-1.3641
1.39389
-0.918274
0.880697
-1.47869
1.51627
-0.838831
0.79244
-1.58799
1.63438
-0.741331
0.685382
-1.6888
1.74475
-0.62459
0.55913
-1.77716
1.84262
-0.489444
0.416459
-1.8492
1.92218
-0.341728
0.268513
-1.90295
1.97616
-0.179317
0.13895
-1.94031
1.98067
-0.0256896
0.0254945
1.11353
-1.11362
1.11419
-0.128916
0.128348
-1.11495
1.11587
-0.232914
0.231995
-1.1169
1.11801
-0.338403
0.337299
-1.11912
1.12015
-0.446105
0.445072
-1.12102
1.12162
-0.556706
0.556107
-1.12183
1.12152
-0.670551
0.670857
-1.12055
1.11875
-0.787846
0.789647
-1.11594
1.1119
-0.908684
0.912715
-1.10644
1.09928
-1.03299
1.04015
-1.09017
1.07882
-1.16043
1.17178
-1.06491
1.0481
-1.29027
1.30708
-1.02801
1.00426
-1.4214
1.44514
-0.976436
0.944092
-1.55215
1.58449
-0.906777
0.864035
-1.68006
1.7228
-0.815427
0.760565
-1.80145
1.85631
-0.699171
0.631169
-1.91109
1.97909
-0.556836
0.477143
-2.00301
2.08271
-0.394091
0.312249
-2.07349
2.15533
-0.21106
0.173997
-2.12512
2.16218
-0.0252331
0.0248994
1.0738
-1.0745
1.07578
-0.1274
0.126121
-1.07754
1.07976
-0.230387
0.22817
-1.0824
1.08541
-0.335185
0.332166
-1.08876
1.09237
-0.442694
0.439085
-1.09616
1.10005
-0.553813
0.549928
-1.10392
1.10766
-0.669106
0.665365
-1.11113
1.11418
-0.789027
0.785978
-1.11663
1.11828
-0.91397
0.912322
-1.1189
1.11824
-1.04421
1.04487
-1.11601
1.1119
-1.17979
1.1839
-1.10554
1.09654
-1.32044
1.32944
-1.08444
1.06875
-1.46551
1.48121
-1.04891
1.0243
-1.61388
1.63849
-0.994231
0.95796
-1.7635
1.79978
-0.914677
0.863553
-1.91079
1.96192
-0.803792
0.734753
-2.04959
2.11863
-0.656163
0.568638
-2.17127
2.25879
-0.474311
0.379013
-2.26827
2.36357
-0.261315
0.225442
-2.34367
2.37954
-0.0245095
0.0240536
1.03534
-1.03644
1.03836
-0.12448
0.122557
-1.04103
1.04443
-0.225294
0.221895
-1.04853
1.05332
-0.328169
0.323386
-1.05874
1.06476
-0.434156
0.42814
-1.07131
1.07832
-0.54435
0.537336
-1.08572
1.0934
-0.659522
0.651837
-1.10127
1.10918
-0.780385
0.772476
-1.11698
1.12451
-0.907659
0.900132
-1.13155
1.13788
-1.04202
1.03569
-1.14323
1.14728
-1.18403
1.17999
-1.14967
1.14999
-1.33405
1.33372
-1.14777
1.14244
-1.49221
1.49754
-1.13336
1.11978
-1.6584
1.67199
-1.1008
1.07537
-1.83186
1.85728
-1.04228
1.00011
-2.01032
2.05249
-0.947268
0.882079
-2.18819
2.25338
-0.802999
0.70927
-2.35503
2.44876
-0.60185
0.48685
-2.49718
2.61218
-0.345843
0.30309
-2.61679
2.65955
-0.0235528
0.0229941
0.998352
-0.999973
1.00245
-0.120303
0.117822
-1.00591
1.01034
-0.217887
0.213456
-1.01574
1.02207
-0.317693
0.311355
-1.02934
1.03751
-0.420881
0.412714
-1.04654
1.0564
-0.5287
0.518841
-1.06703
1.07838
-0.642098
0.630748
-1.09037
1.10292
-0.762018
0.749473
-1.11591
1.12922
-0.889489
0.876177
-1.1427
1.15617
-1.0256
1.01214
-1.16941
1.18217
-1.17147
1.15871
-1.19414
1.20497
-1.32816
1.31732
-1.21424
1.22144
-1.49683
1.48964
-1.22593
1.22698
-1.67882
1.67777
-1.22365
1.21475
-1.87554
1.88444
-1.19882
1.17399
-2.08789
2.11272
-1.13789
1.08759
-2.31423
2.36452
-1.0196
0.930145
-2.54706
2.63652
-0.816177
0.679401
-2.76949
2.90627
-0.509451
0.438882
-2.98043
3.051
-0.0224027
0.0217624
0.962825
-0.964541
0.96748
-0.11505
0.112112
-0.97159
0.976872
-0.208487
0.203205
-0.983329
0.990963
-0.304207
0.296574
-0.999773
1.00975
-0.403428
0.393446
-1.0209
1.0332
-0.507502
0.495201
-1.04664
1.0612
-0.61749
0.602931
-1.07685
1.09355
-0.734507
0.717802
-1.11126
1.12992
-0.859825
0.841171
-1.14944
1.16972
-0.994881
0.974599
-1.19064
1.21205
-1.14126
1.11985
-1.23376
1.25555
-1.30071
1.27892
-1.27714
1.29818
-1.47535
1.45431
-1.31826
1.33684
-1.66805
1.64946
-1.35324
1.36655
-1.88282
1.86951
-1.37554
1.37856
-2.12517
2.12216
-1.37327
1.3564
-2.4015
2.41837
-1.3234
1.26793
-2.71715
2.77262
-1.18186
1.05301
-3.07398
3.20282
-0.880949
0.798134
-3.49244
3.57525
0.0864772
-0.185551
0.0989916
-0.160742
0.219925
-0.0591836
-0.264017
0.296206
-0.0322444
-0.322242
0.346724
-0.0242984
-0.373335
0.401474
-0.0279747
-0.435164
0.469449
-0.0336798
-0.499799
0.525296
-0.0254974
-0.520884
0.497404
0.0234796
-0.421465
0.203844
0.21762
0.163524
-0.716356
0.552942
1.3537
-1.78908
0.473783
2.01027
-2.09308
0.0939284
2.11736
-2.11996
0.00128297
2.13241
-2.17073
0.0364673
2.1911
-2.19683
0.00413887
2.26205
-2.32811
-0.00870233
2.36865
-2.40033
0.0138736
2.42525
-2.51726
0.0512082
2.5574
-2.72099
0.108897
2.82107
-2.63016
0.13842
2.50902
-2.38916
0.0273567
2.27455
-2.12131
-0.24278
0.688512
1.38952
-2.07803
-2.78254
3.69111
-0.90857
-4.33205
4.81524
-0.483191
-5.19242
5.49093
-0.298511
-5.72833
5.91702
-0.188687
-6.0665
6.18417
-0.117678
-6.27593
6.3467
-0.0707774
-6.4006
6.44097
-0.0403699
-6.47063
6.4917
-0.0210687
-6.50608
6.51506
-0.0089807
-6.51987
6.52161
-0.00173879
-6.52051
6.51709
0.00341904
-6.51232
6.50627
0.0060427
-6.49911
6.49104
0.00807205
-6.48225
6.47284
0.00940291
-6.46293
6.45253
0.0103921
-6.44179
6.43072
0.0110622
-6.41948
6.4081
0.0113734
-6.39669
6.38531
0.0113731
-6.37395
6.36273
0.0112199
-6.35154
6.34051
0.0110315
-6.32967
6.31892
0.010752
-6.3086
6.29832
0.0102733
-6.28857
6.27896
0.00960942
-6.26971
6.2608
0.00890804
-6.25208
6.24374
0.00833481
-6.2356
6.22764
0.00796214
-6.22003
6.2123
0.00772436
-6.20504
6.19759
0.00744795
-6.19018
6.15263
0.00755699
-6.14432
6.1363
0.00802732
-6.14559
6.14928
0.00822451
-6.14117
6.13324
0.00792557
-6.12651
6.12142
0.00509336
-6.11897
6.11844
0.000533266
-5.16093
5.14916
0.0117734
-5.13385
5.49451
0.0166515
-6.04932
6.0403
0.00902007
0.279611
-0.362754
0.0831429
-0.147294
0.187158
0.104311
-0.144175
-0.219806
0.254118
0.0655548
-0.10012
-0.286837
0.317959
0.0521925
-0.0828851
-0.348365
0.378066
0.0573119
-0.0870139
-0.406278
0.434945
0.0642934
-0.0929609
-0.463231
0.480474
0.0450522
-0.064123
-0.487584
0.48373
-0.039261
0.0435404
-0.452155
0.381544
-0.345184
0.394389
-0.269723
0.156546
-0.827191
0.930494
0.00817055
-0.176312
-0.823094
1.07506
0.0128212
2.76962e-21
-0.0340154
0.0211942
3.86364e-21
-5.27392e-21
6.51254e-05
-6.51254e-05
8.66912e-21
-1.37242e-20
0
6.53871e-21
-6.45529e-21
-1.45078e-21
0
9.63924e-21
-4.21808e-22
-9.98497e-22
4.83275e-10
-4.83275e-10
-2.86156e-21
5.17035e-20
5.24852e-12
-5.24852e-12
-5.12741e-21
-1.21247e-19
2.53478e-14
-2.53408e-14
2.20331e-21
-2.70614e-20
0
8.65983e-21
-2.27328e-20
-6.11122e-21
0
-5.43288e-22
2.93072e-21
1.82024e-19
-1.49925e-19
-3.54147e-20
2.55528e-18
0.0255109
0.0419175
-0.0674284
-1.41582
2.29537
3.43459
-4.31414
-3.10223
3.81574
1.73147
-2.44498
-4.40831
4.8909
0.975659
-1.45825
-5.28355
5.6036
0.611341
-0.931392
-5.86393
6.0744
0.391174
-0.601652
-6.24331
6.37755
0.246084
-0.380327
-6.483
6.56504
0.149288
-0.231327
-6.62806
6.67574
0.0860965
-0.133775
-6.71125
6.7371
0.045841
-0.071692
-6.75527
6.76743
0.0205806
-0.032746
-6.77482
6.77858
0.00480911
-0.00857064
-6.78013
6.77887
-0.00480025
0.00605851
-6.77603
6.77186
-0.0107354
0.0149096
-6.76665
6.76061
-0.0147602
0.0208002
-6.75389
6.74663
-0.017475
0.0247352
-6.73891
6.73082
-0.0194033
0.0274964
-6.72241
6.71376
-0.02072
0.0293737
-6.70492
6.69598
-0.0213556
0.0302902
-6.68702
6.67809
-0.0213645
0.0302873
-6.66928
6.66055
-0.0210477
0.0297801
-6.65195
6.64347
-0.0206338
0.0291147
-6.63512
6.62699
-0.0199848
0.0281164
-6.61901
6.61134
-0.0190024
0.0266781
-6.60386
6.59666
-0.0178044
0.0250004
-6.5897
6.58297
-0.0165971
0.0233268
-6.57649
6.57018
-0.0155585
0.0218707
-6.56407
6.55809
-0.0147731
0.020749
-6.55216
6.54634
-0.0142496
0.0200698
-6.54034
6.53425
-0.0140879
0.0201778
-6.52791
6.52126
-0.0146945
0.0213371
-6.51448
6.50728
-0.0156817
0.0228845
-6.49999
6.49242
-0.0161271
0.0236929
-6.48489
6.4776
-0.015087
0.0223798
-6.47011
6.46183
-0.0112852
0.0194829
-6.4522
6.44106
-0.0116825
0.0229085
-6.43002
6.41971
-0.0242443
0.0345559
-6.41085
6.4028
-0.0268908
0.0349365
-6.39517
6.38794
-0.0175045
0.0247321
0.436924
-0.482288
0.0578207
-0.122947
0.159829
0.181932
-0.218814
-0.19277
0.22474
0.132656
-0.164626
-0.254519
0.269861
0.113712
-0.129057
-0.282651
0.302141
0.115465
-0.135404
-0.330663
0.359809
0.110378
-0.129082
-0.383811
0.421958
0.0825009
-0.110203
-0.46661
0.49
-0.0353526
0.0239437
-0.492281
0.480893
-0.428264
0.443658
-0.466823
0.452594
-0.984461
1.01081
-0.473799
0.456733
-1.17134
1.19026
-0.346744
0.220555
-0.270479
0.443757
-0.0569295
0.022665
-0.00196904
-0.00067699
-0.0807079
0.16039
0
-0.177052
-0.0453281
0.00194487
-9.62289e-21
0.0230918
7.63411e-08
-1.54568e-11
-7.63257e-08
-1.0714e-21
1.07857e-10
1.16091e-12
-6.57467e-11
1.42441e-10
2.92287e-16
-1.29407e-15
-1.52236e-13
1.53842e-13
2.61287e-16
2.12175e-17
3.82864e-25
4.87841e-17
4.97939e-10
-9.0454e-12
-3.65214e-15
-3.83534e-10
-3.88528e-20
-4.95319e-20
-4.18324e-20
2.95337e-19
-0.0914276
2.5548
1.03042
-3.64678
-2.97157
3.29957
4.84227
-5.17028
-3.73032
4.19825
3.02128
-3.48921
-4.65062
5.06038
1.90434
-2.3141
-5.41755
5.72036
1.24347
-1.54627
-5.97187
6.17752
0.810246
-1.01589
-6.3426
6.47315
0.513404
-0.643956
-6.57496
6.65314
0.312083
-0.39027
-6.71238
6.75664
0.180197
-0.224457
-6.78908
6.81242
0.0965438
-0.119882
-6.82871
6.83958
0.0443716
-0.055239
-6.84633
6.84994
0.0124052
-0.0160086
-6.85116
6.85068
-0.00689312
0.00736893
-6.84887
6.84606
-0.0185203
0.0213366
-6.84247
6.83828
-0.0260197
0.0302091
-6.83363
6.82862
-0.0309756
0.0359893
-6.82329
6.81771
-0.0344071
0.039985
-6.81191
6.80588
-0.0367582
0.0427877
-6.79969
6.7934
-0.0379431
0.0442349
-6.78707
6.78079
-0.0379001
0.0441761
-6.77462
6.76854
-0.0371755
0.0432569
-6.76257
6.75666
-0.0363055
0.0422138
-6.75083
6.74514
-0.0350106
0.0406977
-6.73959
6.73424
-0.0331486
0.0384935
-6.72908
6.7241
-0.0310541
0.0360329
-6.71929
6.71463
-0.0289877
0.0336443
-6.71014
6.70573
-0.0271751
0.0315791
-6.7014
6.6971
-0.0258357
0.0301356
-6.69274
6.68833
-0.0251468
0.0295573
-6.68371
6.67884
-0.0256028
0.0304737
-6.67363
6.66802
-0.0274005
0.0330154
-6.66206
6.65565
-0.0296099
0.0360162
-6.64889
6.64167
-0.030958
0.0381714
-6.63406
6.62615
-0.0299432
0.0378477
-6.61781
6.60893
-0.0281454
0.0370288
-6.59914
6.58839
-0.0338178
0.0445682
-6.57747
6.56715
-0.0446907
0.055015
-6.55817
6.55077
-0.0425403
0.0499343
-6.54469
6.53965
-0.03069
0.0357284
0.540828
-0.571942
0.031114
-0.0699239
0.101043
0.241322
-0.252568
-0.135173
0.161057
0.169346
-0.189942
-0.191081
0.240907
0.147001
-0.199969
-0.27905
0.314606
0.170933
-0.206489
-0.343336
0.370484
0.174083
-0.201231
-0.396363
0.422702
0.139713
-0.166048
-0.449647
0.475168
-0.00360241
-0.021918
-0.501919
0.537469
-0.426669
0.390074
-0.564293
0.566015
-1.02128
1.01874
-0.57913
0.603825
-1.17362
1.14788
-0.55555
0.438654
-0.570113
0.68746
-0.31939
0.242317
-0.0120649
0.0872977
-0.205391
0.210898
0.37553
-0.385282
-0.017641
0
-0.0475298
0.0019492
1.27196e-22
-2.06179e-23
7.1985e-21
0
5.38568e-10
-1.75302e-09
-4.0319e-09
-1.95407e-08
-4.72016e-10
-7.73795e-08
-1.08868e-09
8.13611e-08
1.13601e-05
-7.94218e-06
-6.22997e-07
6.98303e-07
0
-4.93466e-25
0
-2.44008e-24
1.36965e-19
0.311946
-5.97935e-19
-0.311946
-3.47679
3.8136
6.2377
-6.5745
-3.85534
4.0205
5.38581
-5.55097
-4.28494
4.61121
3.86879
-4.19507
-4.95848
5.29775
2.68207
-3.02134
-5.60768
5.87851
1.83107
-2.10191
-6.10564
6.29062
1.21076
-1.39574
-6.4375
6.55196
0.766552
-0.881015
-6.63937
6.70554
0.462442
-0.528609
-6.75479
6.7914
0.264614
-0.301228
-6.81833
6.83805
0.140973
-0.1607
-6.85234
6.86261
0.0653144
-0.0755837
-6.86985
6.87487
0.0198431
-0.0248545
-6.87822
6.88036
-0.00693992
0.00480011
-6.88161
6.88214
-0.0228065
0.022273
-6.88207
6.8815
-0.0328224
0.0333873
-6.88055
6.87925
-0.0393084
0.0406016
-6.87768
6.87582
-0.0438149
0.0456758
-6.87368
6.87124
-0.0470813
0.0495179
-6.86855
6.86562
-0.0488693
0.0517978
-6.86257
6.85945
-0.0488639
0.0519788
-6.85639
6.85337
-0.0477854
0.0508111
-6.85035
6.84728
-0.0466669
0.0497387
-6.84417
6.84107
-0.0450412
0.0481424
-6.83803
6.83509
-0.0425754
0.0455146
-6.83226
6.82949
-0.0398436
0.0426087
-6.8268
6.82415
-0.037232
0.0398875
-6.82155
6.81894
-0.0350136
0.0376224
-6.81627
6.81349
-0.0336075
0.0363958
-6.81054
6.8074
-0.0332604
0.0364016
-6.80398
6.8002
-0.034723
0.0385033
-6.79597
6.79119
-0.0381373
0.0429102
-6.7859
6.78005
-0.0420524
0.0478988
-6.77366
6.76655
-0.0452455
0.0523581
-6.75868
6.75025
-0.0459286
0.0543558
-6.74159
6.73288
-0.0457937
0.0545031
-6.72378
6.71381
-0.054869
0.0648416
-6.70312
6.69245
-0.0654109
0.0760787
-6.68306
6.676
-0.057071
0.0641398
-6.67104
6.6675
-0.0399137
0.0434471
0.594952
-0.606619
0.0116666
-0.0558226
0.0908691
0.306385
-0.363923
-0.123193
0.158526
0.258058
-0.293392
-0.191016
0.221674
0.239591
-0.270249
-0.251032
0.277809
0.234473
-0.260057
-0.304446
0.331195
0.22749
-0.253052
-0.356923
0.383487
0.192312
-0.21895
-0.412018
0.442647
0.0504064
-0.0810361
-0.478333
0.528892
-0.343209
0.292651
-0.512555
0.498596
-1.00244
0.63642
-0.582719
0.648548
-1.12435
0.98515
-0.646351
0.583872
-0.779048
0.841527
-0.469025
0.332528
-0.197799
0.280351
-0.220774
0.128393
0.365591
-0.313235
0
2.44907e-21
-9.46657e-22
1.37271e-21
-5.76149e-22
3.75422e-06
-0.00014429
0.00011082
1.52208e-07
-6.25711e-14
-1.98411e-07
2.08258e-20
-2.21418e-09
-2.16778e-06
-2.46258e-06
8.4647e-06
1.91743e-06
1.84998e-05
2.87333e-05
-4.25386e-05
-3.57024e-18
3.58227e-18
4.42167e-23
-1.15738e-20
-0.5549
4.05482
2.04586
-5.43648
-4.28145
4.281
6.55254
-6.5521
-4.33369
4.46514
5.68992
-5.82138
-4.67346
4.9362
4.47922
-4.74197
-5.22622
5.51655
3.33097
-3.6213
-5.78505
6.01934
2.35261
-2.5869
-6.21282
6.36654
1.56455
-1.71827
-6.48618
6.5779
0.983362
-1.07509
-6.64752
6.7011
0.587233
-0.640812
-6.74243
6.77504
0.334414
-0.367022
-6.80127
6.82282
0.18002
-0.20157
-6.84074
6.85589
0.0872474
-0.102405
-6.86881
6.87994
0.0321621
-0.0432869
-6.88957
6.89802
-2.60172e-05
-0.00842313
-6.90548
6.91207
-0.0190373
0.0124462
-6.91774
6.92265
-0.0313896
0.0264809
-6.92685
6.93046
-0.0395164
0.0359089
-6.93353
6.93612
-0.0453229
0.042736
-6.93819
6.93975
-0.049926
0.0483631
-6.9408
6.94139
-0.0529089
0.0523174
-6.94159
6.94153
-0.0534581
0.0535095
-6.94141
6.94125
-0.0523074
0.0524613
-6.94096
6.94046
-0.0514227
0.05192
-6.93976
6.9389
-0.050019
0.0508812
-6.93797
6.93704
-0.047344
0.0482765
-6.93612
6.93515
-0.0443711
0.0453373
-6.93412
6.933
-0.0416669
0.0427794
-6.93184
6.93058
-0.03946
0.0407257
-6.92913
6.92741
-0.0385531
0.040277
-6.9254
6.92309
-0.0390244
0.04133
-6.92046
6.91739
-0.0418319
0.0449026
-6.91377
6.90949
-0.0473461
0.0516302
-6.90452
6.89896
-0.0535079
0.0590648
-6.89278
6.8857
-0.0593864
0.0664652
-6.87749
6.86841
-0.0630016
0.0720756
-6.85925
6.85085
-0.0629558
0.0713501
-6.84279
6.83397
-0.0741998
0.083024
-6.82379
6.81277
-0.086832
0.097852
-6.80273
6.79588
-0.0710227
0.077867
-6.79203
6.78965
-0.046342
0.0487251
0.607834
-0.5963
-0.0115334
-0.0197878
0.0444138
0.395402
-0.388008
-0.0718771
0.102306
0.327418
-0.314532
-0.134108
0.177408
0.289046
-0.299774
-0.211813
0.239908
0.283989
-0.316598
-0.265244
0.288878
0.278126
-0.30176
-0.312429
0.337413
0.244794
-0.269778
-0.365748
0.398172
0.112537
-0.144961
-0.436542
0.487783
-0.240972
0.189731
-0.460483
0.43858
-0.585773
0.607986
-0.460659
0.644678
-0.909826
0.978028
-0.66557
0.64411
-0.874986
0.896445
-0.360992
0.213245
-0.317604
0.35132
-0.183357
0.00512553
0.162566
-0.0227701
5.56342e-08
5.7837e-07
4.90428e-08
6.28252e-07
9.26265e-06
3.83604e-07
-0.000106664
1.75043e-05
-1.11414e-23
1.21716e-22
-1.80736e-21
2.00499e-19
-0.00017481
3.9334e-05
-8.15354e-06
0.000427623
-0.000260588
4.00717e-05
4.53819e-05
-4.95724e-06
-4.00717e-05
0.937627
0.0659285
-0.858361
-4.32787
4.44217
6.75445
-6.86875
-4.48316
4.53781
6.58049
-6.63515
-4.626
4.76399
5.95335
-6.09133
-4.95375
5.18388
4.98451
-5.21464
-5.43334
5.68018
3.88739
-4.13424
-5.90322
6.09064
2.79724
-2.98466
-6.23951
6.3534
1.8515
-1.96539
-6.44438
6.51786
1.15534
-1.22882
-6.57987
6.63425
0.6913
-0.745674
-6.68197
6.72516
0.401972
-0.445162
-6.76402
6.79879
0.227856
-0.262624
-6.82965
6.85569
0.122769
-0.149044
-6.87684
6.89442
0.0592542
-0.0777447
-6.90945
6.92294
0.0209999
-0.0355509
-6.93571
6.9475
-0.0023217
-0.010205
-6.95905
6.97126
-0.0187366
0.00671938
-6.98378
6.99722
-0.0299925
0.0177086
-7.01229
7.02008
-0.038186
0.0303981
-7.02543
7.03001
-0.0451016
0.0405207
-7.03387
7.03704
-0.0502752
0.0471027
-7.03956
7.04153
-0.0523758
0.0504001
-7.04326
7.0449
-0.0515457
0.0499038
-7.04633
7.04747
-0.0514386
0.0502948
-7.04829
7.04881
-0.0509145
0.050391
-7.04913
7.04936
-0.0485039
0.0482712
-7.04952
7.04956
-0.0456742
0.0456352
-7.04942
7.04908
-0.0433863
0.0437288
-7.04859
7.04795
-0.0415627
0.042204
-7.04707
7.04576
-0.0416853
0.0429888
-7.04404
7.04193
-0.0434236
0.0455278
-7.03944
7.03652
-0.0477844
0.0507023
-7.03305
7.02889
-0.0557807
0.0599421
-7.02393
7.01829
-0.0645691
0.0702097
-7.0122
7.00523
-0.0734599
0.0804273
-6.99689
6.98708
-0.0814695
0.0912837
-6.97681
6.9682
-0.0796732
0.0882866
-6.96113
6.9537
-0.0910978
0.0985309
-6.94488
6.93431
-0.108747
0.119324
-6.92376
6.91719
-0.0845807
0.091157
-6.9146
6.91291
-0.0506541
0.0523381
0.552558
-0.434202
-0.0302792
0.0186881
0.00169368
0.365119
-0.392003
-0.031416
0.0648636
0.351905
-0.432676
-0.103122
0.135703
0.367543
-0.400123
-0.166653
0.195209
0.343982
-0.370193
-0.219096
0.242894
0.324347
-0.334619
-0.265012
0.286126
0.293025
-0.309255
-0.309329
0.340118
0.176629
-0.20635
-0.376142
0.421996
-0.139888
0.0899468
-0.495969
0.570766
-0.724647
0.677976
-0.625298
0.642011
-1.09945
1.08556
-0.614783
0.580045
-0.922762
0.954939
-0.538096
0.325697
-0.58744
0.755753
-0.000243316
-2.68398e-24
0.000243316
2.40057e-20
1.45642e-07
-6.1515e-08
-9.66049e-07
5.66018e-07
0.000417868
-0.00188178
-0.000561141
0.0104685
-0.000129822
-0.000730846
-0.0399295
0.0280328
-0.000351034
6.87756e-05
-0.000157331
0.00102159
-0.00115566
0.00115566
-5.29729e-21
-4.51031e-18
-1.59781
4.4061
4.10638
-6.77384
-4.4638
4.53212
6.91997
-6.98829
-4.61383
4.71031
6.71208
-6.80856
-4.82858
4.97749
6.2327
-6.38162
-5.15477
5.3559
5.42932
-5.63045
-5.56257
5.75316
4.35371
-4.5443
-5.90992
5.99007
3.14006
-3.2202
-5.456
3.89708
2.05676
-0.487693
-2.27591
1.20974
1.0677
1.35138e-19
-0.582033
0.216816
0.353907
5.40424e-20
-0.0337925
-1.74256e-20
0.0337925
2.23599e-20
7.01027e-20
-6.21233e-20
0
1.02625e-20
1.00144e-19
-1.40353e-19
0
6.7586e-21
1.71153e-19
-1.90073e-19
0
4.1285e-21
1.97837e-19
-1.96092e-19
0
2.25327e-21
1.87461e-19
-1.75185e-19
0
1.13343e-21
8.03247e-20
-2.82723e-05
2.82723e-05
4.14548e-22
-0.000356699
0.00129923
-0.000520279
1.44949e-19
-0.00278172
0.00477052
-0.00113338
0
-0.00706805
0.00947233
-0.00176742
0
-0.0119519
0.014609
-0.00224621
0
-0.0176847
0.0215701
-0.00264492
0
-0.0262988
0.0302549
-0.00373826
0
-0.0317775
0.0322146
-0.00410495
0
-0.0325448
0.0331407
-0.00386169
0
-0.0341307
0.0345311
-0.00382408
0
-0.0346769
0.0341458
-0.00379501
5.42101e-20
-0.0328361
0.0312919
-0.00341683
0
-0.0300086
0.0286627
-0.00329339
0
-0.0267263
0.025091
-0.00311816
0
-0.0250602
0.0254658
-0.00308586
0
-0.0266643
0.0286344
-0.00375335
2.71051e-20
-0.0311581
0.0346911
-0.00459876
0