/*--------------------------------*- C++ -*----------------------------------*\
| =========                 |                                                 |
| \\      /  F ield         | OpenFOAM: The Open Source CFD Toolbox           |
|  \\    /   O peration     | Version:  v1912                                 |
|   \\  /    A nd           | Website:  www.openfoam.com                      |
|    \\/     M anipulation  |                                                 |
\*---------------------------------------------------------------------------*/
FoamFile
{
    version     2.0;
    format      ascii;
    class       volScalarField;
    location    "32";
    object      alpha.water;
}
// * * * * * * * * * * * * * * * * * * * * * * * * * * * * * * * * * * * * * //

dimensions      [0 0 0 0 0 0 0];


internalField   nonuniform List<scalar> 
20320
(
1
1
1
1
1
1
1
1
1
1
1
1
1
1
1
1
1
1
1
1
1
1
1
1
1
1
1
1
1
1
1
1
1
1
1
1
1
1
1
1
1
1
1
1
1
1
1
1
1
1
1
1
1
1
1
1
1
1
1
1
1
1
1
1
1
1
1
1
1
1
1
1
1
1
1
1
1
1
1
1
1
1
1
1
1
1
1
1
1
1
1
1
1
1
1
1
1
1
1
1
1
1
1
1
1
1
1
1
1
1
1
1
1
1
1
1
1
1
1
1
1
1
1
1
1
1
1
1
1
1
1
1
1
1
1
1
1
1
1
1
1
1
1
1
1
1
1
1
1
1
1
1
1
1
1
1
1
1
1
1
1
1
1
1
1
1
1
1
1
1
1
1
1
1
1
1
1
1
1
1
1
1
1
1
1
1
1
1
1
1
1
1
1
1
1
1
1
1
1
1
1
1
1
1
1
1
1
1
1
1
1
1
1
1
1
1
1
1
1
1
1
1
1
1
1
1
1
1
1
1
1
1
1
1
1
1
1
1
1
1
1
1
1
1
1
1
1
1
1
1
1
1
1
1
1
1
1
1
1
1
1
1
1
1
1
1
1
1
1
1
1
1
1
1
1
1
1
1
1
1
1
1
1
1
1
1
1
1
1
1
1
1
1
1
1
1
1
1
1
1
1
1
1
1
1
1
1
1
1
1
1
1
1
1
1
1
1
1
1
1
1
1
1
1
1
1
1
1
1
1
1
1
1
1
1
1
1
1
1
1
1
1
1
1
1
1
1
1
1
1
1
1
1
1
1
1
1
1
1
1
1
1
1
1
1
1
1
1
1
1
1
1
1
1
1
1
1
1
1
1
1
1
1
1
1
1
1
1
1
1
1
1
1
1
1
1
1
1
1
1
0.99951
0.999559
0.999458
0.998449
0.997489
0.997813
0.999986
0.999986
0.999986
0.999996
0.942149
0.849699
0.823177
0.824728
0.812318
0.874907
0.920371
0.924117
0.924276
0.791023
0.588855
0.648044
1
1
1
1
1
1
1
1
1
1
1
1
1
1
1
1
1
1
1
1
1
1
1
1
1
1
1
1
1
0.996321
0.995039
0.999479
1
1
1
0.844331
0.84444
1
1
1
0.984919
0.989237
0.999986
0.999986
0.998441
0.985055
0.987736
0.986407
0.977928
3.35255e-20
1.20398e-20
1.56056e-20
1.25807e-20
1.17098e-28
-2.06061e-21
-2.36453e-20
2.87739e-20
-7.3179e-22
5.78816e-24
6.70509e-20
1
1
1
1
1
1
1
1
1
1
1
1
1
1
1
1
1
1
1
1
1
1
1
1
1
1
1
1
0.999999
1
1
1
1
0.999988
0.999979
1
1
0.999999
0.953565
1
1
0.978073
0.919709
0.894363
0.894363
0.990861
0.949105
0.995233
0.997628
0.944168
0.0534046
0.203243
0.0139448
2.97715e-22
7.81539e-11
1.01674e-16
3.42279e-17
1.42112e-10
-2.32545e-20
0.527101
1
1
1
1
1
1
1
1
1
1
1
1
1
1
1
1
1
1
1
1
1
1
1
1
1
1
1
1
1
1
1
1
1
1
1
1
1
1
1
0.862927
0.852556
0.873908
1
1
0.999993
0.999997
0.99974
0.999698
0.999681
0.998161
0.993413
0.999178
0.0288288
-1.2537e-22
3.73478e-09
2.9817e-10
6.99328e-06
-7.9756e-25
-1.34287e-19
1
1
1
1
1
1
1
1
1
1
1
1
1
1
1
1
1
1
1
1
1
1
1
1
1
1
1
1
1
1
1
1
1
1
1
1
1
1
1
1
0.999108
1
1
0.997898
0.997962
0.999894
0.999999
1
0.842282
0.983656
1
0.993984
0.954785
1.25796e-20
3.48673e-05
4.17712e-10
1.81393e-06
4.83282e-05
4.82048e-24
0.692301
1
1
1
1
1
1
1
1
1
1
1
1
1
1
1
1
1
1
1
1
1
1
1
1
1
1
1
1
1
1
1
1
1
1
1
1
1
1
1
1
0.977905
0.919593
0.917655
0.993229
1
1
1
1
0.681943
0.786396
1
0.591597
0.252256
3.75254e-07
1.00544e-05
2.15745e-23
0.000164956
1.49143e-05
0.0107079
1
1
1
1
1
1
1
1
1
1
1
0.999894
0.99915
0.998189
0.997604
0.997632
0.998422
1
1
1
1
1
1
1
1
1
1
1
1
1
1
1
1
1
1
1
1
1
1
1
0.870822
0.816427
0.941952
1
0.99958
0.994076
0.999033
0.999611
0.987598
0.980439
0.999448
0.997236
0.954706
-1.3545e-20
1.52861e-07
0.00219308
0.0266492
3.17123e-05
5.70418e-22
0.866522
1
1
1
1
1
1
0.815194
0.371835
0.0993549
-2.78752e-21
-9.25624e-21
-2.00166e-20
-2.71196e-20
-2.7952e-20
-2.49286e-20
-1.34311e-24
0.000156784
0.000650711
0.00140634
0.00222934
0.00325855
0.00470993
0.00525328
0.00533863
0.00555046
0.00549038
0.00507652
0.0046247
0.00399533
0.00389118
0.00422716
0.00495884
0.00691383
0.0121152
0.0202228
0.05747
0.108149
0.0922851
0.210969
0.4887
0.81454
0.992581
1
0.967481
0.840155
0.840155
0.85494
1
0.999944
0.983505
0.968618
1
0.990813
4.97451e-20
0.0944885
0.00759002
0.00765991
0.00546899
0.158263
1
1
1
1
1
0.878862
2.56431e-18
-2.21549e-20
-2.9466e-20
-3.48707e-20
-2.893e-20
-2.44081e-20
-2.26338e-20
-2.09284e-20
-1.9442e-20
-1.94024e-20
-2.06616e-20
-2.2197e-20
-2.33937e-20
-2.41122e-20
-2.43106e-20
-2.3957e-20
-2.29966e-20
-2.15853e-20
-2.00543e-20
-1.87199e-20
-1.78383e-20
-1.75414e-20
-1.77753e-20
-1.83538e-20
-1.90138e-20
-1.94739e-20
-1.95257e-20
-1.89909e-20
-1.77429e-20
-1.58696e-20
-1.33576e-20
-9.74232e-21
-4.76288e-21
-2.04471e-23
6.80976e-23
0.814543
1
1
0.867771
0.997095
0.997204
0.99731
0.912576
0.976066
0.999668
0.993821
1
0.987496
0.00134017
0.367538
0.271144
0.240995
6.90824e-21
0.926958
1
1
1
1
0.870718
1.20167e-18
-1.87276e-20
-1.71997e-20
-1.77306e-20
-1.64597e-20
-1.48651e-20
-1.36839e-20
-1.29715e-20
-1.2664e-20
-1.27644e-20
-1.32001e-20
-1.37424e-20
-1.4107e-20
-1.41258e-20
-1.38208e-20
-1.33243e-20
-1.27754e-20
-1.22606e-20
-1.17989e-20
-1.14074e-20
-1.11022e-20
-1.0891e-20
-1.07712e-20
-1.07308e-20
-1.07511e-20
-1.08212e-20
-1.09506e-20
-1.11703e-20
-1.15229e-20
-1.20208e-20
-1.26078e-20
-1.31895e-20
-1.36892e-20
-1.40808e-20
-1.43579e-20
-1.44686e-20
1
1
0.785874
0.99009
0.954522
0.971187
0.843963
0.880497
0.957975
1
0.976872
0.738483
0.823113
0.210072
0.0600015
0.651283
7.15972e-06
0.139044
1
1
1
1
1
-4.4294e-19
-3.60996e-20
-1.48733e-20
-1.3982e-20
-1.23559e-20
-1.08389e-20
-9.61874e-21
-8.81596e-21
-8.41515e-21
-8.31477e-21
-8.36143e-21
-8.40718e-21
-8.36299e-21
-8.21071e-21
-7.98191e-21
-7.72752e-21
-7.49366e-21
-7.31372e-21
-7.20591e-21
-7.16798e-21
-7.17232e-21
-7.20103e-21
-7.23312e-21
-7.24741e-21
-7.22874e-21
-7.17192e-21
-7.09055e-21
-7.02158e-21
-7.0203e-21
-7.13462e-21
-7.35608e-21
-7.60389e-21
-7.77187e-21
-7.78624e-21
-7.64428e-21
-7.46526e-21
-7.42357e-21
0.999891
0.999273
0.770549
0.99978
0.998872
0.935578
0.992312
1
0.998208
0.953383
0.796429
-1.15926e-19
0.490073
0.173229
0.307726
0.325897
-1.04219e-19
0.881938
1
1
1
1
0.143438
-3.89991e-20
-1.4711e-20
-1.08176e-20
-9.46279e-21
-8.02815e-21
-6.69221e-21
-5.75058e-21
-5.21033e-21
-4.95302e-21
-4.85669e-21
-4.82205e-21
-4.78026e-21
-4.69889e-21
-4.57674e-21
-4.43201e-21
-4.29073e-21
-4.17605e-21
-4.10067e-21
-4.06353e-21
-4.05241e-21
-4.05238e-21
-4.04888e-21
-4.02554e-21
-3.97685e-21
-3.9064e-21
-3.82457e-21
-3.75041e-21
-3.70957e-21
-3.72018e-21
-3.7876e-21
-3.89782e-21
-4.00807e-21
-4.08192e-21
-4.11194e-21
-4.12556e-21
-4.17689e-21
-4.29054e-21
0.99988
0.944446
1
0.999986
0.995418
1
0.991979
0.990954
0.999732
0.98329
0.608227
-3.41762e-22
0.295805
0.945212
0.800522
0.0228846
0.0149982
1
1
1
1
0.734016
-3.55219e-20
-1.53269e-20
-1.13378e-20
-7.87202e-21
-6.03614e-21
-4.75366e-21
-3.83673e-21
-3.26263e-21
-2.94253e-21
-2.76885e-21
-2.66335e-21
-2.5821e-21
-2.50689e-21
-2.43441e-21
-2.36664e-21
-2.30571e-21
-2.25239e-21
-2.20564e-21
-2.16291e-21
-2.12116e-21
-2.0782e-21
-2.03395e-21
-1.99033e-21
-1.95024e-21
-1.91713e-21
-1.89527e-21
-1.88991e-21
-1.907e-21
-1.95125e-21
-2.02347e-21
-2.1186e-21
-2.22674e-21
-2.33918e-21
-2.44715e-21
-2.54866e-21
-2.6524e-21
-2.76544e-21
-2.88812e-21
0.999993
0.842437
1
0.999898
0.999999
0.879008
0.83439
0.914686
1
1
0.812769
-4.87186e-23
0.893168
0.986018
0.198944
1.02427e-21
0.808267
1
1
1
1
0.00473128
-9.58746e-21
-1.0694e-20
-7.52386e-21
-5.24447e-21
-3.82219e-21
-2.87113e-21
-2.2338e-21
-1.83011e-21
-1.57951e-21
-1.41852e-21
-1.30872e-21
-1.2295e-21
-1.16971e-21
-1.1224e-21
-1.08229e-21
-1.04542e-21
-1.0095e-21
-9.74156e-22
-9.40612e-22
-9.11063e-22
-8.87942e-22
-8.73515e-22
-8.69697e-22
-8.78153e-22
-9.00595e-22
-9.38964e-22
-9.95244e-22
-1.07075e-21
-1.16513e-21
-1.2755e-21
-1.39612e-21
-1.51935e-21
-1.63739e-21
-1.74454e-21
-1.83875e-21
-1.92207e-21
-1.99886e-21
-2.07117e-21
0.999993
0.779459
1
1
0.991872
0.991681
1
1
0.999593
0.999997
1
0.270345
1
0.913141
0.185134
-9.425e-19
1
1
1
1
0.463599
6.31717e-36
-1.08139e-20
-7.11509e-21
-4.94272e-21
-3.37553e-21
-2.34085e-21
-1.6518e-21
-1.20262e-21
-9.1834e-22
-7.37187e-22
-6.18852e-22
-5.3988e-22
-4.85864e-22
-4.47337e-22
-4.1804e-22
-3.94144e-22
-3.73787e-22
-3.56625e-22
-3.43349e-22
-3.35135e-22
-3.33247e-22
-3.38852e-22
-3.53041e-22
-3.76894e-22
-4.11464e-22
-4.57594e-22
-5.15577e-22
-5.84675e-22
-6.62777e-22
-7.46168e-22
-8.29608e-22
-9.06836e-22
-9.71537e-22
-1.01891e-21
-1.04725e-21
-1.05859e-21
-1.05769e-21
-1.04965e-21
-1.03726e-21
0.996123
0.705743
0.999059
0.975494
0.999043
0.99048
0.977281
1
0.986748
0.998803
1
1
1
0.267879
9.57733e-20
0.656422
1
1
1
1
-4.11947e-19
-1.89574e-20
-7.90649e-21
-4.93687e-21
-3.2302e-21
-2.07086e-21
-1.3232e-21
-8.5314e-22
-5.65639e-22
-3.91347e-22
-2.84578e-22
-2.18196e-22
-1.76155e-22
-1.48712e-22
-1.30061e-22
-1.16923e-22
-1.0762e-22
-1.0147e-22
-9.83754e-23
-9.85735e-23
-1.02481e-22
-1.10609e-22
-1.23497e-22
-1.4163e-22
-1.65284e-22
-1.94333e-22
-2.28036e-22
-2.64888e-22
-3.02633e-22
-3.38446e-22
-3.69291e-22
-3.92347e-22
-4.05506e-22
-4.07844e-22
-3.99999e-22
-3.84133e-22
-3.63365e-22
-3.40774e-22
-3.18479e-22
-2.97169e-22
0.767646
0.846824
0.992291
0.975494
0.92024
0.716516
0.999053
0.879145
0.991603
0.996956
1
0.999934
0.982179
0.0543268
7.41928e-36
1
1
1
1
0.451155
-8.89425e-20
-1.66712e-20
-6.1097e-21
-3.51297e-21
-2.10487e-21
-1.21021e-21
-6.85047e-22
-3.89532e-22
-2.26249e-22
-1.36292e-22
-8.64605e-23
-5.8478e-23
-4.23573e-23
-3.27542e-23
-2.69032e-23
-2.34145e-23
-2.16214e-23
-2.12446e-23
-2.22197e-23
-2.46072e-23
-2.85289e-23
-3.41102e-23
-4.14088e-23
-5.03351e-23
-6.05778e-23
-7.15594e-23
-8.24452e-23
-9.22394e-23
-9.99435e-23
-1.04743e-22
-1.06168e-22
-1.04176e-22
-9.91509e-23
-9.18221e-23
-8.3133e-23
-7.40511e-23
-6.53827e-23
-5.76389e-23
-5.10084e-23
-4.54101e-23
1
0.989104
0.76963
0.975189
0.543765
1
0.99959
0.927388
0.880378
0.9989
0.143402
1
0.214253
0.00114613
0.31633
1
1
1
1
0.00170637
-4.86739e-21
-6.01907e-21
-4.12599e-21
-2.43829e-21
-1.3077e-21
-6.54771e-22
-3.17412e-22
-1.52375e-22
-7.36944e-23
-3.66743e-23
-1.92973e-23
-1.10071e-23
-6.9169e-24
-4.83613e-24
-3.79175e-24
-3.3517e-24
-3.32701e-24
-3.64249e-24
-4.27706e-24
-5.23065e-24
-6.50107e-24
-8.0629e-24
-9.84988e-24
-1.17441e-23
-1.35785e-23
-1.51562e-23
-1.62865e-23
-1.68254e-23
-1.67106e-23
-1.59744e-23
-1.47328e-23
-1.31534e-23
-1.14193e-23
-9.69555e-24
-8.10791e-24
-6.73385e-24
-5.60372e-24
-4.71151e-24
-4.02832e-24
-3.51451e-24
1
0.998999
0.781608
0.944559
0.469057
1
0.998119
1
1
0.999113
8.21149e-22
0.0323814
0.092351
-5.62006e-22
0.904841
1
1
1
0.627114
-5.05066e-20
-7.61792e-21
-5.0518e-21
-3.04e-21
-1.59995e-21
-7.43924e-22
-3.15794e-22
-1.26084e-22
-4.83992e-23
-1.82771e-23
-7.02615e-24
-2.87766e-24
-1.31688e-24
-7.04131e-25
-4.58007e-25
-3.69558e-25
-3.61197e-25
-4.03332e-25
-4.84256e-25
-5.98228e-25
-7.39891e-25
-9.01105e-25
-1.06929e-24
-1.22755e-24
-1.35661e-24
-1.43839e-24
-1.46039e-24
-1.41902e-24
-1.32063e-24
-1.17965e-24
-1.0148e-24
-8.446e-25
-6.8403e-25
-5.42858e-25
-4.25632e-25
-3.32843e-25
-2.62351e-25
-2.10732e-25
-1.74335e-25
-1.49874e-25
-1.34646e-25
1
1
0.858869
0.646759
0.362384
1
1
0.998646
1
1
0
0.0166353
0.0873032
7.29057e-19
1
1
1
1
0.0641908
-1.23655e-37
-6.23334e-21
-3.89553e-21
-2.08973e-21
-9.50142e-22
-3.74487e-22
-1.30107e-22
-4.05555e-23
-1.15913e-23
-3.14329e-24
-8.54959e-25
-2.52201e-25
-8.90334e-26
-4.21059e-26
-2.84679e-26
-2.58782e-26
-2.78403e-26
-3.2185e-26
-3.79568e-26
-4.4479e-26
-5.10367e-26
-5.68174e-26
-6.09856e-26
-6.28359e-26
-6.19647e-26
-5.83977e-26
-5.25936e-26
-4.53267e-26
-3.7486e-26
-2.98756e-26
-2.30746e-26
-1.73903e-26
-1.28947e-26
-9.49744e-27
-7.02502e-27
-5.28423e-27
-4.09889e-27
-3.32688e-27
-2.86457e-27
-2.64329e-27
-2.62115e-27
0.999858
0.52594
0.871934
0.407135
0.394055
1
0.617872
0.821155
0.99291
1
0.304385
0.00131694
0.0644951
0.659505
1
1
1
0.971626
3.89328e-21
-5.79067e-21
-4.7351e-21
-2.6633e-21
-1.27877e-21
-5.0058e-22
-1.62041e-22
-4.35862e-23
-9.81094e-24
-1.8892e-24
-3.26762e-25
-5.56353e-26
-1.08381e-26
-3.04752e-27
-1.50458e-27
-1.16587e-27
-1.11438e-27
-1.14885e-27
-1.20917e-27
-1.26745e-27
-1.3047e-27
-1.3069e-27
-1.26546e-27
-1.17912e-27
-1.05404e-27
-9.02787e-28
-7.4107e-28
-5.84066e-28
-4.43512e-28
-3.26077e-28
-2.33649e-28
-1.64475e-28
-1.14817e-28
-8.03505e-29
-5.70763e-29
-4.1748e-29
-3.19698e-29
-2.60984e-29
-2.31035e-29
-2.24424e-29
-2.39902e-29
-2.80011e-29
0.999728
0.688404
0.931572
0.306231
0.998116
0.923075
1.54557e-19
0.00454314
0.0988018
0.531153
0.889671
0.113218
4.49353e-19
0.986674
1
1
1
0.227049
1.75404e-37
-5.49159e-21
-3.47805e-21
-1.716e-21
-7.1148e-22
-2.31327e-22
-5.80753e-23
-1.11091e-23
-1.6065e-24
-1.78517e-25
-1.63326e-26
-1.45139e-27
-1.80793e-28
-5.2689e-29
-3.11407e-29
-2.38877e-29
-1.99648e-29
-1.72439e-29
-1.50388e-29
-1.30506e-29
-1.11548e-29
-9.32002e-30
-7.57191e-30
-5.96219e-30
-4.54372e-30
-3.35287e-30
-2.40084e-30
-1.675e-30
-1.14524e-30
-7.73198e-31
-5.2029e-31
-3.52837e-31
-2.44307e-31
-1.75395e-31
-1.32981e-31
-1.08755e-31
-9.80521e-32
-9.91282e-32
-1.131e-31
-1.44897e-31
-2.05947e-31
-3.19642e-31
0.1538
0.452679
0.319987
0.639074
0.352085
0.000421321
3.24828e-14
1.33924e-15
1.22529e-17
-5.09717e-21
0.0149282
0.0334779
0.0506857
1
1
1
1
7.66157e-20
-8.14093e-21
-3.99742e-21
-2.31204e-21
-1.03556e-21
-3.60734e-22
-9.16452e-23
-1.63039e-23
-1.94654e-24
-1.49405e-25
-7.28836e-27
-2.47263e-28
-8.8721e-30
-1.09864e-30
-4.40001e-31
-2.37797e-31
-1.42563e-31
-9.08405e-32
-6.0199e-32
-4.08708e-32
-2.80899e-32
-1.93646e-32
-1.33016e-32
-9.06849e-33
-6.12434e-33
-4.09881e-33
-2.72734e-33
-1.81509e-33
-1.21983e-33
-8.39667e-34
-6.03003e-34
-4.6166e-34
-3.8466e-34
-3.53482e-34
-3.59122e-34
-4.00786e-34
-4.86644e-34
-6.37967e-34
-8.99429e-34
-1.36309e-33
-2.22375e-33
-3.90723e-33
-7.34043e-33
0.0187582
0.00341624
0.0323299
0.187647
3.17753e-13
9.75309e-13
2.9665e-13
9.65392e-15
3.21791e-17
1.67098e-20
3.81914e-12
-1.31972e-19
0.756765
1
1
1
0.631189
1.69478e-20
-3.77013e-21
-3.06846e-21
-1.53996e-21
-5.87394e-22
-1.62197e-22
-2.9524e-23
-3.25908e-24
-1.9563e-25
-5.48446e-27
-5.94378e-29
-2.57107e-31
-1.01682e-32
-2.53342e-33
-7.86847e-34
-2.87186e-34
-1.19013e-34
-5.50236e-35
-2.76687e-35
-1.48749e-35
-8.44106e-36
-5.01648e-36
-3.11426e-36
-2.02991e-36
-1.40781e-36
-1.05973e-36
-8.81669e-37
-8.14657e-37
-8.2514e-37
-8.95197e-37
-1.01789e-36
-1.19571e-36
-1.44153e-36
-1.78228e-36
-2.26728e-36
-2.98514e-36
-4.09963e-36
-5.92609e-36
-9.10688e-36
-1.50298e-35
-2.68817e-35
-5.2297e-35
-1.09344e-34
0.010987
0.0180503
0.0428573
1.25227e-13
1.13299e-11
1.24405e-12
1.24419e-12
4.14453e-14
3.36524e-08
2.82573e-07
-3.98337e-20
-6.77192e-20
1
1
1
1
0.106552
-9.79468e-21
-4.26117e-21
-2.43248e-21
-1.00551e-21
-3.05439e-22
-6.16045e-23
-7.10726e-24
-3.9126e-25
-7.49447e-27
-2.09053e-29
-8.72308e-34
-9.59786e-35
-1.10494e-35
-1.39991e-36
-2.17279e-37
-4.33486e-38
-1.1292e-38
-3.78073e-39
-1.58035e-39
-9.27364e-40
-7.00397e-40
-6.51251e-40
-7.0129e-40
-8.20583e-40
-9.9781e-40
-1.22884e-39
-1.51231e-39
-1.84911e-39
-2.24376e-39
-2.70706e-39
-3.25961e-39
-3.93973e-39
-4.81388e-39
-5.99478e-39
-7.68007e-39
-1.02257e-38
-1.43122e-38
-2.13174e-38
-3.42303e-38
-6.00221e-38
-1.1614e-37
-2.48306e-37
-5.733e-37
0.0115162
0.0322602
3.01615e-13
4.06998e-11
2.25677e-10
3.57115e-10
2.73914e-11
5.61876e-14
1.79503e-06
-3.81729e-23
-6.46562e-20
0.285838
1
1
1
1
-5.08102e-19
-5.61653e-21
-4.02476e-21
-1.82344e-21
-6.09445e-22
-1.39265e-22
-1.85037e-23
-1.10981e-24
-1.90062e-26
-7.90375e-30
-4.87664e-35
-2.59732e-36
-1.11167e-37
-4.21848e-39
-1.756e-40
-1.06351e-41
-1.39176e-42
-5.45088e-43
-4.32202e-43
-4.41441e-43
-4.94846e-43
-5.80834e-43
-6.99509e-43
-8.55671e-43
-1.04081e-42
-1.25823e-42
-1.50727e-42
-1.78539e-42
-2.09167e-42
-2.42884e-42
-2.80669e-42
-3.24623e-42
-3.78515e-42
-4.48929e-42
-5.46924e-42
-6.92078e-42
-9.20907e-42
-1.30623e-41
-2.00471e-41
-3.38235e-41
-6.37136e-41
-1.35523e-40
-3.2453e-40
-8.42068e-40
0.000957103
0.00173827
2.4682e-12
1.18628e-11
3.34857e-12
1.0821e-09
-4.76776e-30
1.60516e-05
0.000338944
6.11096e-28
-1.30348e-19
0.895685
1
1
1
0.452814
-2.72417e-20
-6.55801e-21
-3.23635e-21
-1.23541e-21
-3.28478e-22
-5.27676e-23
-3.96268e-24
-8.24845e-26
-1.02795e-29
-7.93879e-36
-1.69295e-37
-2.18096e-39
-1.77865e-41
-1.1828e-43
-1.84137e-45
-5.62927e-46
-3.69149e-46
-2.8507e-46
-2.45483e-46
-2.2974e-46
-2.28417e-46
-2.37536e-46
-2.54775e-46
-2.78573e-46
-3.07406e-46
-3.4068e-46
-3.77664e-46
-4.15382e-46
-4.5484e-46
-4.96957e-46
-5.43913e-46
-6.0061e-46
-6.74876e-46
-7.79526e-46
-9.363e-46
-1.18472e-45
-1.60158e-45
-2.35046e-45
-3.81116e-45
-6.95562e-45
-1.45429e-44
-3.52085e-44
-9.76072e-44
-2.91843e-43
2.01963e-08
8.47633e-10
1.98302e-10
3.34857e-12
2.37525e-07
1.11586e-08
8.8774e-09
0.000166092
3.18053e-06
-3.1323e-27
8.12378e-19
1
1
1
1
0.0476296
-7.3114e-22
-4.44779e-21
-2.25871e-21
-7.50148e-22
-1.52911e-22
-1.55245e-23
-4.92478e-25
-6.58554e-28
-4.18102e-36
-3.82298e-38
-1.88695e-40
-3.69609e-43
-9.13932e-47
-1.58255e-48
-4.28435e-49
-1.59847e-49
-7.18523e-50
-3.83101e-50
-2.37557e-50
-1.67911e-50
-1.33289e-50
-1.16187e-50
-1.07714e-50
-1.0405e-50
-1.03451e-50
-1.04847e-50
-1.07253e-50
-1.102e-50
-1.13654e-50
-1.17972e-50
-1.23582e-50
-1.31597e-50
-1.4392e-50
-1.63439e-50
-1.95193e-50
-2.48815e-50
-3.4388e-50
-5.24387e-50
-8.99989e-50
-1.77439e-49
-4.09349e-49
-1.11461e-48
-3.50521e-48
-1.17715e-47
4.05085e-09
7.27378e-10
3.61897e-10
2.96015e-07
4.37523e-08
1.36091e-07
0.000254583
1.81438e-06
5.4914e-07
-5.40309e-28
0.748989
1
1
1
0.999212
-8.17471e-20
-4.00125e-21
-3.15733e-21
-1.45458e-21
-4.06619e-22
-5.90648e-23
-3.14192e-24
-1.82781e-26
-9.00628e-36
-4.19217e-38
-1.02461e-40
-5.07498e-44
-2.29479e-48
-3.84275e-51
-4.33244e-52
-5.87791e-53
-9.19774e-54
-1.78256e-54
-4.57284e-55
-1.60033e-55
-7.40034e-56
-4.21776e-56
-2.79734e-56
-2.06342e-56
-1.64278e-56
-1.39892e-56
-1.24644e-56
-1.1325e-56
-1.04292e-56
-9.71358e-57
-9.11504e-57
-8.68061e-57
-8.50968e-57
-8.65842e-57
-9.26658e-57
-1.05729e-56
-1.3051e-56
-1.77538e-56
-2.71259e-56
-4.75105e-56
-9.75142e-56
-2.38932e-55
-7.02137e-55
-2.395e-54
-1.08901e-53
0.0108534
1.12557e-08
6.81848e-10
2.77054e-08
-1.03777e-24
0.00147867
0.000235863
3.25218e-06
5.45373e-07
-5.56686e-19
1
1
1
1
0.296371
-4.22153e-21
-3.77442e-21
-2.34118e-21
-9.00666e-22
-1.93734e-22
-1.76624e-23
-3.28471e-25
-1.53186e-30
-2.03328e-37
-3.14396e-40
-9.33153e-44
-1.94029e-49
-4.7846e-53
-1.79174e-54
-6.40535e-56
-2.0319e-57
-5.97831e-59
-1.95076e-60
-9.33016e-62
-8.05446e-63
-1.23086e-63
-2.88822e-64
-9.25605e-65
-3.81629e-65
-1.94151e-65
-1.14493e-65
-7.4295e-66
-5.16776e-66
-3.89933e-66
-3.36501e-66
-3.52769e-66
-4.90917e-66
-9.16257e-66
-2.12645e-65
-5.71163e-65
-1.72901e-64
-5.64995e-64
-1.96133e-63
-7.03046e-63
-2.5556e-62
-9.37902e-62
-3.51896e-61
-1.41945e-60
-6.1963e-60
-2.66149e-59
0.0108644
0.000481477
6.94984e-07
-1.3949e-27
0.00020234
0.00280324
4.439e-26
2.87828e-06
-4.53567e-25
0.646163
1
1
1
1
0.000606944
-2.14597e-21
-3.20889e-21
-1.65755e-21
-5.04645e-22
-7.71549e-23
-3.56251e-24
-4.25718e-27
-2.88265e-36
-3.80671e-39
-1.14466e-42
-1.63658e-49
-7.54816e-54
-1.15636e-55
-2.19146e-57
-4.7644e-59
-1.10738e-60
-2.48727e-62
-5.14101e-64
-9.73094e-66
-1.68311e-67
-2.66088e-69
-7.52691e-71
-1.2433e-70
-3.90249e-70
-1.17063e-69
-3.3417e-69
-9.09887e-69
-2.37944e-68
-6.06753e-68
-1.54217e-67
-4.01464e-67
-1.10034e-66
-3.24233e-66
-1.0351e-65
-3.55854e-65
-1.29797e-64
-4.93231e-64
-1.92089e-63
-7.60088e-63
-3.00718e-62
-1.17098e-61
-4.50205e-61
-1.8071e-60
-8.18873e-60
-4.09786e-59
0.0095858
0.00706167
3.05653e-23
4.56513e-08
0.000267915
0.00240346
6.41134e-25
5.05639e-07
4.99097e-19
1
1
1
1
0.758349
-3.69486e-20
-3.52416e-21
-2.73977e-21
-1.08687e-21
-2.50229e-22
-2.39264e-23
-3.41919e-25
-1.4816e-31
-1.03717e-37
-4.07339e-41
-7.74416e-46
-5.3521e-53
-1.57614e-54
-4.80559e-56
-1.35859e-57
-3.53603e-59
-8.47618e-61
-1.87157e-62
-3.80226e-64
-7.10047e-66
-1.21577e-67
-1.90337e-69
-3.07921e-71
-1.32459e-71
-4.34126e-71
-1.39507e-70
-4.2927e-70
-1.27436e-69
-3.69367e-69
-1.06349e-68
-3.12532e-68
-9.69177e-68
-3.25919e-67
-1.19838e-66
-4.76614e-66
-2.00982e-65
-8.80618e-65
-3.93719e-64
-1.76632e-63
-7.82675e-63
-3.37135e-62
-1.39324e-61
-5.50134e-61
-2.14032e-60
-8.94684e-60
-4.43286e-59
2.34312e-22
0.00948089
-3.32572e-28
2.00809e-07
0.00104141
0.000297922
7.20369e-07
2.61205e-08
0.686533
1
1
1
1
0.112896
-6.22519e-21
-3.67806e-21
-2.11195e-21
-6.57325e-22
-1.06088e-22
-5.04412e-24
-7.29665e-28
-6.1583e-36
-2.52621e-39
-1.39263e-43
-1.3328e-51
-3.79482e-53
-1.27395e-54
-3.88733e-56
-1.08145e-57
-2.75605e-59
-6.4562e-61
-1.39338e-62
-2.77241e-64
-5.08562e-66
-8.58618e-68
-1.33036e-69
-1.9112e-71
-1.24657e-72
-3.59544e-72
-1.23263e-71
-4.0763e-71
-1.3108e-70
-4.16914e-70
-1.35182e-69
-4.65882e-69
-1.76903e-68
-7.48943e-68
-3.46609e-67
-1.7002e-66
-8.61513e-66
-4.42956e-65
-2.27946e-64
-1.15939e-63
-5.75656e-63
-2.75231e-62
-1.25123e-61
-5.36096e-61
-2.16508e-60
-8.37038e-60
-3.17544e-59
0.000476142
0.00250579
0.00396861
0.000175199
0.000664164
-5.14537e-25
2.47492e-07
1.6029e-18
1
1
1
1
1
3.75367e-19
-3.60153e-21
-3.27943e-21
-1.46702e-21
-3.49398e-22
-3.54152e-23
-5.01976e-25
-1.63072e-31
-1.34874e-36
-1.19377e-40
-1.51682e-45
-9.08782e-52
-2.94392e-53
-9.93597e-55
-3.02763e-56
-8.36437e-58
-2.10457e-59
-4.84613e-61
-1.02508e-62
-1.99683e-64
-3.59083e-66
-5.95565e-68
-9.09033e-70
-1.27448e-71
-2.21441e-73
-2.24289e-73
-8.12739e-73
-2.87376e-72
-9.94649e-72
-3.44953e-71
-1.24565e-70
-4.92889e-70
-2.23986e-69
-1.17296e-68
-6.73484e-68
-4.00381e-67
-2.3869e-66
-1.40647e-65
-8.12251e-65
-4.55895e-64
-2.46025e-63
-1.25995e-62
-6.02585e-62
-2.63993e-61
-1.03252e-60
-3.44352e-60
-8.61797e-60
0.00163965
0.000119192
0.00385208
0.000813776
-9.05435e-24
1.0811e-06
8.04639e-19
0.846793
1
1
1
1
0.268047
-3.76126e-21
-4.84312e-21
-2.56521e-21
-8.96607e-22
-1.54854e-22
-8.03277e-24
-9.93652e-28
-1.36419e-33
-6.16264e-37
-5.56673e-41
-6.93883e-46
-6.30018e-52
-2.13232e-53
-7.24363e-55
-2.22048e-56
-6.15036e-58
-1.54409e-59
-3.52894e-61
-7.37159e-63
-1.41329e-64
-2.49578e-66
-4.06349e-68
-6.09495e-70
-8.40795e-72
-1.08931e-73
-1.16566e-74
-4.03259e-74
-1.51174e-73
-5.5774e-73
-2.07656e-72
-8.15168e-72
-3.58116e-71
-1.84482e-70
-1.11133e-69
-7.46879e-69
-5.20832e-68
-3.55991e-67
-2.33345e-66
-1.4569e-65
-8.61419e-65
-4.77266e-64
-2.43717e-63
-1.11844e-62
-4.44731e-62
-1.45807e-61
-3.70849e-61
-6.77546e-61
0.00163879
-1.72191e-25
-1.10318e-23
-8.81367e-23
-1.50577e-25
7.78785e-10
0.220691
1
1
1
1
1
-1.21507e-18
-5.59344e-21
-3.66398e-21
-1.74944e-21
-4.78891e-22
-5.38638e-23
-8.59833e-25
-7.3155e-31
-5.71265e-34
-2.86554e-37
-2.66317e-41
-2.94621e-46
-4.14738e-52
-1.44269e-53
-4.90551e-55
-1.51148e-56
-4.21485e-58
-1.06412e-59
-2.43766e-61
-5.08155e-63
-9.67423e-65
-1.68925e-66
-2.71188e-68
-4.00528e-70
-5.4399e-72
-6.78818e-74
-1.15067e-75
-1.53981e-75
-6.02368e-75
-2.32598e-74
-9.04521e-74
-3.70361e-73
-1.69879e-72
-9.19212e-72
-5.8673e-71
-4.1952e-70
-3.15786e-69
-2.35317e-68
-1.6457e-67
-1.05672e-66
-6.18484e-66
-3.26761e-65
-1.53148e-64
-6.20499e-64
-2.09562e-63
-5.64385e-63
-1.15795e-62
-1.73774e-62
1.95969e-08
7.06961e-24
1.42055e-05
-4.63093e-26
1.64833e-06
1.3478e-17
1
1
1
1
1
0.393169
-2.20139e-38
-5.17566e-21
-2.71543e-21
-1.08867e-21
-2.19462e-22
-1.29208e-23
-2.0838e-27
-3.26406e-31
-2.95014e-34
-1.22656e-37
-1.02772e-41
-1.05376e-46
-2.62311e-52
-9.25888e-54
-3.11839e-55
-9.57535e-57
-2.67401e-58
-6.78663e-60
-1.56471e-61
-3.27919e-63
-6.2594e-65
-1.09152e-66
-1.74318e-68
-2.55163e-70
-3.42472e-72
-4.21362e-74
-4.84866e-76
-5.0426e-77
-1.85622e-76
-7.36939e-76
-2.90972e-75
-1.18157e-74
-5.22337e-74
-2.67701e-73
-1.62853e-72
-1.12873e-71
-8.33487e-71
-6.17422e-70
-4.37382e-69
-2.8085e-68
-1.5911e-67
-7.86062e-67
-3.34531e-66
-1.20154e-65
-3.53971e-65
-8.23997e-65
-1.45865e-64
-1.91623e-64
3.1227e-09
2.34042e-05
1.57978e-07
1.95294e-06
5.13058e-07
0.919783
1
1
1
1
1
-2.76064e-19
-7.915e-21
-3.74313e-21
-1.92116e-21
-6.19529e-22
-8.23947e-23
-1.51055e-24
-2.32584e-28
-3.45453e-31
-2.65284e-34
-6.75685e-38
-3.38947e-42
-2.93345e-47
-1.6073e-52
-5.70635e-54
-1.89225e-55
-5.73566e-57
-1.58796e-58
-4.01658e-60
-9.27453e-62
-1.95332e-63
-3.75234e-65
-6.57941e-67
-1.05396e-68
-1.54268e-70
-2.06377e-72
-2.52265e-74
-2.8157e-76
-3.9116e-78
-4.468e-78
-1.80862e-77
-7.18051e-77
-2.83298e-76
-1.15059e-75
-5.08144e-75
-2.58059e-74
-1.52752e-73
-1.00366e-72
-6.83099e-72
-4.53201e-71
-2.80923e-70
-1.55189e-69
-7.35626e-69
-2.93696e-68
-9.71333e-68
-2.6018e-67
-5.48822e-67
-8.87898e-67
-1.10152e-66
4.92977e-07
1.99674e-06
2.28951e-06
5.20431e-07
0.827274
1
1
1
1
1
0.371657
-1.41841e-20
-5.14207e-21
-2.67384e-21
-1.27376e-21
-3.11064e-22
-2.27823e-23
-4.21803e-26
-1.80477e-28
-3.77317e-31
-3.1528e-34
-6.44237e-38
-1.36634e-42
-5.8863e-48
-9.45085e-53
-3.36089e-54
-1.10088e-55
-3.28895e-57
-8.97371e-59
-2.24143e-60
-5.13109e-62
-1.07656e-63
-2.06917e-65
-3.64306e-67
-5.87038e-69
-8.64464e-71
-1.16142e-72
-1.42172e-74
-1.58335e-76
-1.61992e-78
-9.26502e-80
-3.29398e-79
-1.33756e-78
-5.26517e-78
-2.0351e-77
-7.90589e-77
-3.20703e-76
-1.41842e-75
-7.01364e-75
-3.79466e-74
-2.12121e-73
-1.14951e-72
-5.74807e-72
-2.54714e-71
-9.56924e-71
-2.94949e-70
-7.2839e-70
-1.41229e-69
-2.13898e-69
-2.67464e-69
3.25651e-08
5.04679e-07
1.79023e-17
0.867401
1
1
1
1
1
1
-2.02833e-19
-5.03645e-21
-3.39363e-21
-1.95331e-21
-7.73385e-22
-1.3386e-22
-4.17215e-24
-2.66431e-26
-1.27685e-28
-3.20412e-31
-2.93373e-34
-5.87585e-38
-7.79174e-43
-7.99656e-49
-5.27009e-53
-1.86841e-54
-6.07476e-56
-1.79779e-57
-4.84768e-59
-1.19466e-60
-2.69708e-62
-5.5907e-64
-1.06516e-65
-1.86714e-67
-3.00792e-69
-4.44155e-71
-5.9978e-73
-7.38444e-75
-8.26597e-77
-8.38904e-79
-8.56759e-81
-3.92272e-81
-1.64804e-80
-6.73608e-80
-2.64478e-79
-1.00412e-78
-3.73121e-78
-1.37917e-77
-5.18144e-77
-2.01373e-76
-8.11119e-76
-3.31339e-75
-1.31955e-74
-4.87469e-74
-1.6044e-73
-4.54607e-73
-1.0776e-72
-2.11063e-72
-3.44978e-72
-4.68274e-72
0.211862
0.122747
1
1
1
1
1
1
1
0.173388
-2.90978e-21
-4.38339e-21
-2.67556e-21
-1.3252e-21
-4.18378e-22
-5.32597e-23
-1.43539e-24
-1.73077e-26
-6.43817e-29
-1.59769e-31
-1.51442e-34
-2.97665e-38
-3.117e-43
-7.19354e-50
-2.77813e-53
-9.75901e-55
-3.14638e-56
-9.24222e-58
-2.4726e-59
-6.03665e-61
-1.34846e-62
-2.7609e-64
-5.19562e-66
-9.00278e-68
-1.43753e-69
-2.11165e-71
-2.84754e-73
-3.51244e-75
-3.94667e-77
-4.02516e-79
-3.71914e-81
-5.16006e-83
-9.63562e-83
-4.26647e-82
-1.80081e-81
-7.23087e-81
-2.76543e-80
-1.01186e-79
-3.56258e-79
-1.21954e-78
-4.08803e-78
-1.34857e-77
-4.35144e-77
-1.35161e-76
-3.94295e-76
-1.04684e-75
-2.45508e-75
-4.92738e-75
-8.20559e-75
-1.10301e-74
1
1
1
1
1
1
1
1
1
1
1
1
1
1
1
1
1
1
1
1
1
1
1
1
1
1
1
1
1
1
1
1
1
1
1
1
1
1
1
1
1
1
1
1
1
1
1
1
1
1
1
1
1
1
1
1
1
1
1
1
1
1
1
1
1
1
1
1
1
1
1
1
1
1
1
1
1
1
1
1
1
1
1
1
1
1
1
1
1
1
1
1
1
1
1
1
1
1
1
1
1
1
1
1
1
1
1
1
1
1
1
1
1
1
1
1
1
1
1
1
1
1
1
1
1
1
1
1
1
1
1
1
1
1
1
1
1
1
1
1
1
1
1
1
1
1
1
1
1
1
1
1
1
1
1
1
1
1
1
1
1
1
1
1
1
1
1
1
1
1
1
1
1
1
1
1
1
1
1
1
1
1
1
1
1
1
1
1
1
1
1
1
1
1
1
1
1
1
1
1
1
1
1
1
1
1
1
1
1
1
1
1
1
1
1
1
1
1
1
1
1
1
1
1
1
1
1
1
1
1
1
1
1
1
1
1
1
1
1
1
1
1
1
1
1
1
1
1
1
1
1
1
1
1
1
0.992212
0.960992
0.89672
0.79429
0.619599
-5.35515e-32
0.291382
0.293687
0.283035
0.264698
0.24148
0.215026
0.185872
0.154555
0.121335
0.0866742
0.0515295
0.0171765
-6.63308e-21
-6.60429e-21
-6.11306e-21
-5.72353e-21
-5.34717e-21
-5.25598e-21
-3.36139e-21
-1.38529e-32
-2.99893e-32
-7.05568e-32
-1.99594e-31
-4.64264e-31
-9.37085e-31
-1.69471e-30
-2.79767e-30
-4.25491e-30
-5.99455e-30
-7.8793e-30
-9.89073e-30
-1.26117e-29
-1.73063e-29
-2.08068e-29
-2.1959e-29
-2.04685e-29
-1.73444e-29
-1.46452e-29
-1.29259e-29
-4.77121e-33
-1.19341e-33
-2.8151e-33
-1.19398e-32
-3.77804e-32
-8.51849e-32
-1.57592e-31
-2.51803e-31
-3.57315e-31
-4.60517e-31
-5.53498e-31
-6.48638e-31
-7.98723e-31
-1.04618e-30
-1.21539e-30
-1.18645e-30
-9.69332e-31
-6.76208e-31
-4.26158e-31
-2.58478e-31
-1.62348e-33
-3.20926e-35
-7.25282e-35
-2.20028e-34
-7.60063e-34
-1.95402e-33
-3.88101e-33
-6.51076e-33
-9.59043e-33
-1.27624e-32
-1.57884e-32
-1.88008e-32
-2.22913e-32
-2.56771e-32
-2.58634e-32
-2.16066e-32
-1.48354e-32
-8.46759e-33
-4.14382e-33
-1.81916e-33
-4.33036e-34
-8.47408e-37
-1.92977e-36
-6.62773e-36
-1.97626e-35
-5.49584e-35
-1.16319e-34
-2.00472e-34
-2.96793e-34
-3.89352e-34
-4.63795e-34
-5.11831e-34
-5.27776e-34
-4.9792e-34
-4.10965e-34
-2.88613e-34
-1.7147e-34
-8.69388e-35
-3.84183e-35
-1.52339e-35
-1.04563e-34
-2.19762e-38
-4.91627e-38
-1.97004e-37
-6.48211e-37
-1.70657e-36
-3.68945e-36
-6.26434e-36
-8.89988e-36
-1.10063e-35
-1.21241e-35
-1.20557e-35
-1.08506e-35
-8.75346e-36
-6.2258e-36
-3.85979e-36
-2.08086e-36
-9.81076e-37
-4.09686e-37
-1.54077e-37
-2.21693e-35
-4.14645e-39
-1.03779e-39
-5.10277e-39
-1.85519e-38
-4.97331e-38
-1.02988e-37
-1.68243e-37
-2.25059e-37
-2.59681e-37
-2.6453e-37
-2.40155e-37
-1.94469e-37
-1.39842e-37
-8.87661e-38
-4.95411e-38
-2.4313e-38
-1.05413e-38
-4.07208e-39
-1.41588e-39
-2.19235e-36
-5.76218e-39
-3.67663e-41
-1.05748e-40
-4.11598e-40
-1.11016e-39
-2.2134e-39
-3.3974e-39
-4.27337e-39
-4.65359e-39
-4.47022e-39
-3.78868e-39
-2.81953e-39
-1.83559e-39
-1.04441e-39
-5.20408e-40
-2.28195e-40
-8.87296e-41
-3.09005e-41
-9.74572e-42
-1.23896e-38
-1.37395e-39
-6.19697e-42
-1.61468e-42
-6.20746e-42
-1.62395e-41
-3.08538e-41
-4.44039e-41
-5.29426e-41
-5.53532e-41
-5.09478e-41
-4.06276e-41
-2.77476e-41
-1.62144e-41
-8.16466e-42
-3.58416e-42
-1.39015e-42
-4.82786e-43
-1.51964e-43
-4.38064e-44
-1.30767e-42
-3.87199e-42
-3.76041e-44
-1.46888e-44
-5.04439e-44
-1.23337e-43
-2.20625e-43
-2.99139e-43
-3.42758e-43
-3.49429e-43
-3.0995e-43
-2.31045e-43
-1.42747e-43
-7.36998e-44
-3.24901e-44
-1.25451e-44
-4.33511e-45
-1.3593e-45
-3.89631e-46
-1.02669e-46
-1.98973e-47
-1.82485e-46
-1.27665e-47
-4.53063e-47
-1.31221e-46
-2.95292e-46
-4.98892e-46
-6.45416e-46
-7.23454e-46
-7.27685e-46
-6.20234e-46
-4.25803e-46
-2.33402e-46
-1.04959e-46
-4.04836e-47
-1.39132e-47
-4.33026e-48
-1.2216e-48
-3.12976e-49
-7.35886e-50
1
1
1
1
1
1
1
1
1
1
1
1
1
1
1
1
1
1
1
1
1
1
1
1
1
1
1
1
1
1
1
1
1
1
1
1
1
1
1
1
1
1
1
1
1
1
1
1
1
1
1
1
1
1
1
1
1
1
1
1
1
1
1
1
1
1
1
1
1
1
1
1
1
1
1
1
1
1