/*--------------------------------*- C++ -*----------------------------------*\
| =========                 |                                                 |
| \\      /  F ield         | OpenFOAM: The Open Source CFD Toolbox           |
|  \\    /   O peration     | Version:  v1912                                 |
|   \\  /    A nd           | Website:  www.openfoam.com                      |
|    \\/     M anipulation  |                                                 |
\*---------------------------------------------------------------------------*/
FoamFile
{
    version     2.0;
    format      ascii;
    class       volScalarField;
    location    "32";
    object      epsilon;
}
// * * * * * * * * * * * * * * * * * * * * * * * * * * * * * * * * * * * * * //

dimensions      [0 2 -3 0 0 0 0];


internalField   nonuniform List<scalar> 
20320
(
4.44141e-05
0.00021435
0.000220192
0.000225969
0.000231637
0.000237147
0.000242443
0.000247455
0.000252101
0.000256285
0.000259899
0.000262825
0.00026493
0.000266064
0.000266054
0.00026466
0.000261478
0.000255617
0.000247144
0.000274106
4.40131e-05
4.39258e-05
4.46694e-05
4.64404e-05
4.9769e-05
5.53265e-05
6.39292e-05
7.6619e-05
9.47621e-05
0.000120094
0.000154764
0.000201411
0.000263208
0.000343841
0.000447308
0.000577027
0.000733803
0.000908643
0.00107162
0.00118778
4.44235e-05
4.49248e-05
4.61382e-05
4.81824e-05
5.14991e-05
5.67016e-05
6.46902e-05
7.67994e-05
9.50182e-05
0.000122258
0.000162636
0.000221714
0.000306606
0.000425874
0.000588957
0.000804238
0.00107329
0.00137588
0.00164929
0.00189366
4.50106e-05
4.65111e-05
4.8803e-05
5.19408e-05
5.63924e-05
6.27996e-05
7.20998e-05
8.57057e-05
0.000105818
0.000135862
0.000181047
0.00024896
0.000349906
0.000496767
0.00070417
0.000985884
0.00134677
0.00176134
0.00214597
0.00261034
4.57373e-05
4.85737e-05
5.2315e-05
5.69494e-05
6.29696e-05
7.10481e-05
8.21695e-05
9.78267e-05
0.000120354
0.000153444
0.000202951
0.000277929
0.000391529
0.000561033
0.000806318
0.00114579
0.00158629
0.00209803
0.0025866
0.00333136
4.65819e-05
5.10973e-05
5.66978e-05
6.33043e-05
7.14243e-05
8.1755e-05
9.53212e-05
0.000113683
0.000139275
0.000175952
0.0002299
0.000311068
0.000434792
0.000622701
0.000900973
0.00129368
0.00180842
0.00240833
0.00299145
0.00404561
4.75162e-05
5.40223e-05
6.18864e-05
7.09678e-05
8.17768e-05
9.50165e-05
0.000111735
0.00013355
0.000162988
0.000204031
0.000263075
0.000350593
0.000483399
0.000686793
0.000993679
0.00143561
0.0020217
0.0027054
0.00337624
0.00475711
4.85057e-05
5.72675e-05
6.77758e-05
7.98444e-05
9.39785e-05
0.000110867
0.000131558
0.000157709
0.000191929
0.000238318
0.000303441
0.000398127
0.000540196
0.000757829
0.00109033
0.0015781
0.0022338
0.00300065
0.0037573
0.00547877
4.95082e-05
6.07186e-05
7.41916e-05
8.97291e-05
0.000107838
0.000129181
0.000154784
0.000186325
0.000226485
0.000279471
0.000352005
0.000455212
0.000607673
0.000839843
0.0011968
0.00172836
0.00245286
0.0033038
0.00414612
0.00622275
5.04748e-05
6.42237e-05
8.08745e-05
0.000100277
0.000122971
0.000149603
0.000181171
0.000219364
0.000266922
0.00032815
0.000409921
0.000523646
0.000688573
0.000937078
0.00131944
0.0018951
0.00268995
0.00362891
0.00455963
0.00700414
5.13515e-05
6.75954e-05
8.74783e-05
0.00011099
0.00013877
0.000171498
0.00021017
0.000256504
0.000313303
0.000384968
0.00047852
0.000605672
0.000786349
0.00105472
0.00146592
0.00208915
0.00295942
0.00399422
0.00501941
0.00783669
5.20839e-05
7.06209e-05
9.35852e-05
0.000121226
0.000154398
0.000193915
0.000240859
0.000297043
0.000365384
0.000450408
0.000559299
0.000704117
0.000905566
0.00119969
0.00164652
0.00232531
0.0032818
0.00442658
0.00555671
0.00875464
5.26231e-05
7.30846e-05
9.87465e-05
0.000130255
0.000168836
0.000215611
0.000271917
0.000339823
0.000422498
0.000524698
0.000653864
0.00082252
0.00105237
0.0013817
0.00187591
0.00262523
0.00368784
0.0049667
0.00621829
0.00982444
5.2932e-05
7.47956e-05
0.000102539
0.00013734
0.000180976
0.000235116
0.000301626
0.000383134
0.000483352
0.000607549
0.000763681
0.000965039
0.00123483
0.00161438
0.00217581
0.00302245
0.00422782
0.00568506
0.00708767
0.0111241
5.29918e-05
7.56188e-05
0.000104633
0.000141843
0.000189757
0.000250867
0.000327955
0.000424674
0.000545824
0.00069777
0.000889602
0.0011361
0.00146304
0.00191662
0.00257862
0.00357032
0.0049863
0.00670673
0.00832231
0.0128241
5.28051e-05
7.54998e-05
0.000104856
0.000143346
0.000194335
0.000261413
0.000348725
0.000461602
0.000606781
0.000792776
0.00103106
0.00133947
0.00174864
0.00231352
0.00313244
0.00435624
0.00611558
0.00827551
0.010239
0.0152484
5.23954e-05
7.44761e-05
0.000103224
0.00014173
0.000194243
0.000265643
0.00036188
0.000490714
0.000661992
0.000888019
0.00118486
0.00157638
0.00210265
0.00283549
0.00390517
0.00552117
0.00789543
0.0109017
0.0135813
0.0192518
5.18032e-05
7.26694e-05
9.99441e-05
0.000137207
0.000189493
0.000263013
0.000365816
0.000508809
0.000706283
0.00097654
0.00134358
0.00184231
0.00253044
0.00351202
0.0049819
0.00727957
0.0108405
0.0157318
0.0203791
0.0274054
5.10793e-05
7.02635e-05
9.53734e-05
0.000130284
0.0001806
0.000253698
0.000359755
0.000513263
0.000734151
0.00104914
0.00149445
0.00212316
0.00302316
0.00435629
0.00644206
0.0099065
0.0158142
0.0253322
0.0369295
0.0503107
5.02772e-05
6.74707e-05
8.99499e-05
0.000121667
0.000168492
0.000238611
0.000344008
0.000502686
0.000740811
0.00109548
0.0016194
0.00239197
0.00354678
0.00533721
0.00829578
0.0136084
0.0238935
0.0445943
0.0833961
0.158278
0.833177
2.13163
2.9048
3.45965
3.98852
4.39274
4.38274
3.60987
2.326
11.1903
64.8787
170.61
314.892
475.768
572.186
601.244
800.166
1170.44
1762.69
2831.07
4596.18
4831.89
2693.33
1475.53
945.043
667.886
501.104
391.205
314.314
258.281
216.242
183.952
158.673
138.596
122.403
109.091
97.9842
88.602
80.6105
73.7566
67.8412
62.7184
58.2664
54.3847
50.9987
48.0382
45.4441
43.1632
41.1483
39.3567
37.7509
36.297
34.9808
33.7926
32.7161
31.7244
30.7667
29.851
29.1047
28.6001
1.52336
0.855553
1.02827
1.20472
1.3808
1.54989
1.67404
1.73696
2.00029
5.08262
31.7191
100.919
258.842
444.264
645.822
413.966
500.098
783.047
1292.9
2309.41
4639.44
4999.04
1366.63
729.246
466.531
329.684
247.476
193.317
155.322
127.45
106.334
89.95
76.9959
66.598
58.1393
51.1696
45.3598
40.4675
36.3128
32.7592
29.7018
27.0594
24.7667
22.7709
21.0285
19.5035
18.1652
16.9873
15.9466
15.0227
14.198
13.4584
12.7912
12.1851
11.6291
11.115
10.6485
10.2429
9.88964
9.5869
2.21056
1.00159
1.05017
1.1799
1.32893
1.48481
1.6324
1.7876
2.18522
3.81835
12.1244
32.7051
97.5077
189.207
394.197
479.063
565.453
906.234
1574.22
2883.07
5851.28
2641.3
1066.53
582.572
381.56
275.584
210.733
167.279
136.371
113.415
95.802
81.9546
70.8583
61.8264
54.3769
48.1611
42.9227
38.4703
34.6588
31.3758
28.5345
26.0656
23.9133
22.032
20.3834
18.9356
17.6609
16.5351
15.5369
14.6473
13.8497
13.1305
12.4788
11.8861
11.3454
10.852
10.4043
10.0034
9.65234
9.35431
2.95264
1.25016
1.24501
1.35776
1.50589
1.67402
1.8507
2.05699
2.47582
3.59957
7.49968
17.1919
48.4269
112.927
228.789
350.325
512.573
889.946
1668.42
2964.76
2743
1347.77
684.467
410.062
283.718
213.724
169.085
138.187
115.628
98.4388
84.8932
73.9552
64.9702
57.4953
51.2107
45.8817
41.3292
37.4145
34.0297
31.0894
28.5254
26.2829
24.3172
22.5906
21.0712
19.7314
18.5468
17.4959
16.5587
15.7171
14.9556
14.2616
13.6266
13.0451
12.5134
12.0273
11.5847
11.1881
10.8426
10.5491
3.76805
1.54767
1.52634
1.64171
1.80324
1.99622
2.21016
2.45993
2.8858
3.76145
6.42011
13.691
39.871
112.294
223.047
290.61
431.041
797.265
1623.22
2150.41
1282.37
723.385
419.284
271.823
197.76
155.032
127.117
107.518
92.9434
81.497
72.1326
64.2877
57.6332
51.9473
47.0645
42.8482
39.19
36.0013
33.2101
30.7582
28.5988
26.6936
25.0105
23.5218
22.2028
21.0318
19.9889
19.0554
18.2137
17.4471
16.7413
16.0861
15.4767
14.9122
14.3929
13.9162
13.4795
13.0885
12.7496
12.4612
4.74481
1.89312
1.88241
2.02414
2.21447
2.4428
2.70336
3.00044
3.43998
4.21911
6.43932
13.1876
39.3786
135.225
290.993
309.612
446.956
871.609
1774.61
1286.67
760.083
444.833
272.509
184.217
138.025
111.115
93.8169
81.8892
73.0015
65.8816
59.8999
54.7553
50.2858
46.3835
42.9656
39.9616
37.3057
34.9437
32.8341
30.9466
29.2568
27.745
26.3928
25.1815
24.0942
23.1154
22.2306
21.4249
20.6832
19.9907
19.3351
18.71
18.1159
17.5583
17.0426
16.5676
16.1276
15.7313
15.3877
15.0922
5.83505
2.30289
2.31495
2.51267
2.75814
3.03737
3.35552
3.7136
4.18786
4.99753
7.1741
14.0363
38.6929
153.37
265.253
328.96
583.167
1395.78
1890.21
1004.35
545.9
311.097
192.022
132.062
100.807
83.0504
71.7799
64.038
58.4091
54.0703
50.51
47.5001
44.8962
42.6071
40.5668
38.7258
37.0369
35.4595
33.9866
32.6268
31.3773
30.2334
29.1906
28.2339
27.351
26.5337
25.7735
25.0599
24.3814
23.7235
23.078
22.4448
21.8311
21.2502
20.7143
20.2181
19.747
19.3224
18.9464
18.6077
6.72286
2.77594
2.83052
3.1229
3.46282
3.82144
4.21489
4.65611
5.21157
6.17767
8.64347
16.188
37.7723
119.291
224.898
387.791
899.202
2459.02
1745.92
813.354
411.405
228.498
142.04
100.044
78.8793
67.4449
58.7906
53.0637
49.1792
46.3776
44.3719
42.789
41.4837
40.3506
39.3225
38.369
37.4959
36.7057
35.9789
35.283
34.6012
33.9108
33.1873
32.4542
31.7299
31.0111
30.2967
29.5895
28.8921
28.2217
27.5804
26.971
26.4023
25.8642
25.3548
24.8649
24.352
23.9171
23.5717
23.2106
7.54362
3.30514
3.44578
3.87657
4.35996
4.84475
5.34795
5.90576
6.62168
7.88693
11.0766
20.2863
41.433
101.716
224.255
533.677
1521.86
3344.51
1337.88
600.777
299.421
168.282
108.36
80.4023
67.075
57.8935
51.0444
46.4012
43.3532
41.4081
40.126
39.1896
38.4597
37.8405
37.2732
36.7374
36.2374
35.7689
35.3361
34.9379
34.545
34.1241
33.6652
33.1638
32.6225
32.0527
31.4647
30.8704
30.2899
29.7386
29.2317
28.7797
28.3756
28.0086
27.679
27.3573
27.0515
26.8845
26.833
26.7696
8.72643
3.90028
4.17547
4.80258
5.49607
6.17261
6.83939
7.56104
8.5243
10.3079
14.871
27.935
51.7545
111.335
275.675
795.028
2591.44
2155.53
899.869
414.136
213.128
125.597
86.404
69.4113
59.9904
51.8371
45.7929
41.7021
39.009
37.371
36.4436
35.8705
35.4731
35.1495
34.8412
34.528
34.2086
33.8721
33.5256
33.1871
32.8531
32.515
32.1723
31.8062
31.4064
30.9823
30.5464
30.1127
29.6981
29.3114
28.965
28.666
28.4095
28.2021
28.0521
27.9394
27.8764
27.9049
27.9267
27.8897
10.3035
4.57505
5.02582
5.92871
6.93103
7.89539
8.80638
9.75878
11.0568
13.6032
20.2149
42.3495
68.9027
150.787
385.961
1168.3
3208.63
1315.48
586.173
283.779
154.322
97.5625
73.4051
63.6092
54.9889
47.3002
41.3968
37.3694
34.7811
33.2557
32.4865
32.1432
32.0037
31.9335
31.8562
31.7407
31.5792
31.3636
31.1001
30.8109
30.5126
30.2188
29.9365
29.6529
29.3581
29.0564
28.757
28.4699
28.203
27.9581
27.7402
27.5541
27.4068
27.3194
27.304
27.3449
27.429
27.5276
27.5502
27.5091
11.9138
5.33315
6.00259
7.28092
8.72975
10.1347
11.4232
12.7086
14.4395
17.8945
27.0464
46.7891
92.4557
224.361
586.953
1704.37
1970.78
849.071
395.084
201.025
116.401
80.2879
66.9584
59.2261
50.7185
43.1963
37.298
33.1381
30.4534
28.8973
28.1584
27.9324
27.978
28.1277
28.2768
28.3727
28.3955
28.3373
28.2041
28.0175
27.803
27.5844
27.3749
27.1718
26.9714
26.7768
26.5933
26.4247
26.2715
26.1307
26.0029
25.8944
25.8227
25.8142
25.8792
25.9966
26.1298
26.2269
26.2369
26.1994
13.4074
6.16565
7.11059
8.88355
10.963
13.0353
14.9228
16.722
19.063
23.5928
34.3945
59.7116
128.682
348.822
953.992
2988.99
1352.32
587.524
279.236
148.175
92.2166
70.5291
63.0115
54.9517
46.6561
39.2392
33.3212
29.0293
26.1914
24.5208
23.7224
23.5139
23.654
23.9566
24.293
24.5873
24.8031
24.9263
24.9601
24.9227
24.8399
24.7371
24.6309
24.5265
24.4259
24.3322
24.2478
24.1726
24.1032
24.0351
23.9691
23.9156
23.8962
23.9337
24.0316
24.1644
24.2896
24.3626
24.366
24.3458
14.7307
7.06423
8.35918
10.7642
13.7118
16.7794
19.63
22.2687
25.5478
31.8478
45.8231
79.4319
192.517
567.774
1622.05
2322.11
954.279
417.643
202.734
113.052
77.1256
65.9665
58.9962
50.7799
42.5382
35.2428
29.3841
25.0591
22.1298
20.3543
19.4685
19.2169
19.3727
19.749
20.2061
20.6518
21.0342
21.33
21.5357
21.6635
21.7341
21.7696
21.7866
21.794
21.7969
21.7986
21.8
21.7995
21.7933
21.7786
21.759
21.7474
21.7639
21.8244
21.9255
22.042
22.1388
22.1899
22.1992
22.2065
16.0975
8.04105
9.77155
12.966
17.0884
21.625
26.0183
30.0691
34.8278
44.1182
65.8817
121.735
312.416
984.79
3035.74
1683.45
672.554
298.216
149.479
89.5444
68.5842
62.4677
54.7803
46.3745
38.2492
31.1612
25.4787
21.2504
18.3406
16.5315
15.5869
15.28
15.4065
15.7925
16.3013
16.8354
17.334
17.7651
18.1173
18.3951
18.6116
18.783
18.9228
19.0404
19.1414
19.2288
19.3034
19.3638
19.408
19.4364
19.4551
19.4771
19.5182
19.587
19.6774
19.7694
19.8413
19.8837
19.9105
19.9494
17.8684
9.17139
11.3947
15.5673
21.267
27.9383
34.8025
41.2825
48.4199
62.1171
98.2229
194.524
521.119
1780.35
3326.79
1174.55
469.717
213.25
112.438
74.4791
64.6894
58.5628
50.3569
41.8015
33.8481
27.0568
21.6604
17.6479
14.8687
13.1149
12.1694
11.8296
11.9156
12.2738
12.7804
13.3434
13.9009
14.4158
14.8705
15.2618
15.5947
15.8788
16.1231
16.3348
16.5186
16.6772
16.8114
16.9212
17.007
17.0719
17.1233
17.1725
17.2303
17.301
17.3792
17.4527
17.5124
17.5601
17.611
17.6804
20.516
10.6065
13.3323
18.7121
26.4977
36.2497
47.086
57.8445
69.1543
88.2696
146.973
307.83
808.071
2624.15
2280.91
786.173
325.062
153.767
87.3982
65.8337
61.5329
54.4357
45.7527
37.1425
29.4415
23.0293
18.0094
14.3064
11.749
10.1298
9.24403
8.90756
8.96254
9.27797
9.7488
10.2951
10.8603
11.4072
11.9148
12.3736
12.7823
13.1439
13.463
13.7435
13.9884
14.1998
14.379
14.5271
14.6466
14.7418
14.8203
14.8909
14.9608
15.0327
15.104
15.1703
15.2311
15.2935
15.3702
15.4655
24.9876
12.5234
15.8407
22.6766
33.1903
47.4948
64.6487
82.9285
102.4
129.643
207.065
474.597
1133.04
3456.22
1280.15
514.709
226.869
113.004
71.2729
62.181
57.973
49.9252
40.9433
32.4551
25.1232
19.1742
14.6032
11.278
9.00704
7.58118
6.80334
6.50377
6.5442
6.81561
7.23346
7.73319
8.26728
8.80252
9.3171
9.79847
10.2406
10.6416
11.0018
11.3223
11.6043
11.8491
12.0579
12.2329
12.3773
12.496
12.5954
12.6824
12.7624
12.838
12.91
12.9796
13.051
13.1325
13.2331
13.3489
31.7018
15.1383
19.2672
28.0591
42.2838
63.3611
90.6177
121.765
157.401
201.428
301.178
624.178
1616.4
2100.23
836.363
355.799
161.693
85.4116
61.8196
59.9302
53.7357
45.0108
35.9971
27.8239
20.9821
15.5727
11.5051
8.60301
6.65851
5.46138
4.82114
4.58064
4.62002
4.85112
5.20905
5.64515
6.1226
6.61399
7.09957
7.56586
8.00428
8.40988
8.77995
9.1132
9.40933
9.66871
9.89247
10.0828
10.2431
10.3777
10.4921
10.5916
10.6809
10.7636
10.8429
10.923
11.0099
11.1111
11.2321
11.3631
40.3694
18.6229
23.9787
35.684
55.5415
86.9139
131.04
183.462
249.953
333.068
462.168
819.063
2157.13
1435.35
596.659
254.053
116.083
67.1066
57.5727
56.5442
49.1691
39.9914
31.0959
23.3684
17.1079
12.2938
8.7636
6.30781
4.7073
3.75256
3.26043
3.08742
3.13218
3.32635
3.62293
3.98768
4.39414
4.82152
5.25336
5.67717
6.08369
6.46641
6.8209
7.14434
7.43522
7.69306
7.91864
8.11363
8.28102
8.4245
8.54853
8.6576
8.75615
8.8484
8.93893
9.03296
9.13668
9.25596
9.3933
9.53486
51.7546
23.0508
30.2857
46.3323
75.3681
124.235
196.143
284.052
405.414
578.244
850.013
1502.57
3235.68
1146.75
439.971
177.988
83.1467
55.8853
56.0379
52.7316
44.3487
34.9769
26.369
19.194
13.5778
9.38986
6.4099
4.40327
3.14456
2.4269
2.07676
1.96736
2.01693
2.17569
2.41216
2.70416
3.03426
3.38771
3.75201
4.11657
4.47282
4.81397
5.13492
5.43204
5.703
5.94676
6.16341
6.35418
6.52126
6.66766
6.797
6.9132
7.02045
7.12313
7.22603
7.33437
7.45351
7.58784
7.73754
7.88551
66.4547
28.5024
38.1646
60.1355
102.066
183.553
269.258
411.895
630.472
973.105
1591.69
3129.25
2650.61
840.658
298.322
117.62
60.6644
50.4397
53.894
48.3281
39.3081
30.0251
21.8967
15.3769
10.4481
6.89584
4.45853
2.88591
1.94976
1.44813
1.22131
1.16304
1.21224
1.33602
1.51556
1.738
1.99294
2.27088
2.56295
2.86095
3.15765
3.4469
3.72364
3.98407
4.22554
4.44649
4.64657
4.82637
4.98739
5.13198
5.26305
5.38394
5.4984
5.61049
5.72453
5.84512
5.97664
6.12208
6.27979
6.43007
79.6418
34.7362
47.1376
76.3064
133.19
207.573
283.441
426.338
675.546
1158.26
2216.27
5268.99
1523.5
498.083
177.712
74.8986
47.3989
49.6503
50.8836
43.6276
34.2022
25.2426
17.7559
11.9712
7.75157
4.82472
2.90585
1.7372
1.09054
0.772238
0.642039
0.618354
0.660718
0.750339
0.877993
1.03738
1.22331
1.43019
1.6523
1.88378
2.11903
2.35296
2.58114
2.79998
3.00682
3.19994
3.37855
3.54275
3.69353
3.83254
3.96207
4.08482
4.20389
4.32269
4.44481
4.57395
4.71349
4.86533
5.02617
5.17449
90.4853
40.9462
56.3636
91.6912
137.994
189.274
258.322
379.15
588.863
965.967
1682.08
1590.4
661.342
250.322
99.0619
49.6771
41.4359
49.6665
47.0783
38.5891
29.1504
20.7431
14.0193
9.01454
5.50064
3.17109
1.733
0.927114
0.525736
0.348749
0.285194
0.280219
0.311059
0.36927
0.451836
0.556948
0.683196
0.827381
0.986527
1.15669
1.3339
1.51429
1.69432
1.87092
2.04164
2.20477
2.35936
2.50515
2.64263
2.77293
2.89767
3.01893
3.13907
3.26068
3.38656
3.51952
3.662
3.81488
3.97359
4.11568
86.3208
46.0988
65.181
92.0059
125.642
168.905
232.417
336.979
501.207
742.749
1010.52
620.976
292.229
126.496
57.5243
37.1192
40.7994
48.1166
42.6882
33.4809
24.3261
16.6353
10.7421
6.52393
3.68815
1.91233
0.914345
0.415603
0.199353
0.118559
0.0949247
0.097149
0.115464
0.147797
0.194462
0.256146
0.333161
0.424999
0.530412
0.647536
0.773378
0.905443
1.04098
1.17761
1.31332
1.44654
1.57628
1.70209
1.82409
1.94295
2.05973
2.17587
2.29303
2.41305
2.53792
2.66961
2.80972
2.95824
3.10963
3.2415
79.5268
48.7282
66.0021
85.8591
112.631
152.478
213.175
306.859
441.54
610.404
560.308
304.651
150.364
69.8687
37.2965
32.308
43.4072
45.2279
37.8904
28.4707
19.8625
12.9951
7.95217
4.49436
2.28971
1.03456
0.402875
0.1365
0.0474882
0.0233436
0.018506
0.0208157
0.0282864
0.0416572
0.0624755
0.0923746
0.132665
0.184071
0.246638
0.31977
0.402287
0.492696
0.589367
0.690176
0.793676
0.898576
1.00392
1.10921
1.21434
1.31959
1.42559
1.53323
1.64355
1.75778
1.87716
2.00292
2.13586
2.27516
2.41471
2.53323
60.6198
47.4404
61.6927
78.113
101.8
140.269
199.422
288.405
410.027
494.856
330.327
175.046
86.0075
42.0879
27.9939
32.2617
44.5473
41.5009
32.8986
23.692
15.8366
9.85356
5.64517
2.89913
1.29723
0.475108
0.127421
0.0234463
0.00442887
0.0017847
0.00152492
0.00203194
0.00342536
0.00639073
0.012086
0.0220286
0.0378329
0.0609003
0.0921854
0.132106
0.180554
0.236992
0.300607
0.370415
0.445353
0.524587
0.607031
0.692218
0.779939
0.870241
0.963408
1.05992
1.16039
1.26545
1.3758
1.49198
1.61402
1.74039
1.86481
1.96798
38.6245
42.8283
56.2429
70.0386
92.0624
130.219
189.93
285.63
390.447
373.554
207.812
106.772
51.4818
27.8101
24.72
35.3837
42.9119
36.8901
27.8424
19.2402
12.2855
7.20733
3.79292
1.73056
0.641977
0.162738
0.0200325
0.00120057
0.000198205
0.000116128
0.000111434
0.000140789
0.000229383
0.000467726
0.00109365
0.00263896
0.00605895
0.012678
0.0239242
0.0410138
0.0647474
0.0954801
0.133192
0.177584
0.228198
0.284512
0.346029
0.41234
0.483072
0.558082
0.637428
0.721296
0.809966
0.903705
1.00269
1.1069
1.21572
1.32693
1.43433
1.5213
33.2709
36.0323
49.6787
61.8131
82.41
120.236
187.673
291.016
365.685
249.979
132.744
65.3168
31.6485
21.0239
25.1774
39.527
39.7375
31.9504
23.0155
15.2213
9.22705
5.03314
2.3786
0.928129
0.252273
0.0307031
0.000916537
9.36666e-05
6.32527e-05
5.7711e-05
5.54843e-05
5.50109e-05
5.74771e-05
6.72197e-05
9.76653e-05
0.000190835
0.000473661
0.00128316
0.00333305
0.00775096
0.0158582
0.0288364
0.047512
0.0723311
0.103428
0.140722
0.184023
0.233104
0.287749
0.347844
0.41336
0.484117
0.560208
0.641557
0.728027
0.819112
0.913603
1.00878
1.09856
1.16933
39.8198
28.4522
41.0982
53.5564
74.0898
115.195
195.459
292.839
298.105
164.088
83.3
39.3278
20.7748
18.8286
28.2556
39.5688
35.5796
27.0202
18.576
11.6983
6.65984
3.30041
1.36879
0.417819
0.0636248
0.00187196
8.99859e-05
6.24947e-05
5.8713e-05
5.63537e-05
5.42752e-05
5.24246e-05
5.08927e-05
4.99109e-05
5.01717e-05
5.37216e-05
6.70143e-05
0.000111602
0.000259386
0.000730014
0.0020699
0.00528757
0.0117044
0.0225835
0.0388389
0.0609858
0.0892284
0.123581
0.163962
0.210262
0.262385
0.320211
0.383621
0.452343
0.52598
0.603551
0.683508
0.762625
0.83495
0.889595
52.386
24.036
33.767
46.7862
69.6128
118.318
209.818
285.773
200.75
105.512
50.6636
23.7298
15.7129
19.6044
33.2215
37.5348
30.9069
22.2684
14.5941
8.68763
4.56488
2.01077
0.688273
0.136797
0.00656986
0.000117213
6.3616e-05
6.05081e-05
5.88053e-05
5.70603e-05
5.52668e-05
5.3498e-05
5.18148e-05
5.02663e-05
4.89301e-05
4.79277e-05
4.76335e-05
4.92417e-05
5.66706e-05
8.37172e-05
0.000180696
0.000521741
0.00160962
0.00449736
0.0106525
0.021426
0.0376877
0.0598463
0.0880254
0.122196
0.162253
0.208028
0.259262
0.315566
0.37627
0.440266
0.505612
0.568813
0.623798
0.660873
60.3164
24.4177
31.1903
44.3852
72.6929
136.316
236.209
247.032
134.446
66.1948
29.8153
15.2863
14.3356
22.4862
36.0082
33.7334
25.9455
17.8182
11.0998
6.17631
2.91391
1.10291
0.274365
0.0235801
0.000269771
6.32944e-05
5.96897e-05
5.90287e-05
5.81955e-05
5.71185e-05
5.5848e-05
5.44547e-05
5.30017e-05
5.15456e-05
5.01493e-05
4.88554e-05
4.77375e-05
4.68942e-05
4.65752e-05
4.76835e-05
5.34687e-05
7.65107e-05
0.000168281
0.000530223
0.0018006
0.00531808
0.0127198
0.0251742
0.0432206
0.0670044
0.0964623
0.131385
0.171419
0.216008
0.264283
0.314869
0.365532
0.412489
0.449008
0.462456
55.4773
29.2062
33.6729
49.7746
91.2147
179.464
271.333
178.442
88.1284
39.1973
17.2018
11.5592
15.3694
27.0586
34.8049
29.4129
21.2407
13.8401
8.12346
4.14149
1.71154
0.50999
0.0699101
0.00130459
6.54451e-05
5.62348e-05
5.62106e-05
5.63367e-05
5.62911e-05
5.5989e-05
5.54306e-05
5.4646e-05
5.36708e-05
5.25605e-05
5.13827e-05
5.01908e-05
4.90528e-05
4.80066e-05
4.71187e-05
4.65211e-05
4.64836e-05
4.79947e-05
5.52143e-05
8.67739e-05
0.000228902
0.000840498
0.00297596
0.00833959
0.0183003
0.0334378
0.0538216
0.0792406
0.109254
0.14314
0.179798
0.217552
0.253817
0.284377
0.301672
0.289769
50.5499
34.3926
42.023
66.2339
131.726
265.477
243.869
118.493
51.8137
20.9191
10.5672
10.8692
18.2192
32.2455
31.4566
24.4381
16.7765
10.3651
5.65934
2.55906
0.883871
0.173117
0.00721459
8.86865e-05
5.25784e-05
5.21035e-05
5.24478e-05
5.2907e-05
5.33212e-05
5.36225e-05
5.37454e-05
5.36537e-05
5.33288e-05
5.27938e-05
5.20805e-05
5.12225e-05
5.02896e-05
4.93377e-05
4.84407e-05
4.76667e-05
4.70898e-05
4.68861e-05
4.7501e-05
5.07068e-05
6.51413e-05
0.000134783
0.000472844
0.00186527
0.00591394
0.014074
0.0268765
0.0442052
0.0655652
0.090095
0.116467
0.142702
0.165851
0.181387
0.181865
0.15349
47.0107
33.3848
50.0626
92.226
184.634
300.21
153.646
65.2934
25.0906
10.5342
8.16162
12.2258
22.7791
31.5415
26.9898
19.6523
12.8114
7.43819
3.68729
1.42988
0.366587
0.0314841
0.000259524
5.13811e-05
4.90949e-05
4.90117e-05
4.92159e-05
4.95852e-05
5.00592e-05
5.05766e-05
5.10749e-05
5.14933e-05
5.17688e-05
5.18656e-05
5.17516e-05
5.14305e-05
5.09507e-05
5.03366e-05
4.96414e-05
4.89443e-05
4.83339e-05
4.79048e-05
4.77766e-05
4.82498e-05
5.03082e-05
5.85955e-05
9.81863e-05
0.00030076
0.00122528
0.00424869
0.0108117
0.0213483
0.0354648
0.0522413
0.0702191
0.0872472
0.100227
0.104773
0.0948931
0.0635728
43.5469
30.284
51.1183
107.947
224.074
170.301
71.7583
27.0418
10.3716
6.47253
8.39961
15.1616
27.9319
28.4159
22.3819
15.3991
9.45921
5.06072
2.18062
0.67863
0.0996143
0.00177978
5.57415e-05
4.74779e-05
4.70871e-05
4.69141e-05
4.68919e-05
4.70273e-05
4.73065e-05
4.77078e-05
4.82019e-05
4.87498e-05
4.92999e-05
4.98059e-05
5.02099e-05
5.04714e-05
5.05633e-05
5.04593e-05
5.01982e-05
4.98378e-05
4.94248e-05
4.90384e-05
4.8803e-05
4.88606e-05
4.94191e-05
5.11282e-05
5.66453e-05
8.00197e-05
0.000197673
0.00076311
0.00280737
0.00763609
0.0156221
0.0260922
0.0376706
0.0483203
0.0552605
0.0549596
0.0437099
0.0207773
40.6037
30.2197
58.0893
141.235
149.676
64.4964
24.5397
9.27127
5.20881
5.99207
10.2645
19.6615
27.8139
24.4582
17.9729
11.6646
6.66698
3.18287
1.13647
0.239694
0.0112369
8.71269e-05
4.61556e-05
4.5547e-05
4.54379e-05
4.53521e-05
4.52993e-05
4.52979e-05
4.53778e-05
4.55582e-05
4.58462e-05
4.62386e-05
4.67232e-05
4.72806e-05
4.787e-05
4.84469e-05
4.8965e-05
4.93783e-05
4.96624e-05
4.97959e-05
4.97931e-05
4.97218e-05
4.96534e-05
4.96743e-05
4.99471e-05
5.06967e-05
5.23372e-05
5.63514e-05
6.96117e-05
0.000128553
0.000407314
0.00149524
0.00435873
0.00937193
0.0157901
0.0220447
0.0260388
0.0255074
0.0189111
0.00754514
49.8313
44.0039
96.8701
133.903
53.0317
19.7533
7.56652
4.13938
4.44025
7.22059
13.4082
24.8255
25.4033
20.1988
13.8902
8.42997
4.38435
1.76873
0.475981
0.0462415
0.000353607
4.64301e-05
4.41869e-05
4.39903e-05
4.39312e-05
4.39406e-05
4.39825e-05
4.40332e-05
4.40888e-05
4.4163e-05
4.42805e-05
4.44653e-05
4.47356e-05
4.51014e-05
4.55612e-05
4.61083e-05
4.67224e-05
4.7364e-05
4.7989e-05
4.85574e-05
4.90434e-05
4.94311e-05
4.97301e-05
5.00052e-05
5.03466e-05
5.08803e-05
5.18309e-05
5.35066e-05
5.66867e-05
6.40689e-05
8.7977e-05
0.000183481
0.00054943
0.00160147
0.00359048
0.00602886
0.0077491
0.00747955
0.00478859
0.00136895
105.316
150.814
107.414
39.8718
14.2779
5.65207
3.21855
3.3629
5.3445
9.54521
18.0166
24.853
21.7373
15.9289
10.2274
5.7113
2.59329
0.828807
0.13114
0.00271569
5.35625e-05
4.35017e-05
4.30986e-05
4.28864e-05
4.27602e-05
4.27219e-05
4.27662e-05
4.2868e-05
4.29958e-05
4.31249e-05
4.32431e-05
4.33581e-05
4.34906e-05
4.36681e-05
4.39153e-05
4.42515e-05
4.46858e-05
4.52182e-05
4.58431e-05
4.654e-05
4.72695e-05
4.79926e-05
4.86886e-05
4.93465e-05
4.99707e-05
5.06332e-05
5.1446e-05
5.25698e-05
5.42859e-05
5.70026e-05
6.16521e-05
7.09133e-05
9.41193e-05
0.000157893
0.000313466
0.000574704
0.000792058
0.000723002
0.00038503
0.000127461
34.5941
52.8264
18.9217
7.43614
3.59088
2.43007
2.61598
4.06897
7.26692
12.97
22.6574
22.2318
17.5601
11.9395
7.08323
3.54491
1.31864
0.289449
0.0155588
0.000108018
4.34251e-05
4.24001e-05
4.22113e-05
4.20745e-05
4.19632e-05
4.18852e-05
4.18574e-05
4.18928e-05
4.19903e-05
4.21354e-05
4.23051e-05
4.24777e-05
4.26386e-05
4.27864e-05
4.29342e-05
4.31066e-05
4.33323e-05
4.36367e-05
4.40402e-05
4.4554e-05
4.51826e-05
4.59202e-05
4.6743e-05
4.76169e-05
4.85215e-05
4.94424e-05
5.03868e-05
5.14316e-05
5.26891e-05
5.43667e-05
5.67172e-05
6.01393e-05
6.50987e-05
7.25087e-05
8.35108e-05
9.76993e-05
0.00011001
0.000111409
9.84367e-05
7.48264e-05
4.94468e-05
6.44999e-05
8.41196e-05
0.000112132
0.000154346
0.000219264
0.000320033
0.000477464
0.000723543
0.00110631
0.00169765
0.0026098
0.00403552
0.00634968
0.0103812
0.0181759
0.0351952
0.0772
0.199422
0.850681
4.86064e-05
6.15004e-05
7.82066e-05
0.000102276
0.000139158
0.000197148
0.000289708
0.000439212
0.000681935
0.00107549
0.00171067
0.00273451
0.00440415
0.00722492
0.012337
0.0226884
0.0467561
0.110287
0.295752
1.16687
4.77833e-05
5.85423e-05
7.23957e-05
9.25064e-05
0.00012373
0.000173674
0.000255197
0.00039062
0.00061793
0.00100067
0.00164396
0.00272416
0.00455362
0.00774167
0.0136392
0.0256707
0.0533425
0.122833
0.302956
0.756843
4.70064e-05
5.57391e-05
6.69248e-05
8.32848e-05
0.000108951
0.000150506
0.000219416
0.000336305
0.000537714
0.000887552
0.00149622
0.00255491
0.00440539
0.00770152
0.0138281
0.0260748
0.0528551
0.114901
0.254584
0.53487
4.62977e-05
5.31775e-05
6.19717e-05
7.49547e-05
9.55058e-05
0.000129029
0.000185121
0.000281463
0.000450317
0.000750073
0.00128516
0.00224142
0.00395385
0.00704985
0.0127863
0.0239072
0.0467579
0.0952894
0.193963
0.377243
4.56721e-05
5.09133e-05
5.76404e-05
6.77137e-05
8.38118e-05
0.000110183
0.00015442
0.00023068
0.00036522
0.000606559
0.00104347
0.00183704
0.00327981
0.00591062
0.0107553
0.0198663
0.0375012
0.0720899
0.137433
0.249905
4.51382e-05
4.89741e-05
5.39689e-05
6.16243e-05
7.40234e-05
9.44019e-05
0.000128508
0.000187041
0.000289886
0.000473996
0.000807466
0.00141471
0.00252196
0.00454035
0.00822158
0.0149605
0.0273695
0.0501408
0.0904765
0.156201
4.46987e-05
4.73643e-05
5.09445e-05
5.66474e-05
6.60878e-05
8.16945e-05
0.000107694
0.000151834
0.000228346
0.000363398
0.000604729
0.00103864
0.00182008
0.00322518
0.00574141
0.0102202
0.0181247
0.0318511
0.0548411
0.0907997
4.43535e-05
4.60713e-05
4.85165e-05
5.2672e-05
5.98158e-05
7.17778e-05
9.1631e-05
0.000124854
0.000181261
0.000278452
0.000447698
0.000743945
0.00126277
0.00216818
0.00373624
0.00641988
0.0109382
0.0183731
0.030178
0.0478883
4.41005e-05
4.5068e-05
4.65966e-05
4.95394e-05
5.49607e-05
6.42488e-05
7.96463e-05
0.000105028
0.000147078
0.000217294
0.000335368
0.000534655
0.000870653
0.00143323
0.00236191
0.00386279
0.00622751
0.00985174
0.0152247
0.0228281
4.39405e-05
4.43108e-05
4.50759e-05
4.7065e-05
5.11909e-05
5.85454e-05
7.08377e-05
9.08719e-05
0.000123151
0.000175001
0.000258494
0.000393345
0.000611356
0.000961858
0.00151448
0.00235505
0.00358428
0.00533789
0.00785542
0.0116829
4.41392e-05
4.38079e-05
4.41473e-05
4.60097e-05
5.0347e-05
5.82707e-05
7.15463e-05
9.31243e-05
0.000127675
0.000182994
0.00027293
0.000423226
0.000682765
0.00115376
0.00208144
0.00401034
0.00842938
0.0173893
0.0333916
0.0608449
0.000695378
0.000105381
0.000223241
0.000470074
0.000940865
0.00174219
0.00300559
0.00486139
0.00741664
0.0107936
0.0154296
0.0217927
0.0301359
0.0410616
0.0575347
0.0832441
0.120278
0.168337
0.224135
0.314973
0.177532
0.0617574
0.0651725
0.0652621
0.066077
0.0685783
0.0729107
0.0792586
0.0878866
0.0992711
0.113733
0.130336
0.145275
0.166939
0.226829
0.312542
0.42286
0.538143
0.622723
0.884168
0.033772
0.047342
0.064376
0.0826474
0.103439
0.124896
0.146191
0.167357
0.189619
0.214166
0.239408
0.254257
0.249427
0.274143
0.298255
0.321161
0.358454
0.401154
0.452284
0.580998
0.00991913
0.00854628
0.00951294
0.0142026
0.0209895
0.0293204
0.0387328
0.0487918
0.0592593
0.0700193
0.0806812
0.090563
0.102687
0.127664
0.144556
0.147898
0.144377
0.1389
0.140788
0.164723
0.00488372
0.00281692
0.00217662
0.00323488
0.005014
0.00731942
0.0100526
0.0131034
0.0163562
0.0197106
0.0231121
0.0267805
0.0319482
0.0399926
0.0469135
0.0492175
0.0470974
0.0424956
0.0383458
0.0371552
0.00257769
0.00096658
0.000467753
0.000730656
0.00121295
0.0018777
0.0026865
0.00360058
0.00457814
0.00558519
0.00661712
0.00774744
0.00917325
0.0109611
0.0124449
0.0127989
0.0118302
0.00996605
0.007904
0.00614225
0.00142703
0.000480928
0.000113358