/*--------------------------------*- C++ -*----------------------------------*\
| =========                 |                                                 |
| \\      /  F ield         | OpenFOAM: The Open Source CFD Toolbox           |
|  \\    /   O peration     | Version:  v1912                                 |
|   \\  /    A nd           | Website:  www.openfoam.com                      |
|    \\/     M anipulation  |                                                 |
\*---------------------------------------------------------------------------*/
FoamFile
{
    version     2.0;
    format      ascii;
    class       volScalarField;
    location    "32";
    object      k;
}
// * * * * * * * * * * * * * * * * * * * * * * * * * * * * * * * * * * * * * //

dimensions      [0 2 -2 0 0 0 0];


internalField   nonuniform List<scalar> 
20320
(
0.00413923
0.00425405
0.004331
0.00440643
0.00447981
0.00455057
0.00461807
0.0046815
0.00473992
0.00479222
0.00483716
0.00487339
0.00489938
0.00491336
0.00491323
0.00489605
0.00485673
0.00478387
0.00467752
0.00501114
0.00415079
0.00414916
0.00419436
0.00429069
0.00445894
0.00472023
0.0050924
0.00559095
0.00623065
0.00702439
0.00798261
0.00911414
0.0104258
0.0119204
0.0135922
0.0154108
0.0172941
0.0190071
0.0198878
0.0173936
0.00417737
0.00421766
0.00430417
0.00444365
0.00466147
0.00498914
0.00546669
0.00614317
0.00707631
0.00832869
0.00995995
0.0120156
0.0145148
0.0174393
0.0207224
0.0242269
0.0276852
0.030522
0.0313769
0.0263944
0.00421513
0.00431993
0.00447448
0.00468056
0.00496413
0.00535789
0.00590508
0.00666359
0.00771194
0.00915238
0.0111071
0.0137021
0.0170333
0.0211235
0.0258829
0.0310698
0.0362085
0.040342
0.0414014
0.0347182
0.00426143
0.00445081
0.00469381
0.00498696
0.00535602
0.00583328
0.00646213
0.00730248
0.00843865
0.00998817
0.0121092
0.0149973
0.0188515
0.0238007
0.0298028
0.0365468
0.0433358
0.0487966
0.0501902
0.0423442
0.00431466
0.00460782
0.00495994
0.00536232
0.00583971
0.00642337
0.0071559
0.00809714
0.00933262
0.0109843
0.0132246
0.0162891
0.0204621
0.0260036
0.0329948
0.04113
0.0494989
0.0562633
0.0580175
0.0492666
0.0043728
0.00478574
0.00526513
0.00579746
0.00640571
0.00711909
0.0079784
0.00904263
0.0103973
0.0121652
0.0145238
0.0177279
0.0221175
0.028069
0.035823
0.0451602
0.0550074
0.0630352
0.0651475
0.0556432
0.00443357
0.00497836
0.00559991
0.00628073
0.00704152
0.00790845
0.00891939
0.0101316
0.0116297
0.0135362
0.0160297
0.0193742
0.023943
0.030202
0.0385518
0.0489151
0.0601276
0.0693822
0.0718596
0.0616796
0.00449428
0.00517805
0.00595198
0.00679619
0.00772916
0.00877331
0.00996262
0.0113516
0.0130231
0.0150983
0.0177553
0.0212619
0.0260117
0.032536
0.0413783
0.0526293
0.0650983
0.0755362
0.0783718
0.0675612
0.00455203
0.00537577
0.00630613
0.00732338
0.00844459
0.00968853
0.0110846
0.0126838
0.0145663
0.0168506
0.0197127
0.0234214
0.0283831
0.0351772
0.0444692
0.0565244
0.0701764
0.081776
0.0849602
0.0734665
0.00460374
0.0055614
0.00664468
0.00783758
0.00915781
0.0106215
0.0122539
0.0141019
0.0162421
0.0187892
0.0219151
0.0258877
0.0311213
0.0382321
0.0479893
0.0608288
0.0756441
0.0884201
0.0919449
0.0795576
0.00464647
0.00572438
0.0069485
0.00831111
0.00983385
0.0115328
0.0134303
0.0155704
0.0180256
0.0209055
0.0243764
0.0287029
0.0343047
0.0418274
0.0521305
0.0658139
0.0818537
0.0958848
0.0997481
0.0861403
0.00467765
0.00585466
0.00719873
0.00871549
0.0104351
0.0123776
0.0145663
0.0170444
0.019882
0.0231837
0.0271087
0.0319169
0.0380319
0.0461259
0.057141
0.0718356
0.0892807
0.104744
0.108952
0.0937443
0.0046954
0.00594385
0.00737878
0.0090242
0.010924
0.0131085
0.0156071
0.0184681
0.0217632
0.0255945
0.0301156
0.0355817
0.0424222
0.0513383
0.0633565
0.0793979
0.0986371
0.115914
0.120519
0.102971
0.00469883
0.00598629
0.00747647
0.00921583
0.0112675
0.0136787
0.0164939
0.0197749
0.0236037
0.0280877
0.0333811
0.0397404
0.0476084
0.0577292
0.0712333
0.0892308
0.111017
0.130889
0.136126
0.114999
0.00468811
0.00597992
0.00748585
0.00927706
0.0114403
0.0140473
0.0171676
0.020889
0.0253181
0.0305833
0.0368544
0.0444055
0.0537155
0.065608
0.0813779
0.102415
0.128211
0.152328
0.158882
0.132002
0.00466449
0.00592663
0.00740817
0.00920486
0.0114295
0.0141843
0.0175748
0.0217298
0.0268011
0.0329622
0.0404281
0.0495242
0.0608131
0.0752787
0.0945263
0.120475
0.153124
0.185177
0.195338
0.159212
0.00463013
0.00583198
0.00725178
0.00900716
0.0112364
0.0140758
0.0176751
0.0222202
0.0279314
0.0350616
0.0439152
0.0549274
0.0688289
0.086914
0.111399
0.145343
0.190295
0.238934
0.260852
0.210604
0.00458775
0.00570434
0.00703094
0.00870201
0.0108777
0.0137274
0.0174496
0.0222984
0.0285859
0.0366826
0.0470393
0.060282
0.0774347
0.100334
0.132316
0.178805
0.245678
0.33043
0.392752
0.332511
0.0045403
0.00555372
0.00676369
0.00831498
0.0103831
0.0131654
0.0169064
0.0219323
0.0286616
0.0376152
0.049448
0.0650677
0.0859346
0.1147
0.156476
0.220899
0.323583
0.481375
0.671327
0.717428
0.601253
0.781453
0.960625
1.0793
1.1865
1.26516
1.26296
1.10979
0.827972
2.36995
7.62209
14.498
21.7995
28.7412
32.5454
33.62
40.6814
52.447
68.9693
94.7306
130.855
135.171
91.4169
61.1945
45.4621
36.0635
29.7736
25.2408
21.8125
19.1362
16.9987
15.2614
13.8293
12.6368
11.6325
10.7733
10.0292
9.37876
8.80623
8.29972
7.85011
7.44987
7.09291
6.77445
6.49026
6.23658
6.00998
5.8072
5.62511
5.46076
5.31127
5.17433
5.04865
4.93372
4.82867
4.73098
4.63592
4.54369
4.467
4.4145
0.901729
2.0535
2.57747
2.91299
3.16843
3.34344
3.36913
3.15814
2.70461
3.05022
8.93032
25.7015
55.6421
86.9567
122.525
103.697
117.8
155.534
210.813
294.772
448.419
453.093
206.351
139.272
104.523
83.4821
69.2522
58.9074
51.028
44.8342
39.8512
35.7693
32.3759
29.5175
27.0828
24.9873
23.1672
21.5747
20.1735
18.9361
17.8403
16.8683
16.0052
15.2391
14.5596
13.9572
13.423
12.9488
12.5262
12.1475
11.8053
11.4937
11.2096
10.9516
10.7171
10.5011
10.2959
10.1072
9.96317
9.87334
1.1594
2.70179
3.36038
3.79256
4.11282
4.33757
4.42163
4.29925
4.00163
4.12167
6.21326
14.5484
35.6253
60.7191
98.3458
127.471
150.641
201.532
282.63
401.754
591.075
345.466
201.44
141.938
110.722
91.1343
77.3909
67.1075
59.1073
52.7076
47.4739
43.1167
39.4366
36.2903
33.5731
31.2069
29.1318
27.3021
25.6823
24.2448
22.9675
21.8316
20.8217
19.9248
19.1294
18.4246
17.8002
17.2461
16.752
16.3082
15.9054
15.5366
15.1982
14.8886
14.6061
14.3467
14.1074
13.8971
13.7355
13.6277
1.41048
3.32865
4.08142
4.57832
4.94486
5.2151
5.35933
5.33119
5.16538
5.22049
6.80813
12.5298
28.8779
53.9044
82.0727
111.905
151.722
214.151
316.069
442.208
399.677
249.065
164.399
122.348
99.5414
84.8799
74.2088
65.9691
59.3982
54.0138
49.497
45.6395
42.3045
39.3962
36.843
34.591
32.5966
30.8245
29.2463
27.8395
26.5855
25.4683
24.4739
23.5907
22.8077
22.1143
21.4999
20.954
20.4654
20.0233
19.6174
19.2407
18.8904
18.5665
18.2697
17.9976
17.7492
17.5369
17.3778
17.2713
1.66433
3.97536
4.83452
5.38947
5.79816
6.11326
6.32055
6.38376
6.3378
6.40332
8.02758
13.3933
28.9652
58.5726
90.7197
107.426
142.551
207.575
317.666
370.249
261.206
179.052
127.59
99.424
83.7747
73.6914
66.2757
60.5018
55.8307
51.8995
48.4898
45.4846
42.8183
40.4467
38.3331
36.4472
34.7616
33.2518
31.8974
30.6827
29.5947
28.622
27.754
26.9813
26.2952
25.6862
25.1449
24.6612
24.2239
23.8219
23.445
23.0867
22.7463
22.4271
22.1333
21.8648
21.6207
21.4159
21.2675
21.1694
1.94674
4.65302
5.6488
6.27738
6.73253
7.09179
7.36395
7.51981
7.59125
7.75505
9.40484
14.8936
30.3212
66.9679
110.613
116.771
146.72
216.222
324.182
264.711
188.492
134.162
100.024
80.7941
70.0303
63.1518
58.1812
54.3763
51.2907
48.6497
46.3152
44.2258
42.3502
40.6664
39.1536
37.7909
36.5599
35.4421
34.4245
33.4998
32.6627
31.9082
31.2302
30.6222
30.0777
29.5901
29.1517
28.7542
28.3873
28.0398
27.7023
27.3696
27.0444
26.7344
26.4486
26.1893
25.9526
25.7553
25.6157
25.5213
2.24145
5.36389
6.52991
7.26473
7.78893
8.19803
8.53448
8.78788
8.9853
9.3305
11.0771
16.7764
31.3317
73.2358
107.071
121.937
165.425
272.068
321.027
216.121
148.397
106.211
81.4605
67.9074
60.4441
55.7697
52.3308
49.6789
47.59
45.8966
44.4683
43.2458
42.1809
41.2406
40.3974
39.629
38.9133
38.2317
37.5833
36.9778
36.4175
35.9024
35.4328
35.0027
34.6072
34.2432
33.9066
33.591
33.2882
32.9864
32.6772
32.3592
32.0389
31.7294
31.4467
31.1918
30.9531
30.7579
30.6154
30.5017
2.47096
6.10969
7.47905
8.36685
8.99769
9.47654
9.88057
10.2366
10.5851
11.1876
13.1774
19.1894
32.1927
64.4076
97.0724
130.467
204.277
365.093
293.626
183.031
121.831
87.7891
69.3955
59.927
54.9856
52.0007
49.0449
46.8884
45.3554
44.2321
43.4738
42.9108
42.4813
42.1337
41.8318
41.5596
41.3233
41.1246
40.9498
40.7788
40.6023
40.4057
40.173
39.9217
39.665
39.4013
39.1304
38.8544
38.5739
38.2996
38.0298
37.7647
37.5117
37.2669
37.0372
36.8228
36.588
36.426
36.3499
36.2457
2.67646
6.89654
8.51712
9.59955
10.3795
10.9642
11.4534
11.921
12.4602
13.3877
15.8612
22.4981
34.6027
59.1292
94.4552
151.126
271.759
432.763
245.031
150.556
100.789
74.7559
61.6944
55.6404
52.7942
49.9962
47.346
45.3833
44.0673
43.2734
42.8293
42.5749
42.4384
42.3654
42.3196
42.2882
42.2748
42.2747
42.2881
42.3134
42.3299
42.3142
42.2623
42.1724
42.0457
41.8901
41.7135
41.5239
41.3352
41.1561
40.9948
40.8578
40.7406
40.6395
40.5654
40.502
40.4568
40.5412
40.734
40.8965
2.95912
7.74012
9.66083
10.9856
11.9669
12.7042
13.3079
13.8999
14.6562
16.0034
19.2962
27.469
39.2714
61.4151
103.177
186.839
373.398
329.609
192.711
121.334
84.1884
65.5924
57.1539
54.0466
51.9299
48.9268
46.2309
44.2522
42.9294
42.1939
41.8942
41.822
41.868
41.9663
42.0761
42.182
42.2812
42.3629
42.4294
42.4921
42.5473
42.5879
42.6152
42.6177
42.5869
42.5302
42.4574
42.3789
42.3069
42.2454
42.2015
42.1796
42.177
42.2047
42.2803
42.3945
42.5614
42.8224
43.0843
43.2687
3.31636
8.64557
10.9093
12.5445
13.8008
14.7548
15.5161
16.2504
17.2304
19.0618
23.4178
35.3793
45.8617
71.5549
123.542
235.713
428.028
246.883
150.447
98.6507
72.0452
59.6387
55.0824
53.9543
51.3614
47.9887
44.9351
42.6933
41.2371
40.4536
40.1949
40.2469
40.4549
40.7216
40.9892
41.2318
41.4401
41.6041
41.725
41.818
41.8944
41.964
42.0332
42.093
42.1349
42.1632
42.1858
42.2106
42.2433
42.2834
42.333
42.3955
42.4781
42.6047
42.7959
43.0454
43.3457
43.6728
43.9322
44.1048
3.6658
9.60511
12.2611
14.2904
15.9218
17.1907
18.181
19.0884
20.2812
22.5417
27.9483
37.869
53.8249
88.8437
157.248
298.489
322.539
191.051
120.082
82.2752
63.7435
56.3284
54.9601
53.8015
50.5263
46.7007
43.2357
40.6075
38.8864
37.9613
37.6642
37.7808
38.1247
38.562
39.0073
39.4155
39.7671
40.0514
40.2698
40.4372
40.5731
40.6962
40.818
40.9363
41.0472
41.1539
41.2612
41.3727
41.4881
41.6037
41.7188
41.8393
41.9827
42.1781
42.4432
42.7659
43.1157
43.4416
43.6809
43.8447
3.97855
10.6079
13.7161
16.2355
18.3691
20.0902
21.4247
22.5719
23.9979
26.5937
32.2681
43.5204
64.6249
114.234
208.921
412.108
255.602
152.76
98.4057
70.689
58.5024
55.1397
55.2829
53.0657
49.2478
44.9802
41.107
38.0839
36.0388
34.897
34.4898
34.603
35.0317
35.6125
36.2307
36.818
37.3396
37.7798
38.1378
38.4269
38.6681
38.8828
39.0855
39.2806
39.4691
39.6541
39.8379
40.0206
40.199
40.3683
40.5289
40.6911
40.8776
41.1159
41.416
41.7588
42.1041
42.4032
42.626
42.7924
4.25051
11.6436
15.2814
18.3967
21.1848
23.5415
25.3962
26.9079
28.6524
31.7332
37.9181
50.4905
80.9544
151.694
286.017
357.714
205.159
124.062
82.3746
62.6674
55.69
55.5679
54.9225
51.8283
47.4403
42.7747
38.5572
35.202
32.8573
31.4818
30.9241
30.978
31.4332
32.1084
32.8667
33.618
34.3107
34.92
35.4401
35.88
36.2579
36.5936
36.9024
37.1925
37.4683
37.7329
37.9876
38.2308
38.459
38.6692
38.865
39.0603
39.2781
39.5395
39.8469
40.1781
40.4961
40.7679
40.9857
41.1663
4.52533
12.7172
16.9785
20.8054
24.43
27.6624
30.2874
32.3645
34.574
38.4837
46.5181
63.6858
106.767
209.751
415.084
290.33
164.997
101.629
70.4196
57.4683
54.8502
55.8694
53.8869
49.9581
45.0739
40.0893
35.6211
32.0304
29.4605
27.8888
27.1828
27.1508
27.5873
28.3054
29.1561
30.0341
30.8741
31.6405
32.3202
32.916
33.4404
33.9091
34.3359
34.73
35.097
35.4404
35.7611
36.0581
36.3292
36.5751
36.8026
37.0271
37.2682
37.5401
37.8401
38.1484
38.4389
38.6952
38.9218
39.1251
4.86868
13.8777
18.8463
23.5182
28.199
32.6071
36.3569
39.3127
42.1911
47.245
58.6456
83.4796
144.588
299.138
443.009
231.837
132.659
84.0525
61.8012
54.5997
55.4758
55.3481
52.2123
47.5185
42.2068
36.9882
32.3672
28.6444
25.9423
24.242
23.4239
23.3099
23.7042
24.4243
25.3192
26.2773
27.2244
28.1163
28.9321
29.6674
30.3276
30.9231
31.4644
31.9594
32.4139
32.8312
33.2127
33.5588
33.8702
34.1507
34.4094
34.6611
34.9209
35.1975
35.4872
35.7763
36.0509
36.3074
36.5541
36.7847
5.35805
15.2393
20.9653
26.633
32.6169
38.5807
43.9679
48.3041
52.2031
58.3997
74.6602
110.044
191.465
388.59
348.683
182.023
106.713
70.634
56.0611
53.6741
55.8215
54.1432
49.9438
44.5865
38.9324
33.566
28.8856
25.1279
22.3865
20.6355
19.7587
19.587
19.9355
20.6315
21.5304
22.5222
23.5301
24.505
25.4198
26.2627
27.0328
27.7344
28.3738
28.9567
29.4876
29.9698
30.4054
30.7966
31.1467
31.4617
31.7517
32.0293
32.3061
32.5879
32.8725
33.1538
33.4281
33.6992
33.9739
34.2332
6.13431
17.0232
23.5564
30.3215
37.8748
45.9459
53.6661
60.1469
65.8166
73.2965
92.6959
143.935
238.96
463.365
251.321
141.908
86.6087
60.8691
52.7724
54.388
55.3298
52.1998
47.0944
41.2253
35.3429
29.9228
25.2725
21.5682
18.8728
17.1459
16.2674
16.0715
16.3823
17.0401
17.9126
18.8977
19.9214
20.9341
21.9044
22.8157
23.6608
24.4387
25.1515
25.8021
26.3935
26.9285
27.41
27.8414
28.2277
28.5762
28.8967
29.1998
29.4945
29.7859
30.0751
30.3625
30.6509
30.9472
31.254
31.5414
7.21734
19.4636
26.8906
34.932
44.4057
55.3164
66.3542
76.0401
84.8372
94.631
116.374
171.441
298.211
348.699
193.854
113.006
71.5446
54.2306
51.5044
55.1368
53.8941
49.5248
43.7267
37.5167
31.5322
26.157
21.6221
18.0515
15.477
13.8404
13.0118
12.8235
13.1083
13.7211
14.545
15.4904
16.4907
17.4984
18.4816
19.4201
20.3025
21.1236
21.8814
22.5762
23.2094
23.7833
24.3006
24.7659
25.1846
25.5644
25.914
26.2425
26.5578
26.8655
27.1699
27.4757
27.7894
28.1176
28.4582
28.7719
8.51255
22.686
31.1989
40.8806
52.9272
67.6836
83.6325
97.8549
111.908
126.778
148.852
202.963
353.385
271.974
155.202
91.483
60.3819
50.1525
51.905
54.6052
51.7189
46.3213
39.9846
33.5742
27.6037
22.3667
18.026
14.6602
12.271
10.7796
10.0417
9.88584
10.1536
10.7165
11.4756
12.3557
13.3
14.2664
15.2241
16.152
17.036
17.8676
18.6421
19.3574
20.0134
20.6113
21.154
21.6454
22.0915
22.4991
22.8761
23.2306
23.5699
23.9006
24.2294
24.563
24.9091
25.2727
25.6468
25.9842
10.0851
26.5654
36.5971
48.4876
64.2825
84.7718
107.796
128.411
150.502
176.112
210.674
284.935
441.688
230.309
126.423
74.3668
52.2934
48.1328
52.9285
53.2058
48.8937
42.7017
35.9952
29.5142
23.6615
18.6458
14.57
11.471
9.32119
8.01768
7.39834
7.28918
7.54324
8.05084
8.73211
9.52742
10.3909
11.2869
12.1879
13.0731
13.9276
14.741
15.5066
16.2206
16.8812
17.4889
18.0457
18.5553
19.0228
19.4543
19.8569
20.2378
20.6043
20.9635
21.3229
21.6902
22.0723
22.4718
22.8775
23.2354
11.9612
30.9233
42.8936
57.6392
78.2877
108.559
132.555
162.451
198.581
243.522
308.277
439.14
384.721
188.225
100.236
60.4055
46.8026
47.8097
52.8702
50.8995
45.4838
38.7468
31.8594
25.4417
19.8036
15.0837
11.3343
8.55574
6.68978
5.60428
5.11836
5.05919
5.29636
5.74166
6.33475
7.03099
7.7955
8.59965
9.42001
10.2376
11.0377
11.8092
12.5443
13.2378
13.8871
14.4913
15.0518
15.5714
16.0541
16.5055
16.9315
17.3388
17.7342
18.1249
18.5181
18.921
19.3391
19.7726
20.2062
20.5799
13.5386
35.5017
49.626
67.7224
93.6577
120.232
140.728
171.779
215.708
282.211
391.111
612.668
282.015
140.779
76.6136
49.7082
43.5607
48.9447
51.6429
47.933
41.639
34.5723
27.6793
21.4513
16.1166
11.7583
8.3899
5.97913
4.43317
3.58448
3.23408
3.21848
3.43039
3.80491
4.30118
4.88814
5.5414
6.23895
6.96184
7.69355
8.42047
9.13173
9.81905
10.4765
11.1006
11.6898
12.2442
12.7657
13.2576
13.7242
14.1708
14.6031
15.0271
15.4492
15.8757
16.3125
16.7634
17.226
17.6814
18.065
14.7922
39.7516
56.221
77.11
98.4389
117.517
138.283
169.187
214.551
280.107
373.867
330.096
183.653
99.7248
58.0932
42.3016
42.2679
49.7108
49.4339
44.3567
37.4906
30.3049
23.5598
17.6309
12.6764
8.73746
5.80023
3.80298
2.60719
1.99949
1.77471
1.78991
1.96557
2.26065
2.65195
3.12167
3.65572
4.23665
4.85088
5.48422
6.12461
6.76198
7.38821
7.99714
8.58461
9.1483
9.68765
10.2035
10.6981
11.1748
11.6377
12.0914
12.5408
12.991
13.4468
13.9125
14.3896
14.8736
15.3425
15.7286
14.3923
43.1209
62.2192
79.098
95.5593
113.11
135.004
166.421
208.838
259.703
297.15
205.829
122.568
70.993
44.9712
37.76
42.7629
48.9959
46.4784
40.4046
33.2044
26.0728
19.5994
14.0571
9.54599
6.07653
3.6368
2.09492
1.25356
0.875406
0.75917
0.789989
0.919116
1.12839
1.40995
1.75757
2.16414
2.62062
3.11711
3.64349
4.18777
4.74149
5.29655
5.84691
6.38815
6.91739
7.43324
7.9357
8.42596
8.90626
9.37943
9.84876
10.3177
10.7896
11.2676
11.7538
12.248
12.7433
13.2152
13.5953
13.6896
44.852
63.4625
77.3063
91.3716
108.955
132.135
163.202
201.016
238.192
215.518
139.887
85.2963
51.3027
36.2138
35.69
44.6026
47.1359
42.9747
36.24
28.9226
21.9865
15.8802
10.7915
6.77526
3.86813
1.96132
0.885932
0.402296
0.235863
0.200902
0.226609
0.297397
0.414724
0.583355
0.806337
1.08348
1.41132
1.78394
2.19399
2.63341
3.09456
3.57068
4.05422
4.541
5.02762
5.51193
5.99312
6.47133
6.94753
7.42323
7.90024
8.38032
8.86511
9.35574
9.85227
10.3524
10.847
11.3105
11.6757
11.4702
43.8414
61.2589
73.8168
87.0516
105.012
128.785
159.134
192.885
208.664
155.281
98.9577
59.9181
37.7109
31.065
35.8348
45.3058
44.5509
39.1029
31.9894
24.7454
18.1237
12.4593
7.8764
4.46058
2.14585
0.796017
0.211462
0.0563357
0.0284311
0.025885
0.0330723
0.0514896
0.0881729
0.153121
0.256503
0.405719
0.603885
0.850026
1.14025
1.46897
1.82994
2.21716
2.62515
3.04904
3.48558
3.93059
4.38246
4.84032
5.30384
5.77307
6.24832
6.72972
7.21706
7.70957
8.20521
8.69934
9.18118
9.62454
9.96638
8.53005
39.4983
57.5224
69.2573
82.1442
100.405
124.47
156.014
182.791
170.355
112.622
69.7465
41.8339
29.0189
28.982
37.8515
44.2491
41.2286
34.9563
27.7447
20.7422
14.5348
9.37184
5.39755
2.62163
0.925614
0.173657
0.019425
0.00748738
0.00626698
0.00614228
0.0065808
0.00802103
0.011894
0.0216645
0.0442035
0.0898941
0.169937
0.292591
0.461293
0.675155
0.930679
1.22324
1.54801
1.90047
2.27667
2.67325
3.08744
3.51649
3.95842
4.41179
4.87531
5.34764
5.8269
6.31033
6.79388
7.27074
7.72816
8.14037
8.45112
7.76273
33.3492
52.0102
63.7422
76.2702
94.3091
120.486
152.271
167.986
126.637
80.3048
47.956
29.5041
24.4484
29.3533
40.5592
42.1548
37.4955
30.7351
23.6089
16.9695
11.2519
6.67585
3.38182
1.26564
0.235036
0.0154885
0.00608682
0.00554613
0.00535198
0.00521724
0.00512413
0.00509794
0.00521969
0.00573533
0.00739466
0.012337
0.0257148
0.0569425
0.117988
0.218953
0.364984
0.556454
0.790864
1.06442
1.37294
1.71237
2.07889
2.46894
2.87944
3.30761
3.74965
4.20292
4.66367
5.12766
5.58874
6.03786
6.46046
6.83125
7.10281
8.7849
28.6372
44.9365
57.394
70.1579
89.0001
118.089
145.124
139.778
91.1841
55.3418
32.235
22.1618
23.0582
31.5888
40.7363
39.278
33.5379
26.5603
19.6626
13.4714
8.30194
4.42751
1.82738
0.413469
0.0240299
0.00610245
0.00564371
0.00548934
0.00535411
0.00522618
0.00510767
0.00500237
0.00491582
0.00486375
0.00488797
0.00511438
0.00595742
0.0087546
0.0173097
0.0400141
0.089762
0.179306
0.316259
0.502113
0.734302
1.00835
1.31921
1.66186
2.03155
2.42385
2.83429
3.25841
3.69089
4.12581
4.55452
4.96633
5.34421
5.66266
5.88332
10.5809
26.5288
39.2609
51.5034
65.2508
85.8767
115.793
133.348
101.638
63.31
36.6297
21.9849
18.8325
23.9205
35.0956
39.5289
35.8558
29.457
22.5022
15.9575
10.2815
5.7703
2.62299
0.749319
0.0612999
0.00636798
0.00567704
0.00557462
0.00548257
0.00538089
0.00527353
0.00516565
0.00506138
0.00496375
0.00487664
0.00480346
0.00475348
0.00475409
0.00488778
0.00543646
0.00740674
0.0141045
0.034154
0.0828068
0.176095
0.322444
0.521442
0.767812
1.05486
1.3759
1.72466
2.09508
2.48093
2.87553
3.27097
3.65734
4.02135
4.34356
4.59548
4.74011
11.6643
26.9325
36.9736
48.1111
63.2792
86.9485
114.607
111.941
71.9042
42.2067
23.6356
16.4558
18.3262
26.341
37.2105
37.0327
31.9719
25.3308
18.6096
12.527
7.42916
3.67562
1.2747
0.172632
0.00773587
0.00553346
0.0054812
0.00545845
0.00541764
0.00535967
0.00528776
0.00520638
0.0051196
0.00503122
0.00494546
0.00486516
0.00479466
0.00473795
0.00470164
0.00470872
0.00483404
0.00535089
0.00735085
0.014908
0.0396376
0.10154
0.217174
0.389565
0.612549
0.877457
1.17575
1.49927
1.83992
2.1891
2.53691
2.87125
3.17621
3.42893
3.59311
3.60439
11.0782
29.3326
37.205
48.4761
66.7663
94.1022
113.617
82.8705
49.0855
26.7204
15.7091
14.4527
19.6782
29.8714
36.6718
33.9417
27.9812
21.3033
14.9463
9.40247
5.01194
2.02764
0.417007
0.0167924
0.00530444
0.00521649
0.00523958
0.00525982
0.00526856
0.00526048
0.00523526
0.00519455
0.00514047
0.00507651
0.00500708
0.00493578
0.00486723
0.00480402
0.0047503
0.00471306
0.00470129
0.00474131
0.00493376
0.00570169
0.00894129
0.0220498
0.0637604
0.156355
0.306904
0.508476
0.750264
1.02156
1.3119
1.61032
1.90448
2.17953
2.4162
2.5868
2.64495
2.49251
10.4474
31.233
39.5316
52.5206
75.9228
108.231
97.1064
57.3323
30.6936
16.136
11.9669
14.7509
22.3333
33.7149
34.5821
30.1144
23.8699
17.4308
11.5569
6.62329
3.03711
0.85592
0.0606945
0.00531611
0.00492956
0.00494188
0.00497438
0.0050139
0.00505101
0.00508112
0.00509972
0.00510422
0.00509317
0.00506786
0.00503026
0.00498248
0.00492908
0.00487389
0.00482195
0.00477793
0.00474658
0.00473734
0.00476642
0.00488104
0.00528935
0.00700008
0.0146834
0.0436756
0.118208
0.248961
0.428403
0.643355
0.880397
1.12579
1.36433
1.57796
1.74356
1.82881
1.78205
1.50247
9.99603
29.2652
40.5595
58.0254
84.9981
106.398
65.2382
34.2414
16.8268
10.3983
11.2298
16.5296
26.0831
33.6411
31.4406
26.0674
19.8405
13.7955
8.48251
4.29183
1.5275
0.205863
0.00679262
0.00475348
0.00471924
0.00472299
0.00474353
0.00477553
0.00481506
0.00485799
0.0049001
0.00493728
0.00496524
0.00498148
0.00498374
0.00497214
0.00494975
0.00491815
0.00488088
0.00484333
0.00481162
0.00479222
0.00479256
0.00482737
0.00492877
0.0052135
0.00627117
0.0110636
0.0310719
0.089133
0.198749
0.352343
0.53412
0.727117
0.913143
1.07118
1.1751
1.19029
1.06845
0.74192
9.54509
26.071
37.7283
56.799
83.1632
65.5918
34.3529
16.4011
9.08261
8.71138
12.3239
19.3837
30.0463
31.6908
27.8372
22.0832
16.0424
10.4644
5.76997
2.42498
0.529614
0.0191599
0.00468556
0.00458824
0.00457493
0.00456877
0.00457289
0.00458804
0.00461331
0.00464725
0.00468786
0.00473252
0.00477773
0.00482036
0.00485647
0.00488332
0.004899
0.00490173
0.00489401
0.0048797
0.004862
0.00484636
0.00484133
0.0048564
0.00490318
0.00500844
0.00524599
0.00595036
0.00886482
0.0214962
0.0622347
0.146178
0.267424
0.407967
0.546957
0.661519
0.725285
0.706769
0.5704
0.295938
9.15433
23.979
35.9772
55.677
53.8875
28.9262
13.925
7.53679
6.83512
9.35963
14.5359
23.219
30.3419
28.8335
24.018
18.2008
12.4959
7.46102
3.53242
1.06291
0.0827027
0.00487952
0.00446625
0.00445558
0.00445249
0.00445078
0.00445172
0.00445657
0.00446734
0.00448532
0.004511
0.00454414
0.00458392
0.00462901
0.00467664
0.00472381
0.00476738
0.00480425
0.00483276
0.00485149
0.00486142
0.00486714
0.00487357
0.0048867
0.00491755
0.00498023
0.00509471
0.00531042
0.00579731
0.00739935
0.0139268
0.0367073
0.0893873
0.170123
0.261532
0.340813
0.383846
0.367185
0.274319
0.117005
10.5409
25.4475
39.3741
43.455
21.9424
10.5505
5.94339
5.42656
7.30681
11.1539
17.6062
27.2832
28.8128
25.4015
20.0989
14.4498
9.21541
4.82632
1.79862
0.271018
0.0071397
0.00438874
0.00435019
0.00434127
0.00434002
0.00434375
0.00435009
0.00435745
0.00436556
0.00437533
0.00438845
0.00440652
0.00443081
0.00446197
0.00449991
0.00454416
0.00459333
0.00464475
0.00469546
0.00474276
0.00478495
0.00482104
0.00485176
0.00488158
0.00491672
0.00496574
0.00504332
0.00516694
0.00536978
0.00572847
0.00653921
0.00904847
0.0174142
0.038767
0.0744295
0.113124
0.136607
0.128458
0.0842888
0.0280329
17.4402
40.5312
30.5587
14.8499
7.29585
4.60422
4.44954
5.88699
8.86192
13.7084
21.5886
27.6478
26.0642
21.5789
16.1768
10.8944
6.25211
2.70715
0.635531
0.0248976
0.00440029
0.00428753
0.0042696
0.00425721
0.00425075
0.00425056
0.0042563
0.00426629
0.0042784
0.00429096
0.00430316
0.00431551
0.00432943
0.0043468
0.00436932
0.0043983
0.00443435
0.00447749
0.00452731
0.00458243
0.00464019
0.00469802
0.00475456
0.0048092
0.00486237
0.00491904
0.00498683
0.00507633
0.00520509
0.0053947
0.00568194
0.00613942
0.00699328
0.00882754
0.0126686
0.0184469
0.0227571
0.0209636
0.013563
0.0072724
8.34028
13.1206
6.99972
4.49104
3.70887
3.88117
4.96174
7.24572
11.1374
16.9912
25.3262
25.8538
22.5281
17.5756
12.3717
7.63865
3.74342
1.17628
0.10398
0.00481321
0.004234
0.00421176
0.00420106
0.00419323
0.00418735
0.00418397
0.00418427
0.00418913
0.0041985
0.00421139
0.00422625
0.00424164
0.00425656
0.00427094
0.00428568
0.0043025
0.00432336
0.00434999
0.00438382
0.00442558
0.00447559
0.00453345
0.00459756
0.00466566
0.00473645
0.00480909
0.00488423
0.0049671
0.00506513
0.00519157
0.00536139
0.00559567
0.00591105
0.00633251
0.00687446
0.00747942
0.00794866
0.00796648
0.00732795
0.00600648
0.00449061
0.00539041
0.00646935
0.00787555
0.00979182
0.0124341
0.0160837
0.0211315
0.0281021
0.0376817
0.0507689
0.0686235
0.0932533
0.128316
0.181158
0.267163
0.417381
0.687853
1.16263
2.05931
0.00443974
0.00522209
0.00616259
0.00740709
0.00913724
0.0115762
0.0150278
0.0199297
0.0268949
0.0367643
0.0506855
0.070294
0.0981719
0.13896
0.202044
0.307892
0.500829
0.864411
1.50667
2.73464
0.00438933
0.00505245
0.00585204
0.00692611
0.00844701
0.010633
0.0137922
0.0183826
0.0250704
0.0348088
0.0489501
0.0694568
0.0993896
0.144075
0.213935
0.3311
0.54167
0.923667
1.55659
2.31966
0.00434122
0.00488816
0.00555054
0.00645455
0.00775708
0.00966084
0.0124597
0.0166016
0.0227569
0.0319185
0.0455431
0.0657839
0.0959607
0.141606
0.212887
0.329952
0.531807
0.878913
1.4139
2.05009
0.00429686
0.00473483
0.00526913
0.00601164
0.00710001
0.00871389
0.0111184
0.0147242
0.0201565
0.0283632
0.0407708
0.059524
0.0879079
0.131179
0.198322
0.305642
0.482155
0.769621
1.19623
1.73633
0.00425734
0.00459661
0.00501574
0.00561153
0.00650109
0.00783735
0.0098481
0.0128883
0.0175018
0.0245205
0.0352124
0.0515056
0.076348
0.114323
0.172775
0.263864
0.407333
0.630153
0.953857
1.36955
0.00422333
0.00447611
0.00479511
0.00526259
0.00597619
0.00706218
0.00870844
0.0112071
0.0150035
0.0207756
0.029552
0.0428933
0.0631759
0.0940261
0.140991
0.212567
0.321404
0.484019
0.715034
1.01396
0.00419514
0.0043745
0.00460897
0.0049678
0.00553192
0.00640385
0.00773401
0.00975359
0.0128108
0.0174265
0.0243737
0.0347997
0.0504175
0.0737852
0.108685
0.160592
0.237108
0.347694
0.501199
0.700228
0.00417287
0.00429182
0.00445642
0.0047254
0.00516693
0.00586417
0.00693542
0.00855871
0.0109973
0.0146357
0.020026
0.0279552
0.0395477
0.0564076
0.0807929
0.115793
0.165442
0.234552
0.327743
0.44727
0.00415647
0.00422697
0.00433371
0.00452958
0.00487475
0.00543621
0.00630617
0.00762039
0.00957411
0.0124428
0.0166108
0.0226064
0.0311437
0.0431649
0.0598586
0.0826494
0.113192
0.153343
0.204888
0.268786
0.00414604
0.00417756
0.00423505
0.0043716
0.00464123
0.00509905
0.00581863
0.0069024
0.00848641
0.0107544
0.0139601
0.0184475
0.0246741
0.0332144
0.04468
0.0595664
0.0782473
0.101243
0.129611
0.165125
0.00414624
0.00413994
0.00415506
0.0042485
0.00446067
0.00482433
0.00537869
0.00617259
0.00726197
0.0087363
0.0107572
0.0136059
0.017767
0.0241286
0.0344956
0.0523029
0.0855813
0.143244
0.233632
0.369
0.00705906
0.0044214
0.00496465
0.00629018
0.0091941
0.0146687
0.0238212
0.0375906
0.0565442
0.0811221
0.113206
0.154473
0.205312
0.267983
0.353773
0.473718
0.628933
0.811513
1.00902
1.29201
0.367229
0.186398
0.226937
0.254443
0.28084
0.31025
0.344207
0.384283
0.431917
0.488826
0.555626
0.628605
0.696126
0.790055
0.999924
1.27326
1.58875
1.88825
2.11011
2.67171
0.138113
0.218374
0.292821
0.369165
0.451812
0.535445
0.618083
0.700342
0.785782
0.877255
0.969832
1.03607
1.0572
1.16408
1.27075
1.37481
1.50528
1.63126
1.77394
2.08026
0.0601357
0.0815378
0.09674
0.13276
0.179379
0.232156
0.288353
0.345936
0.403891
0.461651
0.517779
0.571248
0.6364
0.74714
0.825855
0.854894
0.853636
0.836843
0.840693
0.911723
0.031812
0.0349847
0.0366634
0.0520855
0.0737112
0.0989438
0.126449
0.155156
0.18416
0.212817
0.241023
0.270673
0.308838
0.36027
0.402106
0.417198
0.406074
0.377762
0.347631
0.32859
0.0177148
0.0134363
0.0119868
0.0179124
0.0269496
0.0382946
0.0510626
0.0645424
0.0781417
0.0914687
0.104505
0.117932
0.13314
0.149786
0.162008
0.163555
0.152984
0.133398
0.110316
0.0881973
0.0110331
0.00723069
0.00517568
0.00628478
0.00850673
0.0118887
0.0162144
0.0211299
0.0262634
0.0313047
0.0360575
0.0404571
0.0444312
0.0474303
0.0481098
0.0452667
0.0389955
0.030777
0.0226345
0.0160295
0.00817719
0.00651303
0.00425836
0.00421414
0.00443466
0.00491958
0.00565528
0.0065963
0.00765571
0.00872373
0.00968873
0.0104507
0.0109125
0.0109577
0.0104838
0.00952685
0.00832667
0.00720597
0.00637623
0.00586311
0.00730548
0.00659677
0.00424544
0.00400689
0.00395922
0.00399741
0.00407985
0.00419136
0.00432089
0.00445552
0.00458158
0.00468804
0.00476905
0.00482436
0.00485879
0.00488141
0.00490186
0.00492534
0.00495161
0.00497674
0.00856122
0.00638811
0.00429946
0.00402775
0.00396036
0.00395439
0.00396706
0.00398835
0.00401649
0.00405143
0.00409379
0.0041448
0.00420598
0.00427782
0.00435824
0.00444213
0.0045227
0.00459361
0.00465076
0.0046926
0.0118522
0.00583003
0.00430569
0.00407329
0.00402039
0.00401192
0.00401521
0.00402386
0.00403717
0.00405568
0.00408032
0.00411206
0.00415162
0.00419876
0.00425166
0.00430689
0.00436016
0.00440755
0.00444636
0.00447539
0.00946776
0.00497109
0.00423241
0.00411021
0.00408362
0.00407821
0.00407885
0.00408247
0.00408853
0.0040972
0.0041088
0.0041237
0.00414214
0.00416391
0.0041882
0.00421351
0.00423802
0.00426006
0.00427848
0.00429265
1.16085
1.94755
2.44647
2.95694
3.4533
3.81671
4.02945
4.11129
4.08448
4.01043
3.94197
3.8532
3.76605
3.70695
3.71832
2.51893
5.91711
7.80179
8.953
9.81211
10.1772
10.1889
9.93399
9.48541
8.90871
8.2585
7.58235
6.91039
6.2489
5.57195
3.31003
3.66042
5.04614
6.7826
8.12622
8.47451