/*--------------------------------*- C++ -*----------------------------------*\
| =========                 |                                                 |
| \\      /  F ield         | OpenFOAM: The Open Source CFD Toolbox           |
|  \\    /   O peration     | Version:  v1912                                 |
|   \\  /    A nd           | Website:  www.openfoam.com                      |
|    \\/     M anipulation  |                                                 |
\*---------------------------------------------------------------------------*/
FoamFile
{
    version     2.0;
    format      ascii;
    class       volScalarField;
    location    "32";
    object      nut;
}
// * * * * * * * * * * * * * * * * * * * * * * * * * * * * * * * * * * * * * //

dimensions      [0 2 -1 0 0 0 0];


internalField   nonuniform List<scalar> 
20320
(
0.0347184
0.00759845
0.00766686
0.00773334
0.00779746
0.00785881
0.00791687
0.00797105
0.00802064
0.00806477
0.0081025
0.00813278
0.00815443
0.00816606
0.00816596
0.00815166
0.00811886
0.00805774
0.00796753
0.00824513
0.0352308
0.035273
0.0354457
0.035678
0.035954
0.036244
0.036508
0.0367179
0.0368701
0.0369775
0.0370564
0.0371185
0.0371673
0.0371936
0.0371722
0.0370419
0.0366826
0.0357833
0.0332182
0.0229237
0.0353539
0.0356368
0.0361377
0.0368837
0.0379742
0.0395093
0.0415769
0.0442251
0.0474296
0.0510646
0.054896
0.0586059
0.0618422
0.064272
0.0656206
0.0656829
0.0642718
0.060938
0.0537235
0.0331105
0.0355263
0.036111
0.0369217
0.0379603
0.0393285
0.0411409
0.0435271
0.0466283
0.0505836
0.0554898
0.0613273
0.0678712
0.0746255
0.0808388
0.0856229
0.0881237
0.0876138
0.0831599
0.0718868
0.0415584
0.0357341
0.0367045
0.0379024
0.039303
0.0410012
0.0431039
0.0457387
0.0490598
0.0532512
0.0585144
0.0650255
0.0728336
0.0816903
0.0908727
0.0991405
0.104915
0.10655
0.102143
0.08765
0.0484405
0.0359681
0.0373969
0.0390506
0.0408804
0.0429713
0.0454207
0.0483483
0.0519051
0.0562828
0.0617148
0.0684646
0.076768
0.0866685
0.0977304
0.108748
0.117688
0.121937
0.118298
0.10127
0.0539963
0.0362177
0.0381565
0.0403149
0.0426243
0.0451593
0.0480057
0.0512725
0.0551049
0.0596934
0.0652805
0.072164
0.080678
0.0910774
0.103245
0.11623
0.127855
0.134701
0.132184
0.113137
0.0585764
0.0364717
0.03895
0.0416418
0.044465
0.047484
0.0507717
0.0544245
0.0585789
0.0634214
0.0691954
0.0762115
0.0848535
0.0955103
0.108329
0.12268
0.136457
0.145662
0.144385
0.123691
0.0624946
0.0367186
0.0397423
0.0429745
0.0463277
0.0498581
0.0536256
0.0577118
0.0622421
0.0673954
0.0734112
0.0806027
0.0893783
0.10021
0.113442
0.128756
0.144233
0.155492
0.155431
0.133328
0.0660168
0.0369469
0.0404975
0.0442544
0.0481352
0.0521911
0.0564699
0.0610375
0.0660053
0.0715413
0.0778754
0.0853164
0.0942823
0.105296
0.118847
0.134888
0.151734
0.164771
0.165851
0.142477
0.0693531
0.037146
0.0411807
0.0454246
0.0498108
0.0543914
0.0592048
0.064301
0.0697756
0.0757815
0.082534
0.0903295
0.0995846
0.110852
0.124728
0.14139
0.159401
0.174015
0.176162
0.151581
0.0726898
0.0373066
0.0417605
0.046432
0.0512819
0.0563701
0.0617305
0.0673989
0.0734548
0.0800331
0.0873287
0.0956177
0.105305
0.116958
0.131249
0.148545
0.167647
0.183742
0.186928
0.161151
0.0762812
0.0374215
0.0422105
0.0472316
0.0524844
0.0580453
0.0639507
0.070227
0.0769398
0.084205
0.0921929
0.101152
0.111465
0.1237
0.138585
0.156648
0.176911
0.19453
0.198808
0.171807
0.0805053
0.0374861
0.0425111
0.0477885
0.0533659
0.0593456
0.0657755
0.0726807
0.0801192
0.0881909
0.0970407
0.106884
0.118073
0.131167
0.146933
0.166037
0.187716
0.207113
0.212707
0.184437
0.0857838
0.0374985
0.0426509
0.0480802
0.0538893
0.0602141
0.0671251
0.0746579
0.0828734
0.0918647
0.101757
0.112732
0.125109
0.139429
0.156494
0.177101
0.200709
0.222456
0.229901
0.200392
0.092811
0.0374595
0.0426273
0.0480987
0.0540352
0.060613
0.0679359
0.0760636
0.0850763
0.0950768
0.106184
0.11856
0.13249
0.148505
0.167449
0.190271
0.216698
0.241912
0.252352
0.221889
0.102844
0.0373731
0.0424465
0.0478504
0.0538039
0.060527
0.0681651
0.076817
0.0866017
0.0976552
0.110117
0.124149
0.140029
0.158296
0.17987
0.205924
0.236595
0.267274
0.283089
0.252857
0.118501
0.0372454
0.0421233
0.047356
0.0532159
0.0599658
0.0677974
0.0768609
0.0873339
0.0994141
0.113296
0.129184
0.147386
0.168495
0.193582
0.224188
0.26117
0.300643
0.326602
0.300502
0.145659
0.0370849
0.0416796
0.046649
0.0523106
0.0589654
0.0668505
0.0761736
0.0871863
0.100175
0.115432
0.133254
0.154041
0.178506
0.207978
0.244593
0.290456
0.343501
0.387908
0.375928
0.197786
0.0369012
0.041143
0.045773
0.0511437
0.0575861
0.0653766
0.0747782
0.0861218
0.0998015
0.116242
0.13589
0.159301
0.187389
0.221847
0.265633
0.322718
0.394398
0.467661
0.486368
0.29267
0.0390499
0.0257831
0.0285913
0.0303034
0.0317663
0.0327944
0.0327549
0.0307066
0.0265256
0.0451729
0.0805914
0.11088
0.135823
0.156263
0.166603
0.169195
0.186146
0.211511
0.242872
0.28528
0.335292
0.340322
0.279259
0.228412
0.196829
0.175257
0.159213
0.14657
0.136236
0.127602
0.120264
0.113954
0.108477
0.103697
0.0994936
0.0957526
0.0923878
0.0893491
0.0865827
0.0840559
0.0817524
0.0796426
0.0777094
0.0759477
0.0743374
0.0728699
0.0715339
0.0703173
0.0692075
0.0681914
0.0672529
0.0663866
0.0655788
0.0648289
0.0641411
0.0634967
0.0628686
0.0622445
0.0617038
0.0613252
0.0480389
0.443596
0.581462
0.63392
0.654335
0.649129
0.610256
0.51679
0.329124
0.164746
0.226285
0.589092
1.0765
1.53182
2.09209
2.33784
2.49735
2.78039
3.09366
3.38621
3.90072
3.69598
2.80418
2.39383
2.10758
1.90253
1.74412
1.61551
1.50879
1.41946
1.34416
1.28015
1.22523
1.17744
1.13543
1.09817
1.06493
1.03521
1.00867
0.985121
0.96442
0.946386
0.930884
0.917866
0.907261
0.89893
0.892693
0.88833
0.885553
0.884035
0.883422
0.883423
0.884119
0.885863
0.888896
0.892893
0.895941
0.897595
0.903353
0.91515
0.0547274
0.655929
0.967741
1.09714
1.14556
1.14042
1.07791
0.93059
0.659509
0.400417
0.286563
0.58245
1.17144
1.7537
2.20822
3.05264
3.61186
4.03356
4.5668
5.03857
5.37374
4.06664
3.42421
3.11236
2.89164
2.71239
2.55794
2.42294
2.3057
2.20455
2.11728
2.04155
1.97537
1.91712
1.86557
1.8199
1.77947
1.74385
1.71276
1.6861
1.66379
1.64569
1.63168
1.62173
1.61573
1.61347
1.61466
1.61888
1.62559
1.63417
1.64395
1.65451
1.6659
1.67845
1.69234
1.70702
1.72155
1.73758
1.75914
1.78681
0.0606411
0.797652
1.20418
1.38941
1.46136
1.4622
1.39678
1.24354
0.969899
0.68142
0.556232
0.821874
1.54984
2.31575
2.64975
3.21712
4.0419
4.63788
5.3889
5.93618
5.24124
4.14242
3.55378
3.28538
3.14313
3.03388
2.93122
2.83436
2.74615
2.66739
2.59733
2.53486
2.47914
2.42952
2.38557
2.34708
2.31383
2.28557
2.26218
2.24365
2.22998
2.2211
2.21685
2.21715
2.22185
2.23065
2.24309
2.2586
2.27646
2.29583
2.31592
2.33624
2.35688
2.37824
2.40066
2.42383
2.44747
2.47396
2.50668
2.54494
0.0661615
0.919004
1.37816
1.59235
1.67791
1.68493
1.62678
1.49098
1.25272
0.981063
0.903378
1.17919
1.89382
2.74963
3.32085
3.57395
4.24294
4.86397
5.59509
5.7373
4.78844
3.98868
3.49438
3.27295
3.19396
3.15249
3.1099
3.06406
3.01836
2.97458
2.93367
2.8963
2.86305
2.8343
2.80994
2.79022
2.77502
2.7641
2.7573
2.75466
2.75628
2.76208
2.77186
2.78548
2.80277
2.82337
2.84679
2.87244
2.89956
2.92734
2.95498
2.98206
3.00875
3.03562
3.06328
3.09181
3.1211
3.15372
3.19284
3.23667
0.071885
1.02928
1.5256
1.7521
1.84217
1.85296
1.80534
1.69618
1.50769
1.28289
1.23625
1.51383
2.10124
2.98483
3.78417
3.96367
4.33469
4.82749
5.32987
4.9014
4.20695
3.64172
3.30424
3.18913
3.19785
3.2303
3.24734
3.24963
3.24331
3.23324
3.22303
3.21489
3.21002
3.20886
3.21118
3.21643
3.22461
3.23529
3.24826
3.26372
3.28185
3.30264
3.32588
3.35144
3.37925
3.40904
3.44049
3.47318
3.50648
3.5397
3.57212
3.60334
3.6336
3.66355
3.69411
3.72589
3.75867
3.79499
3.83778
3.88416
0.0774921
1.12442
1.65774
1.89036
1.97961
1.99143
1.9536
1.87161
1.73506
1.56782
1.53931
1.80462
2.28339
3.14739
3.88976
4.06789
4.2233
4.7729
4.907
4.18552
3.63063
3.26352
3.11018
3.14268
3.26181
3.37052
3.43364
3.46856
3.48975
3.50627
3.52344
3.54353
3.56669
3.59261
3.62059
3.6498
3.67963
3.70985
3.74045
3.77182
3.80405
3.83709
3.87089
3.90548
3.94097
3.97735
4.01455
4.05237
4.09039
4.12793
4.16422
4.19878
4.23175
4.26387
4.29658
4.33096
4.36667
4.40653
4.45241
4.49983
0.0817374
1.21024
1.77856
2.01747
2.10414
2.11502
2.08459
2.02551
1.93492
1.82343
1.80808
2.04725
2.46935
3.12975
3.77093
3.95045
4.17661
4.87852
4.44434
3.7069
3.24705
3.03558
3.05136
3.2307
3.44967
3.60838
3.68233
3.72886
3.7646
3.79673
3.83345
3.87296
3.91525
3.9596
4.00511
4.0514
4.09873
4.14679
4.19466
4.24176
4.28799
4.333
4.37662
4.41967
4.46262
4.50554
4.54859
4.59181
4.635
4.67787
4.71945
4.75902
4.79661
4.8327
4.86921
4.90783
4.94749
4.99294
5.04498
5.09414
0.0854639
1.29513
1.8947
2.13942
2.22387
2.23318
2.20763
2.16566
2.1102
2.04525
2.04413
2.24561
2.60085
3.09356
3.58058
3.85162
4.36752
5.03976
4.03897
3.39568
3.05341
2.98878
3.16128
3.4654
3.73985
3.88586
3.9524
3.9949
4.03139
4.07004
4.11434
4.16274
4.21459
4.26882
4.32442
4.381
4.43862
4.49673
4.55471
4.61212
4.66822
4.72231
4.77494
4.82653
4.87717
4.92721
4.97705
5.02686
5.07673
5.12614
5.17423
5.22043
5.26444
5.30697
5.35062
5.39663
5.44546
5.50218
5.56528
5.62307
0.0903093
1.38243
2.01172
2.26161
2.34505
2.35326
2.33049
2.29976
2.26792
2.23613
2.25343
2.43096
2.68193
3.04903
3.47542
3.95178
4.84223
4.53616
3.7143
3.19939
2.99299
3.08298
3.40251
3.78747
4.04571
4.15618
4.20058
4.22624
4.25194
4.28753
4.3344
4.38848
4.44742
4.50946
4.57321
4.63795
4.70329
4.76839
4.83281
4.89656
4.95919
5.02031
5.0803
5.13937
5.19729
5.25441
5.31115
5.36775
5.4242
5.4798
5.53379
5.58574
5.63549
5.68438
5.73526
5.78954
5.8484
5.91432
5.9822
6.04151
0.0960685
1.47039
2.13122
2.38885
2.47317
2.48162
2.46044
2.43543
2.41659
2.40399
2.44154
2.66008
2.74731
3.05603
3.55898
4.28014
5.13887
4.17005
3.47523
3.08647
3.02708
3.28107
3.71999
4.11884
4.31759
4.38184
4.38983
4.38982
4.40025
4.42885
4.47591
4.53542
4.6024
4.67355
4.74666
4.82048
4.89422
4.96693
5.03818
5.10817
5.17697
5.24466
5.31162
5.37768
5.44252
5.50642
5.5697
5.63248
5.6946
5.75539
5.81421
5.87078
5.92535
5.9798
6.037
6.09846
6.1649
6.23586
6.30498
6.36412
0.101515
1.55691
2.25406
2.52432
2.61352
2.62431
2.6043
2.5804
2.56375
2.55562
2.59922
2.75845
2.82017
3.16627
3.79149
4.70474
4.7508
3.86898
3.2848
3.03061
3.14164
3.5567
4.06006
4.39864
4.53013
4.54404
4.51067
4.47844
4.46891
4.48814
4.53411
4.59914
4.67561
4.75803
4.84287
4.92806
5.01233
5.09471
5.17473
5.25262
5.32877
5.40365
5.47765
5.5506
5.62222
5.69254
5.76175
5.82987
5.89664
5.96148
6.024
6.08424
6.143
6.20237
6.26482
6.33172
6.40293
6.47598
6.54508
6.60367
0.106255
1.64256
2.3812
2.67046
2.77004
2.78671
2.76835
2.74215
2.71893
2.69786
2.72458
2.85476
2.92095
3.36689
4.11775
5.11375
4.348
3.57467
3.12113
3.03509
3.34027
3.87974
4.3652
4.612
4.6785
4.6405
4.56407
4.49665
4.46298
4.46977
4.51301
4.58295
4.66941
4.76455
4.86313
4.96195
5.05914
5.15351
5.24453
5.33235
5.41749
5.50058
5.58206
5.6619
5.73994
5.81617
5.89064
5.96331
6.03392
6.10208
6.16765
6.23102
6.29341
6.35698
6.42385
6.49473
6.56856
6.64227
6.71132
6.76943
0.110382
1.72725
2.51424
2.82971
2.94575
2.97258
2.95706
2.92623
2.89207
2.84571
2.82391
2.88846
3.06376
3.64759
4.53903
4.95943
3.96962
3.31678
3.01233
3.12641
3.61908
4.21277
4.6017
4.76086
4.76167
4.67248
4.55346
4.45053
4.39064
4.38233
4.42082
4.49433
4.5902
4.69825
4.81143
4.92526
5.03704
5.14519
5.24895
5.34835
5.44384
5.53607
5.62553
5.71238
5.79664
5.87835
5.95757
6.03425
6.10823
6.17934
6.2477
6.31401
6.37977
6.44707
6.51753
6.59128
6.66675
6.74099
6.81036
6.86826
0.114494
1.81015
2.65509
3.0046
3.14331
3.1847
3.17313
3.13516
3.08898
3.0212
2.95612
2.99855
3.28387
4.02077
5.108
4.50636
3.64306
3.11707
2.98571
3.31941
3.94799
4.49712
4.77074
4.84367
4.78047
4.64179
4.48208
4.34509
4.25904
4.23439
4.26648
4.34197
4.44588
4.56591
4.6933
4.82226
4.94915
5.0718
5.18916
5.30096
5.40755
5.50948
5.60729
5.70132
5.79176
5.87879
5.96255
6.04306
6.12033
6.1944
6.26567
6.33514
6.40443
6.47537
6.54907
6.62524
6.70217
6.77735
6.8477
6.90593
0.119393
1.88991
2.80538
3.19771
3.36515
3.42504
3.41826
3.36932
3.30873
3.23402
3.15137
3.22425
3.6105
4.52356
5.30937
4.11847
3.37194
2.98163
3.05719
3.60238
4.28171
4.70788
4.87226
4.86157
4.73666
4.55086
4.35299
4.18436
4.07366
4.03289
4.05781
4.13382
4.24403
4.3743
4.5144
4.65735
4.79862
4.93539
5.06614
5.19035
5.30811
5.41991
5.52626
5.62764
5.72442
5.81692
5.90537
5.98996
6.07085
6.14835
6.22314
6.2964
6.36971
6.44457
6.52165
6.60038
6.67926
6.75629
6.82859
6.8879
0.12594
1.9706
2.96716
3.41161
3.61344
3.69555
3.69506
3.63035
3.54663
3.47738
3.41336
3.54052
4.08294
5.1789
4.79728
3.79296
3.15288
2.92016
3.23641
3.93843
4.55762
4.84672
4.9067
4.81701
4.63347
4.40311
4.16971
3.97212
3.83899
3.78331
3.80098
3.87634
3.99087
4.12904
4.27951
4.43435
4.58824
4.73775
4.8809
5.01682
5.14538
5.26691
5.3819
5.4909
5.59439
5.6928
5.78651
5.87583
5.96115
6.04302
6.12234
6.20036
6.27852
6.35794
6.43896
6.52101
6.6029
6.68307
6.75854
6.81982
0.135535
2.08258
3.15273
3.64893
3.88984
4.00027
4.00944
3.92614
3.80726
3.72957
3.7347
3.92871
4.53577
5.59096
4.44058
3.52123
2.97571
2.95081
3.51667
4.28145
4.75265
4.91203
4.87527
4.7129
4.47478
4.2027
3.93631
3.71226
3.55904
3.49002
3.50072
3.57428
3.69094
3.83426
3.99221
4.15623
4.32037
4.48068
4.63475
4.78136
4.92013
5.05118
5.17495
5.29196
5.40276
5.50785
5.60772
5.70285
5.79382
5.88138
5.96656
6.0506
6.13469
6.21965
6.30566
6.39226
6.47865
6.56351
6.64343
6.70747
0.147881
2.25224
3.37773
3.91394
4.19706
4.34639
4.37286
4.27369
4.11536
4.0012
4.04699
4.23804
4.95156
5.21048
4.04386
3.23029
2.84909
3.09895
3.86193
4.56541
4.86476
4.90424
4.78045
4.55276
4.26485
3.95417
3.65718
3.40894
3.23771
3.15674
3.16058
3.23095
3.3473
3.49282
3.65522
3.82556
3.99745
4.16653
4.33
4.48628
4.63468
4.77515
4.90794
5.03352
5.15243
5.26522
5.37245
5.47478
5.57292
5.66776
5.76037
5.85185
5.94318
6.03498
6.12738
6.22014
6.31273
6.40383
6.48929
6.55668
0.161551
2.48719
3.65338
4.21506
4.53924
4.74373
4.80383
4.69745
4.50926
4.34307
4.31473
4.52648
5.21029
4.63811
3.63338
2.96482
2.82675
3.37336
4.21157
4.74594
4.89609
4.82877
4.62726
4.34136
4.0085
3.66237
3.33701
3.06651
2.87892
2.78691
2.78344
2.84887
2.96237
3.10731
3.2714
3.44554
3.62303
3.79915
3.97072
4.13583
4.29349
4.44336
4.58554
4.72036
4.84833
4.96999
5.08601
5.19709
5.30407
5.40789
5.50955
5.61002
5.7101
5.81027
5.91073
6.01139
6.11183
6.21045
6.30216
6.37305
0.176869
2.75543
3.98015
4.56688
4.93447
5.20595
5.33183
5.22456
5.02841
4.82736
4.69937
4.86292
5.42635
4.16292
3.26943
2.79648
2.96
3.73103
4.49925
4.83159
4.8514
4.69193
4.42221
4.0845
3.71106
3.33232
2.98063
2.68947
2.48671
2.3839
2.37206
2.43062
2.53903
2.68119
2.84496
3.02106
3.20258
3.38444
3.56316
3.73649
3.90314
4.0625
4.21447
4.35925
4.49724
4.62901
4.75522
4.87664
4.99413
5.10859
5.22095
5.33201
5.44243
5.55265
5.66288
5.77308
5.88269
5.98963
6.08776
6.16186
0.193762
3.01949
4.33876
4.97219
5.40443
5.7785
5.87307
5.76632
5.62925
5.48476
5.3736
5.54636
5.02561
3.79297
3.03116
2.792
3.24974
4.07851
4.66793
4.82468
4.73667
4.50018
4.17196
3.78848
3.37827
2.96943
2.59322
2.28284
2.06579
1.95198
1.93053
1.98066
2.08262
2.22077
2.38302
2.55992
2.74433
2.93096
3.11606
3.29707
3.47243
3.64131
3.80336
3.95866
4.10755
4.25051
4.38822
4.52144
4.65096
4.77764
4.90227
5.02552
5.14792
5.26981
5.39135
5.51236
5.63196
5.74738
5.85147
5.92807
0.207132
3.26557
4.70212
5.40936
5.92732
6.26779
6.28841
6.22915
6.19895
6.18849
6.21184
6.41159
4.69833
3.58108
2.9726
2.9691
3.603
4.34242
4.71721
4.73969
4.56236
4.26153
3.88336
3.45947
3.01578
2.57906
2.18013
1.85212
1.62192
1.49742
1.46616
1.50767
1.60293
1.7365
1.89638
2.07297
2.25915
2.44947
2.63998
2.82791
3.01147
3.18959
3.36178
3.52794
3.68832
3.84336
3.99366
4.13989
4.28281
4.42315
4.56153
4.69848
4.83435
4.96933
5.10335
5.23592
5.36565
5.48906
5.59807
5.67611
0.217636
3.47327
5.04709
5.83628
6.31997
6.56673
6.66219
6.79464
7.03541
7.31016
7.47879
6.1662
4.58999
3.5756
3.0661
3.2419
3.8805
4.47796
4.67167
4.58877
4.33952
3.9847
3.56337
3.10346
2.62917
2.16672
1.74717
1.40397
1.16364
1.03173
0.993938
1.02898
1.11783
1.24556
1.40085
1.57472
1.76052
1.95246
2.14671
2.3402
2.53091
2.71757
2.89951
3.07651
3.24866
3.41633
3.58002
3.7403
3.89779
4.05305
4.20653
4.35853
4.50914
4.65822
4.80535
4.94957
5.08889
5.2191
5.33153
5.4098
0.215968
3.63018
5.34527
6.12009
6.54113
6.81715
7.05774
7.39703
7.83145
8.17252
7.86408
6.14016
4.62672
3.5859
3.16418
3.45706
4.03388
4.49021
4.55446
4.3884
4.07907
3.67781
3.21839
2.72599
2.2237
1.73776
1.30188
0.950384
0.709432
0.581736
0.546438
0.578157
0.658472
0.775351
0.920062
1.08538
1.2652
1.45433
1.64866
1.84508
2.04087
2.23466
2.42541
2.61272
2.79655
2.97711
3.15475
3.3299
3.50297
3.67428
3.84401
4.01211
4.17829
4.34198
4.50223
4.65751
4.80519
4.9405
5.05456
5.13182
0.212086
3.71558
5.49186
6.26449
6.67123
7.00701
7.37123
7.81188
8.23631
8.3653
7.46078
5.78089
4.3547
3.39032
3.16464
3.54834
4.12478
4.4212
4.38672
4.15165
3.79037
3.3479
2.85408
2.33206
1.80432
1.30163
0.859345
0.517501
0.306725
0.214483
0.19629
0.222026
0.28141
0.371597
0.490229
0.633466
0.796399
0.973886
1.16129
1.3548
1.55147
1.74928
1.94696
2.14337
2.33831
2.5317
2.72364
2.9143
3.10378
3.29204
3.47884
3.66367
3.84574
4.02389
4.19659
4.36166
4.51593
4.65428
4.76807
4.84319
0.195332
3.64638
5.47454
6.27812
6.69957
7.07553
7.48511
7.90254
8.16637
7.91877
6.56954
5.0349
3.75683
3.04101
3.10257
3.58234
4.14695
4.30427
4.18296
3.88734
3.47992
3.00015
2.47487
1.92589
1.38041
0.872268
0.447556
0.171646
0.0644937
0.0407628
0.0395452
0.0484462
0.0696588
0.109487
0.174592
0.268806
0.391582
0.538929
0.705415
0.885772
1.07562
1.27169
1.47177
1.67441
1.87873
2.08438
2.29059
2.49709
2.70352
2.90927
3.11348
3.31508
3.51264
3.7044
3.88819
4.06126
4.21995
4.35905
4.47062
4.54252
0.169544
3.27846
5.2948
6.16363
6.59651
6.96752
7.3414
7.66946
7.70179
6.99197
5.49313
4.10042
3.05947
2.72522
3.05809
3.64422
4.10652
4.14696
3.94992
3.60075
3.15183
2.63807
2.0841
1.51513
0.963532
0.473819
0.135485
0.0282865
0.0254559
0.0304384
0.0304709
0.0276842
0.0252431
0.0272211
0.0386244
0.0666381
0.120035
0.205005
0.322052
0.466946
0.633619
0.81645
1.0111
1.21446
1.42446
1.63961
1.8587
2.08058
2.30383
2.5269
2.74815
2.96575
3.17761
3.38135
3.5742
3.75291
3.91352
4.05085
4.15798
4.22527
0.163007
2.77794
4.9006
5.91584
6.3529
6.65758
6.96171
7.17067
6.94513
5.77373
4.37229
3.16887
2.47544
2.55877
3.07997
3.74564
4.02472
3.96027
3.69395
3.29565
2.80877
2.26389
1.6863
1.10901
0.571467
0.161931
0.0235564
0.0355991
0.0437666
0.0446697
0.0441524
0.0429571
0.0406946
0.0364784
0.0303123
0.0257883
0.0289198
0.0463797
0.0875537
0.161644
0.272076
0.415766
0.586541
0.778254
0.985896
1.20555
1.43406
1.66861
1.90655
2.14524
2.382
2.6138
2.83789
3.05115
3.25037
3.43184
3.59129
3.72369
3.82313
3.88299
0.174428
2.59411
4.42199
5.53558
5.97912
6.18856
6.42109
6.47278
5.8986
4.56042
3.30905
2.37792
2.12772
2.54142
3.17838
3.77445
3.90247
3.74649
3.41787
2.9744
2.45248
1.87946
1.28892
0.719303
0.241826
0.0277619
0.0372457
0.04587
0.0461901
0.0457819
0.0452908
0.0447872
0.0442525
0.0435752
0.0424352
0.0400269
0.0351286
0.0286211
0.0265931
0.0369392
0.0696176
0.137142
0.247218
0.3986
0.584223
0.795725
1.02556
1.26742
1.51596
1.76659
2.01519
2.25785
2.49087
2.71042
2.91267
3.09324
3.24765
3.37053
3.45639
3.50183
0.192341
2.63521
4.10838
5.10266
5.50459
5.60971
5.75125
5.60008
4.63124
3.4189
2.3835
1.83314
2.03143
2.62682
3.33678
3.7466
3.74375
3.50696
3.12259
2.63797
2.08415
1.49031
0.899652
0.369401
0.0514761
0.0311364
0.0455953
0.0462231
0.0460039
0.0456686
0.0452877
0.0448906
0.0444966
0.0441149
0.0437429
0.0433276
0.0426926
0.0413089
0.037941
0.0317731
0.0273242
0.0343167
0.0652232
0.13722
0.261992
0.436725
0.649313
0.886573
1.13769
1.39432
1.64991
1.89898
2.13664
2.35825
2.55915
2.73438
2.87852
2.98514
3.04691
3.05985
0.203015
2.67357
3.94462
4.69347
4.95761
4.99136
5.00457
4.56532
3.46103
2.42205
1.68631
1.59433
2.10848
2.7771
3.46077
3.65892
3.54582
3.24099
2.80803
2.28669
1.70469
1.10247
0.533005
0.113747
0.0199649
0.0435382
0.0452996
0.0454273
0.0453914
0.0452628
0.0450587
0.0448
0.0445067
0.0441975
0.0438926
0.0436037
0.0433409
0.0430828
0.0427155
0.0418485
0.0393336
0.03368
0.0288989
0.0377242
0.0785309
0.174487
0.333716
0.542557
0.781327
1.03417
1.28977
1.53977
1.7774
1.99666
2.19171
2.35643
2.48391
2.56535
2.58779
2.52834
0.199098
2.65137
3.69968
4.24903
4.39838
4.44083
4.28182
3.46375
2.46056
1.63935
1.29113
1.62634
2.26756
2.9679
3.47749
3.5251
3.31748
2.95119
2.47496
1.92119
1.32089
0.725542
0.223867
0.0194533
0.0386941
0.0435506
0.0439559
0.0441971
0.0443798
0.0444826
0.044501
0.0444407
0.0443108
0.0441279
0.0439131
0.0436848
0.0434652
0.0432664
0.0431015
0.0429732
0.0427934
0.0421548
0.0396778
0.033718
0.0314336
0.0520613
0.122947
0.263829
0.463223
0.695896
0.941269
1.18527
1.41777
1.63043
1.81556
1.96519
2.07008
2.11775
2.08709
1.92959
0.194328
2.55273
3.34691
3.7482
3.93836
3.97116
3.48002
2.49659
1.63642
1.1202
1.21969
1.80168
2.46388
3.17262
3.42164
3.33983
3.05661
2.63817
2.12402
1.5428
0.939238
0.380862
0.0459547
0.0286795
0.0415961
0.0421852
0.0424614
0.0427642
0.0430625
0.0433325
0.0435506
0.0437019
0.043778
0.0437834
0.0437268
0.0436186
0.0434808
0.0433327
0.0431993
0.043103
0.0430604
0.0430792
0.0430452
0.0422865
0.0386536
0.0327199
0.0410371
0.0920405
0.212647
0.396359
0.614574
0.842694
1.06396
1.26606
1.4384
1.57038
1.64968
1.65948
1.57156
1.32365
0.191294
2.30885
2.95743
3.28568
3.52168
3.39377
2.49302
1.61613
1.01563
0.923768
1.39062
2.01136
2.68797
3.22924
3.29628
3.1119
2.76536
2.30278
1.75624
1.15938
0.572831
0.121146
0.0160007
0.0395788
0.0408272
0.0409615
0.0411472
0.0413937
0.0416833
0.0419958
0.0423103
0.0426057
0.0428603
0.0430606
0.0431947
0.0432622
0.0432771
0.0432476
0.0431911
0.0431349
0.0431095
0.0431456
0.0432675
0.0434679
0.0434591
0.0417482
0.0360487
0.0366285
0.0709159
0.168292
0.32882
0.523372
0.723974
0.910829
1.06872
1.18364
1.23996
1.21703
1.08272
0.779265
0.188298
2.01997
2.50611
2.68977
2.77788
2.27366
1.48012
0.895269
0.715843
1.05522
1.62735
2.23033
2.90887
3.18088
3.11598
2.85017
2.44863
1.94742
1.37407
0.779878
0.253419
0.0185637
0.0354476
0.0399065
0.0400047
0.040044
0.0401352
0.0402853
0.0404899
0.0407422
0.0410325
0.041348
0.0416716
0.0419875
0.0422761
0.0425233
0.0427191
0.0428548
0.0429422
0.0430002
0.0430455
0.043106
0.0432241
0.0434422
0.0437828
0.0441557
0.0437255
0.0398229
0.0357796
0.0544975
0.124168
0.251845
0.412006
0.574094
0.714736
0.815075
0.856732
0.818001
0.669917
0.379362
0.18575
1.71244
2.0054
1.97538
1.74609
1.16759
0.711148
0.551411
0.807228
1.31578
1.85264
2.46781
2.97898
3.05923
2.88867
2.55596
2.1079
1.57406
0.988162
0.42421
0.0547815
0.0245949
0.0388959
0.0392275
0.0392672
0.0393113
0.0393737
0.0394608
0.0395819
0.0397433
0.039947
0.0401921
0.0404747
0.0407882
0.0411194
0.0414535
0.041775
0.0420685
0.0423258
0.0425402
0.0427168
0.0428788
0.0430515
0.0432656
0.0435742
0.0440313
0.0446345
0.0450397
0.0434523
0.0383308
0.0428564
0.0811032
0.164981
0.277932
0.389856
0.474209
0.509256
0.475715
0.358128
0.1633
0.200678
1.32447
1.44037
1.2692
0.8171
0.507165
0.42016
0.640262
1.08216
1.55069
2.08067
2.69859
2.94119
2.87499
2.61744
2.22915
1.74328
1.18526
0.611689
0.142957
0.0129743
0.0373356
0.0385448
0.0385583
0.038588
0.0386461
0.0387221
0.0388085
0.0389039
0.0390127
0.0391428
0.0393019
0.0394961
0.0397288
0.0399996
0.0403061
0.0406418
0.0409939
0.0413481
0.0416916
0.0420162
0.0423179
0.0426012
0.0428893
0.0432138
0.0436175
0.0441658
0.0449057
0.0457798
0.046097
0.0437446
0.0401606
0.0496747
0.0844595
0.138861
0.191036
0.21674
0.19856
0.133529
0.0516642
0.259926
0.980349
0.782438
0.497767
0.335528
0.337557
0.553622
0.927504
1.32249
1.77186
2.32819
2.76812
2.8127
2.63096
2.30283
1.87033
1.35658
0.795817
0.277192
0.0205436
0.0325345
0.0380321
0.0380674
0.0380342
0.0380307
0.0380613
0.0381246
0.0382129
0.038316
0.0384259
0.038539
0.0386577
0.038789
0.0389419
0.0391249
0.0393444
0.0396035
0.0399024
0.0402393
0.0406077
0.0409953
0.0413902
0.0417866
0.0421824
0.0425816
0.0430099
0.0435051
0.044117
0.0449171
0.0459497
0.047129
0.0478376
0.0467654
0.0444182
0.0460793
0.0532902
0.0588462
0.054706
0.0429989
0.0373439
0.180968
0.293293
0.233047
0.244112
0.344766
0.55789
0.846987
1.16124
1.53624
2.00332
2.54784
2.70593
2.60114
2.3285
1.94479
1.48139
0.956429
0.430223
0.0625411
0.0193026
0.0371537
0.0376532
0.0376298
0.0376114
0.0376055
0.0376149
0.0376452
0.0377008
0.0377816
0.0378831
0.037998
0.0381196
0.0382434
0.0383692
0.0385017
0.0386492
0.0388215
0.0390272
0.0392733
0.0395637
0.0399
0.0402807
0.0406987
0.0411441
0.0416116
0.0420988
0.0426107
0.0431736
0.0438231
0.0446176
0.0456124
0.0468586
0.0483058
0.0497742
0.0509304
0.0515331
0.0516889
0.0512691
0.0490964
0.0433938
0.0367042
0.0405441
0.0447782
0.0497822
0.0559079
0.0634604
0.0727476
0.0841708
0.0982326
0.115512
0.136644
0.162398
0.193942
0.233373
0.28452
0.353427
0.445476
0.551591
0.610031
0.448661
0.0364976
0.0399073
0.0437045
0.0482798
0.0539964
0.0611768
0.0701576
0.0813894
0.0954637
0.113107
0.135159
0.16263
0.19695
0.24054
0.297802
0.37604
0.482817
0.60976
0.690797
0.576793
0.036288
0.0392443
0.042574
0.0466713
0.0519006
0.0585898
0.0670861
0.0778575
0.0915429
0.108976
0.131177
0.159382
0.19524
0.241315
0.302006
0.384347
0.495039
0.62511
0.719797
0.639863
0.0360835
0.038581
0.0414311
0.0450203
0.0497056
0.0558108
0.0636775
0.0737579
0.0866796
0.103308
0.124764
0.152443
0.188124
0.23433
0.29497
0.37577
0.481575
0.605078
0.706716
0.707195
0.0358911
0.0379423
0.0403206
0.0433939
0.047504
0.0529638
0.0600997
0.0693246
0.0811999
0.0965269
0.116408
0.142267
0.175905
0.21968
0.276846
0.351674
0.447468
0.559438
0.663978
0.719259
0.0357165
0.0373496
0.0392814
0.0418532
0.0453847
0.0501728
0.0565254
0.0648076
0.0754837
0.0892127
0.106943
0.129967
0.159952
0.19901
0.249794
0.315416
0.398196
0.495746
0.595824
0.6755
0.0355638
0.0368194
0.0383439
0.0404473
0.0434233
0.0475487
0.0531118
0.0604353
0.0698877
0.0819552
0.09734
0.117045
0.142432
0.175247
0.217605
0.271824
0.339686
0.420509
0.508581
0.592382
0.0354357
0.0363621
0.0375277
0.0392095
0.0416748
0.0451785
0.0499874
0.05639
0.0646849
0.0752106
0.0884145
0.104937
0.125694
0.151924
0.185166
0.227108
0.279167
0.341596
0.412246
0.486001
0.0353333
0.0359829
0.0368405
0.0381539
0.0401691
0.0431187
0.0472439
0.0528029
0.06005
0.069234
0.0806205
0.0945425
0.111471
0.132076
0.157237
0.187965
0.225209
0.269487
0.320347
0.375969
0.0352573
0.0356806
0.036275
0.0372742
0.038913
0.0413971
0.0449374
0.0497613
0.0560908
0.0641256
0.074046
0.0860263
0.100262
0.117001
0.136531
0.159155
0.185165
0.214811
0.248156
0.284829
0.0352083
0.0354469
0.0358109
0.0365449
0.0378718
0.0399695
0.0430149
0.047186
0.0526322
0.0594804
0.0678534
0.0778649
0.0896255
0.103225
0.118633
0.135595
0.153737
0.172825
0.192469
0.210048
0.0350531
0.035211
0.035196
0.0353072
0.0355689
0.0359473
0.0363922
0.0368226
0.0371745
0.0375371
0.0381585
0.0393662
0.0416101
0.0454142
0.0514524
0.0613921
0.0781997
0.106197
0.147119
0.201406
0.00644935
0.0166955
0.00993677
0.00757534
0.008086
0.0111156
0.0169918
0.0261602
0.0387982
0.0548723
0.0747531
0.0985458
0.125889
0.157406
0.195777
0.242621
0.295981
0.35209
0.408823
0.476984
0.068366
0.0506334
0.0711196
0.0892817
0.107426
0.126322
0.146249
0.167686
0.191038
0.216635
0.244299
0.272856
0.300212
0.336511
0.396715
0.466839
0.537225
0.596297
0.643513
0.726585
0.0508337
0.0906565
0.119873
0.148407
0.177613
0.206596
0.235187
0.263767
0.293066
0.323404
0.353587
0.379968
0.403283
0.444865
0.487279
0.52967
0.568914
0.597006
0.626197
0.67035
0.0328121
0.0700138
0.0885401
0.111689
0.137969
0.165437
0.193202
0.220742
0.247751
0.273938
0.29906
0.324296
0.354966
0.393531
0.424634
0.444739
0.454245
0.453762
0.451805
0.454165
0.0186497
0.0391042
0.0555808
0.0754775
0.097527
0.120377
0.143151
0.165347
0.186618
0.206803
0.226215
0.246214
0.268693
0.292091
0.310189
0.318279
0.315105
0.302229
0.283637
0.261535
0.0109568
0.01681
0.027646
0.0395217
0.0538895
0.0702897
0.0873496
0.104127
0.120038
0.134818
0.148541
0.161565
0.173915
0.184217
0.189812
0.188105
0.178051
0.160702
0.138571
0.113979
0.00767725
0.00978412
0.0212679
0.0253082
0.0283011
0.0340593
0.0417771
0.0504096
0.0591083
0.0672811
0.0745581
0.0806766
0.0852288
0.0874086
0.0861661
0.0807917
0.0715711
0.06003
0.0484528
0.0389173
0.00669976
0.00884894
0.023293
0.0309441
0.0298013
0.0284401
0.0280546
0.0286951
0.0300609
0.0317411
0.0333615
0.034618
0.0352675
0.0351495
0.0342939
0.0330618
0.032156
0.0323289
0.0338234
0.0360678
0.00670679
0.00894444
0.0240803
0.0340243
0.034402
0.0339601
0.0334878
0.033015
0.0326206
0.0323787
0.0323387
0.0325299
0.0329766
0.0337024
0.0347025
0.0358948
0.0371096
0.0381603
0.0389405
0.0394474
0.00645188
0.00966917
0.0265592
0.03482
0.0350686
0.0349941
0.0349894
0.0350166
0.0350744
0.0351755
0.0353364
0.0355717
0.0358886
0.0362804
0.0367218
0.037172
0.0375871
0.037934
0.038197
0.0383759
0.00795188
0.0119246
0.0310511
0.0352469
0.0351645
0.0351121
0.0351204
0.0351557
0.0352134
0.0352963
0.0354089
0.0355557
0.0357391
0.0359564
0.0361974
0.0364447
0.0366784
0.0368809
0.0370416
0.0371563
0.0100987
0.0204535
0.0348697
0.0353018
0.0351802
0.0351487
0.0351486
0.0351629
0.0351887
0.0352264
0.0352776
0.0353437
0.0354256
0.0355222
0.0356292
0.0357396
0.0358451
0.0359382
0.036014
0.0360702
0.0604917
0.0783522
0.0878142
0.0965404
0.104328
0.109679
0.112695
0.113834
0.113464
0.112431
0.111467
0.110204
0.10895
0.108091
0.108257
0.265665
0.307437
0.478036
0.640868
0.737147
0.780237
0.798118
0.799452
0.789192
0.770605
0.746081
0.717963
0.688077
0.65745
0.626027
0.495345
0.323831
0.361545
0.470856
0.576729
0.635396
0.654578
0.65399
0.644487
0.631454
0.61757
0.604602
0.594401
0.589647
0.594706
0.604718
0.494686
0.425222
0.405712
0.411954
0.431177
0.457885
0.485647
0.512159
0.536845
0.559983
0.582869
0.607998
0.638843
0.678591
0.685205
0.6264
0.583035
0.560668
0.557739
0.567672
0.584138
0.604515
0.625738
0.645925
0.665229
0.685749
0.71023
0.739336
0.770481
0.709966
0.706719
0.696944
0.695236
0.704014
0.716514
0.727449
0.736105
0.742357
0.74749
0.75401
0.763378