/*--------------------------------*- C++ -*----------------------------------*\
| =========                 |                                                 |
| \\      /  F ield         | OpenFOAM: The Open Source CFD Toolbox           |
|  \\    /   O peration     | Version:  v1912                                 |
|   \\  /    A nd           | Website:  www.openfoam.com                      |
|    \\/     M anipulation  |                                                 |
\*---------------------------------------------------------------------------*/
FoamFile
{
    version     2.0;
    format      ascii;
    class       volScalarField;
    location    "32";
    object      p;
}
// * * * * * * * * * * * * * * * * * * * * * * * * * * * * * * * * * * * * * //

dimensions      [1 -1 -2 0 0 0 0];


internalField   nonuniform List<scalar> 
20320
(
419544
429798
429824
429876
429947
430035
430137
430252
430376
430506
430639
430772
430903
431027
431142
431246
431335
431409
431465
431500
399621
409534
409568
409622
409694
409783
409886
410001
410126
410256
410390
410524
410654
410778
410893
410996
411083
411154
411204
411235
380297
389898
389933
389988
390061
390150
390253
390368
390493
390623
390756
390889
391019
391142
391255
391356
391442
391512
391562
391595
361573
370875
370909
370963
371036
371124
371227
371341
371464
371594
371726
371857
371985
372106
372217
372317
372401
372470
372521
372558
343436
352445
352480
352533
352604
352691
352792
352905
353026
353154
353284
353414
353539
353658
353767
353863
353946
354014
354066
354105
325873
334597
334630
334682
334751
334836
334935
335045
335164
335288
335416
335543
335665
335781
335887
335981
336061
336127
336179
336220
308871
317315
317347
317397
317464
317545
317640
317747
317861
317982
318105
318228
318346
318458
318560
318650
318726
318790
318841
318884
292417
300588
300618
300666
300729
300806
300896
300997
301106
301220
301337
301453
301566
301671
301767
301852
301924
301984
302033
302076
276500
284403
284431
284475
284533
284605
284689
284782
284882
284988
285096
285203
285306
285402
285490
285566
285630
285684
285730
285772
261108
268749
268774
268814
268866
268930
269005
269088
269177
269271
269366
269459
269549
269632
269706
269769
269823
269867
269907
269946
246231
253614
253636
253670
253715
253769
253832
253902
253977
254054
254131
254205
254275
254338
254392
254437
254473
254503
254534
254565
231859
238989
239007
239034
239070
239113
239162
239215
239270
239325
239378
239427
239469
239502
239527
239543
239552
239560
239575
239594
217981
224864
224876
224895
224920
224949
224981
225013
225045
225072
225093
225106
225109
225101
225083
225055
225023
224995
224983
224980
204587
211226
211233
211243
211256
211268
211280
211288
211290
211282
211263
211230
211180
211113
211031
210938
210841
210756
210699
210656
191669
198069
198070
198070
198069
198064
198052
198032
197999
197951
197882
197789
197669
197522
197349
197156
196957
196777
196644
196532
179215
185382
185376
185366
185350
185325
185289
185238
185166
185069
184941
184776
184567
184312
184011
183670
183310
182969
182698
182459
167215
173154
173141
173121
173090
173045
172983
172899
172786
172636
172441
172191
171874
171481
171006
170451
169836
169214
168682
168193
155659
161374
161356
161325
161279
161214
161127
161009
160853
160649
160383
160039
159598
159040
158343
157489
156482
155373
154311
153278
144535
150033
150009
149968
149908
149825
149713
149563
149367
149109
148772
148333
147762
147021
146063
144829
143261
141335
139167
136756
133829
139118
139088
139038
138966
138866
138731
138554
138320
138014
137613
137086
136391
135471
134243
132587
130327
127202
122865
116672
117642
120109
119384
118427
117295
116006
114653
113835
114664
114400
99244.9
87832.8
84092.5
80728.4
78520.2
78113.6
78113.5
78538.9
78817.7
79639.2
81131.2
108000
311068
273482
204568
149891
109308
80593.5
61284
48771.9
40881.1
36005.5
33039.4
31236.2
30185.8
29586
29248.8
29076.9
28998.7
28977.6
28989.6
29016
29046.1
29075.7
29103.6
29130.5
29156.8
29184.9
29218.6
29260.8
29317.7
29392.7
29489.3
29622.3
29779
29946.1
30195.6
30238.3
30294.5
30542.3
112388
114877
114267
113376
112240
110926
109574
108712
109103
108476
96600.9
86102.7
83309.4
80260.7
76427.5
76156.2
76128.6
76146.2
76317
76704.1
77494.9
84138.4
230102
228567
183349
137099
100000
73023.1
54673.5
42742.5
35215.7
30571.1
27770
26062.1
25051.4
24482
24168.9
24012.6
23947
23933.6
23949.3
23977.8
24008.4
24036.4
24061.2
24083.9
24105.8
24130
24159.8
24199.9
24255.7
24336.3
24447.4
24582.7
24736.2
24896.1
25108.8
25411.1
25647.9
25635.1
107224
109685
109114
108296
107277
106058
104818
103743
103421
102169
94843.2
85526.6
83405
79594.4
76517.7
76221
76155.4
76141.8
76246.1
76518.8
76923.3
91091.2
186600
191016
160597
122048
88637.6
63766.9
46811
35848.3
28978
24756.6
22199.2
20676
19783.1
19277.5
19003.7
18870.2
18817.8
18811.4
18830.3
18859.9
18888.3
18912
18932.4
18950.5
18967
18986
19011
19048.4
19106.2
19190.6
19305.5
19447.8
19609.3
19804.1
20045.3
20317
20528.4
20587.6
102407
104675
104241
103652
102615
101317
99869.4
98546.9
97694.6
96391.8
91997
84905
80938.1
77171
76306.3
76172.9
76149.2
76114.2
76178
76352.6
76566.2
103489
145409
154222
133962
102644
73537.2
51626.4
36873.1
27527.6
21777.5
18291.9
16206.6
14974.6
14261.6
13863.1
13654.4
13560.5
13531.2
13537.8
13565.2
13601.9
13631.4
13652.7
13671.3
13687.1
13700
13715.8
13737.6
13773.3
13832.4
13918.8
14037.2
14188.9
14363.4
14590.8
14866
15118.2
15331.4
15459.2
97326.4
99844.9
99454.8
98615.4
97520.8
96243.2
94817.1
93387.6
92214.4
90815.2
88106.3
82892.9
78369.3
76732.2
76061.5
76123
76132.9
76071.7
76110
76251.3
78311.5
90903.1
111869
118804
104218
78755.5
54297.5
36289.8
24675.9
17668.6
13539.7
11117.9
9712.25
8913.49
8464.68
8224.89
8114.6
8084.32
8092.83
8121.35
8164.6
8217.93
8252.42
8272.42
8291.95
8308.36
8318.81
8333.79
8353.83
8388.93
8450.78
8537.85
8659.26
8823.91
9009.5
9274.55
9585.27
9797.64
10032.4
10294.3
92290.3
94481.8
94246.9
93585.5
92452.9
91145.2
89750.2
88279.8
86920.3
86444.5
84656.4
80286.5
75191.4
75697.4
75837.4
76065
76108.7
76020.1
76094.5
75829.2
73787
75806.8
84601.1
86264.2
73050.5
51191.6
30838.7
17133.4
9598.07
5892.51
4078.21
3162.51
2715.65
2503.94
2413.4
2413
2439.59
2494.49
2549.29
2597.31
2653
2739.03
2776.54
2785.49
2807.27
2826.77
2828.63
2841.88
2851.01
2874.78
2933.57
3002
3107.55
3286.97
3434.88
3806.51
4217.42
4269.88
4584.08
5162.21
87392.6
89690.4
89530.8
88593.3
87315.5
86001.4
84666.6
83221.4
81768.7
81353.8
80519.5
77654.1
72845.1
75431.8
75755.2
75929.3
75964.9
75896.1
76037.5
72980.4
64806.9
61642.9
61606.3
57054.8
41747.5
19357.1
2967.05
483.307
32.813
12.7181
-1.95373
-11.5714
-18.2723
-22.8178
-25.9685
-28.1437
-29.6819
-30.5023
-30.1285
-29.1592
-27.7605
-25.8165
-24.5552
-23.9478
-23.2241
-22.8332
-22.7414
-22.7296
-22.7674
-22.0309
-20.5378
-18.1257
-13.2238
-2.09899
17.2978
85.2157
161.749
139.518
322.052
698.121
83044.7
84974.2
84367.7
83509.6
82650.4
81382.5
79932.8
78216.1
76697.3
75866.5
75479.1
74312.5
71515.9
74597.9
75517.6
75685.4
75682.5
75126.9
75064.8
65065.8
55546.5
48221
41797.4
31295.5
10410.4
87.2546
60.8222
42.0764
26.414
10.3103
-3.16972
-12.5344
-19.547
-24.7119
-28.559
-31.5513
-34.0732
-35.9063
-36.7929
-37.0969
-37.3255
-37.213
-36.773
-36.5648
-36.3664
-36.0624
-35.7036
-35.3745
-35.0606
-34.9883
-34.8787
-34.7268
-34.6955
-34.3588
-33.7861
-33.3352
-32.8801
-32.4804
-35.5577
-36.3184
78635.8
80055.4
79180.7
78734.4
77831.6
76626.6
74989.8
73305.1
71706.1
70488.7
70134
70587.1
70011
73377.7
74019.5
74699.6
73966.4
76132.1
69642.3
57349
46086.5
35568.6
24644.4
8071.47
68.4013
56.308
41.9928
23.6406
8.84037
-3.1016
-13.3584
-21.2449
-27.2208
-31.699
-35.0762
-37.6834
-39.8001
-41.4258
-42.4289
-42.9451
-43.1898
-43.1952
-42.9377
-42.6898
-42.4497
-42.1519
-41.8111
-41.4778
-41.1639
-40.9785
-40.827
-40.6644
-40.5131
-40.1471
-39.513
-38.9508
-38.5478
-38.3183
-39.5378
-39.8508
73716.7
75068
74240.1
73815.7
72720
71488.8
70256.2
68926.2
67184.3
65447.7
64275.7
63615.8
68018
72386.3
72614.3
71865.3
72493.3
75008.9
62308.4
49383.1
36586.7
23796.1
9012.95
93.535
30.9012
31.6499
18.3604
5.14643
-6.23946
-15.5902
-23.5428
-29.9151
-34.8834
-38.7034
-41.6416
-43.9313
-45.7652
-47.2035
-48.1984
-48.7938
-49.1129
-49.197
-49.0554
-48.8415
-48.6019
-48.3192
-48.0047
-47.6897
-47.4
-47.1996
-47.0521
-46.9158
-46.761
-46.4374
-45.8987
-45.343
-44.9057
-44.6886
-45.2062
-45.2495
68422.1
69902.6
69597.2
68693.5
67739.3
66665.1
65513.6
64129.4
62590.7
60987
60003.5
59234.4
60390
69345.9
70654.7
69432.8
72441.9
68978.2
54723.9
41163.9
27214.6
12498.4
420.492
2.93657
10.9152
5.11798
-3.24059
-12.405
-20.8389
-27.9961
-34.0443
-39.0081
-42.9801
-46.1091
-48.5627
-50.4991
-52.0532
-53.291
-54.2049
-54.8109
-55.1675
-55.3071
-55.2476
-55.0795
-54.8594
-54.5974
-54.3071
-54.0125
-53.7408
-53.5352
-53.3852
-53.2561
-53.0993
-52.8091
-52.3437
-51.8192
-51.3713
-51.1118
-51.217
-51.0794
63125
64635.4
64472.3
63522.3
62562.1
61433.9
60279.1
59155.4
57990.2
56864.7
58060
59031.8
58911.3
63850
65625.4
67080.9
67791.6
60822.5
47022.5
32808.4
17955.9
2389.38
-3.69285
-11.6232
-12.4021
-16.5692
-22.1442
-28.5147
-34.5955
-39.9039
-44.4201
-48.1886
-51.2698
-53.7507
-55.7334
-57.3219
-58.6105
-59.6518
-60.4527
-61.0207
-61.3802
-61.5488
-61.542
-61.4169
-61.2236
-60.9851
-60.7184
-60.4442
-60.1896
-59.9856
-59.8331
-59.703
-59.5436
-59.2748
-58.8642
-58.3799
-57.9317
-57.6178
-57.4889
-57.2136
57771.9
59497.8
59148.8
58304.1
57412.1
56441.5
55552
54415.8
53333.9
52675
54226.6
58870.7
57766.4
58178.5
63408
67570.4
64088.5
52488.5
39080.1
24423.4
8351.23
60.2764
-30.8282
-29.1794
-31.5807
-34.6322
-38.5588
-42.9845
-47.2927
-51.138
-54.4521
-57.2574
-59.5935
-61.5126
-63.0735
-64.3438
-65.3884
-66.2451
-66.9225
-67.4245
-67.7601
-67.9342
-67.9575
-67.8653
-67.699
-67.484
-67.2393
-66.9854
-66.7471
-66.5489
-66.3945
-66.2608
-66.0987
-65.846
-65.4777
-65.0343
-64.5956
-64.2335
-63.9561
-63.562
52385.9
54249.1
53861.9
53016.7
52255.4
51582.6
50616.2
49456.6
48507.6
48256.1
48735.3
56460.5
53258.1
53170.5
59833.7
62851.3
55965.5
44487.7
31047.7
15937.9
921.355
-43.568
-42.4848
-45.1227
-47.5136
-49.9718
-52.8151
-55.9047
-58.9131
-61.6442
-64.0359
-66.0923
-67.836
-69.2963
-70.5038
-71.5016
-72.334
-73.0256
-73.5831
-74.0085
-74.3035
-74.4664
-74.501
-74.4306
-74.2867
-74.0929
-73.8678
-73.6335
-73.4111
-73.2205
-73.0657
-72.9281
-72.7657
-72.5281
-72.1952
-71.7913
-71.3677
-70.9691
-70.5871
-70.0853
46981
49245
48487.3
47661.1
46940.8
46314.8
45457.5
44254.3
43448.8
43482.4
43898.3
46487.8
46672.8
47118.7
55658.9
61650.6
48380.5
36727.6
23107
7134.06
23.8957
-52.3856
-55.7062
-58.9018
-61.1732
-63.1992
-65.3176
-67.476
-69.5474
-71.4522
-73.1525
-74.6427
-75.9333
-77.0359
-77.9639
-78.7422
-79.3995
-79.9509
-80.4011
-80.7511
-80.9985
-81.1388
-81.172
-81.1133
-80.9854
-80.808
-80.6008
-80.3849
-80.1784
-79.9967
-79.844
-79.7054
-79.5465
-79.3265
-79.0264
-78.66
-78.254
-77.8314
-77.372
-76.7739
41951.7
44427
43138.4
42276.5
41585.2
41491
40451.7
39177.4
38134.1
38545.2
39356.2
39311.2
40886.7
44985.7
49971.4
51321
40928.3
29151.2
15254.5
739.26
-64.1577
-63.3159
-67.9827
-71.0676
-73.1329
-74.8438
-76.441
-77.9365
-79.3397
-80.6446
-81.8368
-82.91
-83.8647
-84.6998
-85.4168
-86.0272
-86.547
-86.9855
-87.3461
-87.628
-87.8281
-87.9409
-87.965
-87.9101
-87.7919
-87.6273
-87.4361
-87.2375
-87.0461
-86.8751
-86.7278
-86.5925
-86.4423
-86.2426
-85.9753
-85.6444
-85.2584
-84.8212
-84.3054
-83.6286
36928.3
39286.3
37807.7
36922.8
36633.8
36674
35760.1
34638.8
33067.4
32089.6
30611.9
32953.7
39145.2
41228.3
45705.9
41951.5
33286.4
21761.4
7314.4
2.76014
-71.0863
-75.1367
-79.2969
-82.0355
-83.8789
-85.3222
-86.5051
-87.5215
-88.4525
-89.3296
-90.1568
-90.93
-91.6422
-92.2831
-92.8465
-93.3333
-93.7503
-94.1026
-94.3921
-94.6175
-94.7749
-94.8604
-94.8721
-94.8155
-94.703
-94.5492
-94.3725
-94.19
-94.0135
-93.8545
-93.7165
-93.5904
-93.4533
-93.2764
-93.0421
-92.7448
-92.3795
-91.9362
-91.3818
-90.6458
31456.5
33851.9
32866.6
31601.5
31742.6
31624.4
31285
30184.2
28452.8
25671.2
25337
24880
34690.3
40255.5
35012
33507.5
25745
14663.4
1147.49
-83.7152
-81.0462
-86.3431
-89.8585
-92.1715
-93.7779
-94.9377
-95.7796
-96.4492
-97.048
-97.6241
-98.194
-98.755
-99.2953
-99.7986
-100.252
-100.651
-100.995
-101.284
-101.521
-101.702
-101.825
-101.886
-101.885
-101.825
-101.716
-101.572
-101.409
-101.242
-101.08
-100.935
-100.81
-100.698
-100.578
-100.426
-100.224
-99.9592
-99.6156
-99.1735
-98.5969
-97.8209
26113.7
28116.8
27259.5
25993.4
26775.4
26530.1
27226.5
26228.4
24474.9
20911.7
23363.8
23482.8
28667.5
31882
31927.4
26390
18882.3
7849.89
3.94508
-88.4782
-93.1442
-97.1338
-99.87
-101.758
-103.067
-103.929
-104.494
-104.909
-105.273
-105.64
-106.032
-106.444
-106.864
-107.269
-107.647
-107.985
-108.277
-108.524
-108.723
-108.872
-108.968
-109.01
-108.998
-108.935
-108.83
-108.696
-108.547
-108.394
-108.247
-108.118
-108.01
-107.916
-107.817
-107.691
-107.52
-107.286
-106.966
-106.533
-105.947
-105.148
20949.5
23089.7
22482.3
21374.3
23070.8
21288.1
19866.7
20763.4
21823
18786.5
20569.7
22742.7
21487
27448.6
26063.5
20452.7
12862.5
2072.87
-97.3208
-101.639
-104.505
-107.396
-109.466
-110.933
-111.905
-112.49
-112.833
-113.059
-113.258
-113.479
-113.746
-114.055
-114.388
-114.724
-115.047
-115.343
-115.602
-115.819
-115.994
-116.12
-116.198
-116.227
-116.207
-116.143
-116.044
-115.92
-115.784
-115.646
-115.516
-115.405
-115.316
-115.241
-115.165
-115.067
-114.928
-114.725
-114.43
-114.012
-113.427
-112.621
15804
17500.6
17028
17257.3
17440.9
14302.2
11635.5
11715.3
12728.5
16030.5
15027.3
20117
26140.1
23021.6
20878
15288.1
7516.36
89.5736
-108.971
-112.116
-115.061
-117.168
-118.71
-119.774
-120.427
-120.776
-120.942
-121.028
-121.109
-121.229
-121.408
-121.642
-121.91
-122.195
-122.479
-122.744
-122.98
-123.179
-123.337
-123.449
-123.516
-123.537
-123.514
-123.452
-123.36
-123.247
-123.125
-123.003
-122.891
-122.799
-122.73
-122.677
-122.625
-122.555
-122.448
-122.276
-122.008
-121.609
-121.036
-120.235
11984.2
13334.9
12888.8
13580.9
11937.1
11539.9
11535.3
11554.1
11601
11728.8
12442.2
14102
17645.2
19925.5
16003.8
10696.9
3009.32
-81.6851
-122.082
-122.945
-125.032
-126.561
-127.653
-128.355
-128.738
-128.898
-128.929
-128.913
-128.91
-128.958
-129.075
-129.251
-129.47
-129.714
-129.966
-130.208
-130.425
-130.611
-130.758
-130.863
-130.924
-130.942
-130.92
-130.864
-130.78
-130.68
-130.573
-130.467
-130.374
-130.303
-130.254
-130.222
-130.193
-130.152
-130.075
-129.935
-129.697
-129.322
-128.767
-127.983
11626.9
11588.6
11622.3
11577.7
11403.5
11454.2
11501
11540.5
11598.3
11704.3
11973.6
13184.9
16063.7
15332.7
11769.3
6622.51
289.496
-141.065
-130.58
-133.092
-134.569
-135.639
-136.346
-136.751
-136.926
-136.944
-136.877
-136.788
-136.726
-136.724
-136.794
-136.925
-137.103
-137.313
-137.536
-137.755
-137.956
-138.13
-138.27
-138.37
-138.429
-138.449
-138.432
-138.383
-138.31
-138.223
-138.131
-138.044
-137.971
-137.918
-137.889
-137.878
-137.872
-137.857
-137.811
-137.702
-137.495
-137.147
-136.619
-135.864
11504.1
11524.1
11440.2
11372.8
11395
11424.6
11461.3
11497.3
11543
11615.9
11753.1
11599.7
11965.6
11238.3
8093.18
3067.6
-90.29
-137.11
-141.409
-142.777
-143.761
-144.447
-144.847
-145.031
-145.056
-144.974
-144.84
-144.703
-144.603
-144.567
-144.601
-144.696
-144.837
-145.014
-145.209
-145.405
-145.588
-145.749
-145.882
-145.979
-146.04
-146.064
-146.054
-146.015
-145.953
-145.881
-145.806
-145.735
-145.681
-145.647
-145.637
-145.645
-145.661
-145.671
-145.652
-145.573
-145.397
-145.082
-144.588
-143.87
11397.1
11378.1
11350.6
11361.4
11377.5
11399.4
11425.4
11453.5
11489.2
11529.3
11614.3
11090.3
8799.56
7932.2
5021.67
660.693
-129.547
-150.869
-151.16
-152.023
-152.65
-153.036
-153.216
-153.251
-153.178
-153.032
-152.857
-152.691
-152.568
-152.512
-152.521
-152.585
-152.694
-152.838
-153.002
-153.172
-153.334
-153.482
-153.606
-153.702
-153.764
-153.794
-153.792
-153.764
-153.716
-153.658
-153.599
-153.546
-153.508
-153.492
-153.499
-153.525
-153.56
-153.592
-153.597
-153.546
-153.401
-153.122
-152.67
-152.001
11344.2
11343.8
11345.4
11349.7
11361.3
11376.9
11393.6
11413.2
11436.5
11457.7
11578.3
8461.92
6808.32
5523.75
2523.82
-141.42
-168.373
-159.862
-160.518
-160.946
-161.302
-161.475
-161.518
-161.463
-161.33
-161.147
-160.949
-160.768
-160.638
-160.572
-160.562
-160.599
-160.68
-160.793
-160.926
-161.067
-161.207
-161.339
-161.455
-161.547
-161.611
-161.646
-161.654
-161.638
-161.604
-161.56
-161.516
-161.477
-161.454
-161.454
-161.477
-161.519
-161.569
-161.618
-161.645
-161.618
-161.505
-161.266
-160.863
-160.254
11338
11331.1
11333.5
11337.3
11345.3
11357.3
11367.6
11380.1
11405.1
11437.7
11174.6
6690.15
5600
3744.32
569.678
-154.32
-164.131
-169.173
-169.388
-169.649
-169.804
-169.845
-169.81
-169.707
-169.544
-169.343
-169.135
-168.953
-168.825
-168.751
-168.724
-168.74
-168.795
-168.88
-168.985
-169.1
-169.218
-169.333
-169.437
-169.523
-169.587
-169.628
-169.645
-169.641
-169.62
-169.591
-169.56
-169.534
-169.524
-169.538
-169.573
-169.626
-169.689
-169.751
-169.793
-169.788
-169.705
-169.51
-169.166
-168.629
11337.7
11329.6
11323.1
11323.3
11328.4
11340.3
11343.2
11353
11375
11427
9370.55
5896.73
4608.46
2250.03
-381.599
-177.634
-177.912
-178.118
-178.183
-178.239
-178.252
-178.218
-178.145
-178.019
-177.845
-177.639
-177.434
-177.264
-177.138
-177.056
-177.014
-177.012
-177.046
-177.107
-177.186
-177.277
-177.374
-177.471
-177.562
-177.641
-177.703
-177.746
-177.772
-177.779
-177.772
-177.755
-177.736
-177.721
-177.722
-177.745
-177.79
-177.85
-177.92
-177.991
-178.044
-178.056
-178.002
-177.854
-177.578
-177.13
11288.5
11324.6
11311.7
11307.7
11309.8
11318.8
11309.2
11324.3
11353.4
11167.5
6853.97
5454.57
3653.07
869.382
-183.585
-189.667
-186.973
-186.976
-186.836
-186.778
-186.712
-186.644
-186.557
-186.425
-186.251
-186.049
-185.86
-185.7
-185.576
-185.489
-185.437
-185.421
-185.436
-185.476
-185.533
-185.605
-185.683
-185.763
-185.838
-185.906
-185.964
-186.009
-186.041
-186.057
-186.062
-186.056
-186.047
-186.042
-186.052
-186.081
-186.129
-186.192
-186.265
-186.338
-186.396
-186.42
-186.392
-186.291
-186.094
-185.759
11246
11296.6
11291.7
11288.9
11291.8
11289.7
11285.4
11299.5
11347.1
9877.63
6301
4881.82
2619.95
-164.427
-173.019
-197.765
-196.095
-195.616
-195.435
-195.324
-195.232
-195.158
-195.07
-194.943
-194.774
-194.585
-194.411
-194.261
-194.142
-194.054
-193.997
-193.969
-193.968
-193.99
-194.029
-194.083
-194.144
-194.209
-194.272
-194.329
-194.379
-194.421
-194.455
-194.479
-194.492
-194.497
-194.498
-194.501
-194.515
-194.546
-194.594
-194.656
-194.726
-194.796
-194.854
-194.884
-194.873
-194.815
-194.702
-194.515
11237.8
11240.4
11261.8
11265.7
11270.1
11261.2
11265.5
11284.7
11131.7
7458.25
5975.57
4111.21
1442.15
-407.993
-217.896
-203.514
-204.5
-204.2
-204.045
-203.927
-203.843
-203.78
-203.701
-203.584
-203.419
-203.249
-203.092
-202.954
-202.841
-202.755
-202.694
-202.658
-202.645
-202.652
-202.676
-202.714
-202.761
-202.811
-202.861
-202.91
-202.954
-202.992
-203.023
-203.047
-203.066
-203.079
-203.088
-203.098
-203.116
-203.146
-203.189
-203.245
-203.307
-203.369
-203.42
-203.448
-203.446
-203.416
-203.377
-203.383
11214.4
11185.8
11231.4
11239.9
11243.5
11249.2
11255.3
11289.4
9841.27
6879.8
5386.71
3128.43
199.687
-171.928
-211.826
-213.613
-213.185
-212.894
-212.74
-212.636
-212.575
-212.529
-212.465
-212.346
-212.2
-212.05
-211.91
-211.784
-211.679
-211.596
-211.533
-211.49
-211.468
-211.464
-211.476
-211.502
-211.535
-211.573
-211.612
-211.652
-211.69
-211.722
-211.749
-211.772
-211.791
-211.806
-211.821
-211.836
-211.854
-211.882
-211.919
-211.965
-212.016
-212.065
-212.104
-212.123
-212.115
-212.087
-212.065
-212.165
11203.3
11181.9
11191.4
11215.3
11220.6
11242.9
11260
11040.5
7809.06
6428.68
4525.66
1936.39
-408.93
-221.004
-222.628
-222.376
-221.932
-221.7
-221.564
-221.486
-221.449
-221.42
-221.358
-221.249
-221.122
-220.993
-220.868
-220.755
-220.659
-220.579
-220.515
-220.468
-220.439
-220.427
-220.43
-220.445
-220.467
-220.494
-220.524
-220.555
-220.586
-220.612
-220.636
-220.655
-220.672
-220.686
-220.7
-220.715
-220.733
-220.757
-220.786
-220.821
-220.858
-220.891
-220.915
-220.917
-220.892
-220.838
-220.762
-220.666
11177.9
11180.9
11172.4
11184.7
11204.6
11224.4
11243.8
9293.13
7248.84
5686.49
3435.38
620.445
-190.165
-233.819
-231.244
-231.237
-230.854
-230.662
-230.55
-230.499
-230.482
-230.461
-230.394
-230.3
-230.194
-230.083
-229.973
-229.873
-229.785
-229.708
-229.644
-229.595
-229.562
-229.545
-229.54
-229.546
-229.558
-229.577
-229.598
-229.622
-229.645
-229.666
-229.685
-229.701
-229.715
-229.726
-229.737
-229.747
-229.759
-229.777
-229.797
-229.82
-229.842
-229.86
-229.866
-229.849
-229.801
-229.714
-229.577
-229.357
11153.1
11162.6
11159.3
11169.2
11182.1
11219.4
10659.6
7988.46
6666.9
4680.99
2150.24
-265.132
-225.955
-242.465
-240.924
-240.308
-239.988
-239.808
-239.717
-239.687
-239.683
-239.653
-239.592
-239.513
-239.422
-239.327
-239.231
-239.142
-239.062
-238.989
-238.927
-238.877
-238.842
-238.82
-238.809
-238.807
-238.812
-238.823
-238.837
-238.853
-238.869
-238.885
-238.9
-238.912
-238.922
-238.93
-238.937
-238.942
-238.946
-238.953
-238.962
-238.972
-238.979
-238.981
-238.971
-238.938
-238.872
-238.762
-238.591
-238.342
11134.7
11143.9
11144.9
11153
11170.6
11020.4
8704.89
7457.34
5726.57
3455.39
770.24
-217.894
-256.075
-251.261
-250.184
-249.585
-249.298
-249.14
-249.069
-249.053
-249.049
-249.013
-248.957
-248.889
-248.812
-248.73
-248.647
-248.569
-248.495
-248.426
-248.367
-248.318
-248.281
-248.256
-248.24
-248.231
-248.23
-248.234
-248.241
-248.251
-248.261
-248.272
-248.283
-248.291
-248.298
-248.302
-248.305
-248.305
-248.302
-248.3
-248.294
-248.289
-248.282
-248.269
-248.247
-248.203
-248.13
-248.022
-247.869
-247.684
11118.8
11128.3
11129.8
11135.2
11127.8
9487.16
8082.38
6545.21
4511.77
2077.07
-206.398
-232.538
-261.595
-260.388
-259.465
-259.026
-258.788
-258.66
-258.607
-258.596
-258.575
-258.54
-258.492
-258.433
-258.367
-258.296
-258.224
-258.155
-258.087
-258.023
-257.966
-257.919
-257.882
-257.854
-257.834
-257.821
-257.814
-257.813
-257.814
-257.816
-257.821
-257.828
-257.835
-257.84
-257.843
-257.844
-257.842
-257.837
-257.829
-257.821
-257.807
-257.788
-257.764
-257.738
-257.706
-257.658
-257.592
-257.508
-257.412
-257.326
11094
11113.3
11118.4
11110.3
9818.12
8578.67
7118.68
5309.44
3144.56
639.994
-199.917
-274.358
-270.357
-269.497
-268.941
-268.646
-268.469
-268.371
-268.331
-268.309
-268.281
-268.245
-268.202
-268.149
-268.091
-268.03
-267.968
-267.906
-267.844
-267.785
-267.732
-267.687
-267.65
-267.62
-267.597
-267.581
-267.57
-267.564
-267.558
-267.555
-267.556
-267.558
-267.561
-267.562
-267.562
-267.559
-267.554
-267.545
-267.533
-267.52
-267.5
-267.476
-267.445
-267.408
-267.366
-267.316
-267.26
-267.2
-267.138
-267.075
11051.3
11095.2
11098.7
9888.13
8848.76
7458.39
5865.59
3933.74
1668.15
-247.915
-264.118
-280.128
-279.63
-278.95
-278.646
-278.461
-278.343
-278.269
-278.23
-278.196
-278.165
-278.129
-278.087
-278.039
-277.988
-277.935
-277.881
-277.824
-277.768
-277.714
-277.666
-277.623
-277.587
-277.556
-277.532
-277.512
-277.498
-277.487
-277.477
-277.47
-277.466
-277.464
-277.463
-277.46
-277.456
-277.449
-277.44
-277.429
-277.414
-277.397
-277.375
-277.349
-277.316
-277.278
-277.235
-277.186
-277.135
-277.085
-277.031
-276.979
8965.46
10705.6
10010.3
9030.84
7702.58
6292.56
4617.96
2581.93
213.172
-125.388
-293.155
-290.046
-289.262
-288.819
-288.619
-288.499
-288.413
-288.348
-288.298
-288.261
-288.227
-288.191
-288.15
-288.106
-288.06
-288.013
-287.964
-287.914
-287.863
-287.815
-287.77
-287.73
-287.696
-287.665
-287.64
-287.618
-287.6
-287.584
-287.571
-287.562
-287.554
-287.549
-287.543
-287.537
-287.529
-287.518
-287.507
-287.493
-287.476
-287.457
-287.434
-287.407
-287.373
-287.336
-287.295
-287.25
-287.205
-287.161
-287.114
-287.07
123534
128616
128581
128524
128441
128326
128173
127971
127707
127361
126907
126308
125513
124445
122989
120963
118046
113625
106276
92701
113359
118427
118388
118324
118232
118106
117938
117717
117429
117053
116560
115912
115049
113886
112293
110054
106792
101763
93453.7
78601.1
103213
108265
108223
108154
108055
107919
107740
107505
107200
106804
106289
105614
104721
103526
101903
99655.7
96468.8
91813.1
84821.9
74015.6
93095.9
98131.8
98087.4
98014.8
97910.4
97768.4
97581.1
97337.7
97023.7
96619.1
96096.5
95418
94530.5
93359.6
91798.9
89696
86828.7
82870.3
77350.6
69696
83010.5
88029.9
87983.9
87908.9
87801.2
87655.4
87464.1
87217.1
86900.6
86496.3
85979.5
85316.5
84461.8
83354
81910.3
80020.1
77536.5
74267.4
69979.2
64490.4
72957.3
77960.2
77913.4
77837.2
77728.1
77581
77389
77142.5
76829.2
76432.7
75931.4
75296.7
74491.2
73466.5
72160.8
70496.8
68380.7
65703.7
62354.4
58266.4
62936.7
67923.3
67876.4
67800.3
67691.4
67545.2
67355.1
67112.7
66806.8
66423.3
65943.6
65344.2
64595
63658.8
62490.5
61036.8
59238.2
57032.7
54365.9
51212.1
52948.4
57919.2
57873.1
57798.1
57691
57547.4
57361.3
57125.4
56829.8
56462.4
56007.5
55445.8
54753.4
53902
52858.5
51586.2
50047.2
48205.5
46033.4
43521.9
42991.9
47947.6
47903.1
47830.4
47726.3
47586.6
47406.1
47178.3
46894.7
46544.8
46115.6
45591.1
44952.3
44176.9
43240.5
42117.6
40783.9
39219.1
37409
35350
33065.2
38007.6
37965.9
37896.8
37796.6
37661.7
37487.7
37268.9
36998
36666
36262.1
35772.7
35182.3
34472.7
33624.5
32619.8
31444.4
30089
28548
26817.8
23164.8
28097.6
28061.1
27997.2
27901.4
27771.5
27604.3
27394.9
27136.7
26822.2
26442.6
25986.4
25440.2
24787.4
24010.2
23095
22038.7
20845.1
19513.3
18040.2
13280.8
18216
18189.8
18131.5
18039.8
17915.2
17755.5
17555.8
17310.6
17014.4
16659.9
16237.7
15736
15137.5
14419.8
13569.4
12595.3
11517.1
10341.7
9049.58
3373.77
8362.46
8353.9
8301.33
8213.2
8093.62
7939.81
7745.81
7507.28
7219.8
6876.66
6472.22
5999.2
5439.69
4732.71
3898.87
3026.51
2215.14
1524.18
981.042
-430.357
278.809
281.547
255.478
211.723
156.609
93.3393
23.0228
-53.1013
-134.14
-218.567
-303.411
-385.789
-428.362
-428.156
-428.498
-428.289
-426.891
-421.421
-421.383
-439.244
-433.837
-433.808
-433.792
-433.783
-433.781
-433.78
-433.781
-433.787
-433.807
-433.86
-433.973
-434.191
-434.662
-435.057
-435.15
-435.065
-434.785
-434.316
-434.125
-448.856
-443.789
-443.794
-443.802
-443.815
-443.828
-443.842
-443.855
-443.871
-443.89
-443.912
-443.93
-443.929
-443.961
-444.042
-444.1
-444.134
-444.142
-444.128
-444.141
-458.626
-453.668
-453.668
-453.674
-453.682
-453.692
-453.702
-453.712
-453.723
-453.735
-453.747
-453.757
-453.762
-453.769
-453.793
-453.828
-453.864
-453.893
-453.914
-453.938
-468.44
-463.512
-463.512
-463.515
-463.519
-463.525
-463.533
-463.541
-463.55
-463.559
-463.569
-463.579
-463.588
-463.599
-463.616
-463.639
-463.666
-463.693
-463.718
-463.745
-478.273
-473.351
-473.349
-473.35
-473.353
-473.357
-473.363
-473.369
-473.377
-473.386
-473.395
-473.405
-473.415
-473.426
-473.441
-473.461
-473.483
-473.507
-473.533
-473.56
-488.111
-483.188
-483.184
-483.183
-483.185
-483.189
-483.193
-483.199
-483.206
-483.214
-483.223
-483.232
-483.243
-483.255
-483.269
-483.287
-483.307
-483.329
-483.354
-483.38
-497.944
-493.021
-493.015
-493.015
-493.017
-493.02
-493.024
-493.029
-493.035
-493.043
-493.052
-493.061
-493.072
-493.084
-493.098
-493.114
-493.132
-493.153
-493.176
-493.201
-507.764
-502.847
-502.843
-502.844
-502.846
-502.85
-502.854
-502.859
-502.865
-502.872
-502.88
-502.89
-502.9
-502.912
-502.925
-502.94
-502.957
-502.977
-502.999
-503.023
-517.562
-512.664
-512.668
-512.672
-512.676
-512.68
-512.684
-512.689
-512.694
-512.7
-512.708
-512.717
-512.727
-512.738
-512.751
-512.766
-512.782
-512.801
-512.822
-512.845
-527.335
-522.477
-522.492
-522.5
-522.505
-522.509
-522.513
-522.518
-522.522
-522.528
-522.535
-522.543
-522.553
-522.564
-522.576
-522.59
-522.606
-522.625
-522.645
-522.667
40536.8
39783.1
38996.5
39256.3
42465.3
47961.2
54768.6
61696.7
67595.6
71574.9
73059.6
71759.7
67355.8
58960.5
43636.8
49127.4
33781.7
29264
29174
31865.6
36722.7
42962.9
49422.4
54956.2
58669.6
60004.1
58684.8
54495.7
47086.2
36223.9
58224.8
39420.8
28663.5
24793.5
25485.6
29193.7
34521.1
40142.9
44896.9
47964.6
48908.7
47581
43978.1
38210.4
30710.6
60073.8
47907
37778.8
31419.7
28894.8
29433.3
31979.9
35158.9
37886.1
39470.7
39555.7
38026.9
34925.1
30430.3
24931.2
57730.8
49731.2
42347.4
36658.3
33078.1
31473.3
31365.4
31961.7
32526.3
32544.1
31696.3
29836.4
26959.7
23193.5
18808.2
53354.9
47598.3
42021.5
37232.3
33556.6
31025.4
29434.9
28398.5
27490.9
26355.9
24745.4
22525
19670.3
16258
12453.3
47508.3
43156.2
38778.5
34726
31226.6
28365.4
26050.1
24100.7
22279.4
20363
18183.4
15635.7
12674.8
9327.76
5749.54
40616.6
37194.7
33656
30199.6
26984.7
24074.8
21449.1
19022.8
16670.6
14254.7
11653.1
8778.09
5629.38
2451.07
411.543
32990.7
30205.5
27268
24293.6
21373.7
18559.1
15854
13212
10545.1
7757.98
4868.91
2072.49
284.724
-405.512
-369.655
24845.7
22509
20018.1
17429.9
14784.6
12106.4
9393.79
6614.06
3827.48
1405.22
-45.911
-399.275
-382.446
-386.649
-386.847
16364.3
14356.5
12178.2
9832.59
7344.62
4771.75
2352.1
750.288
-405.868
-395.071
-391.682
-396.365
-396.435
-396.159
-396.112
7536.39
5695.83
3767.73
1996.38
741.185
-327.918
-424.07
-398.4
-404.269
-406.459
-405.702
-405.641
-405.706
-405.768
-405.82
333.202
-278.772
-431.799
-415.305
-411.002
-413.896
-416.564
-415.465
-415.21
-415.278
-415.304
-415.369
-415.435
-415.498
-415.561
-422.432
-423.719
-425.951
-425.527
-424.958
-424.92
-424.925
-424.936
-424.967
-425.02
-425.072
-425.133
-425.2
-425.268
-425.332
-434.324
-434.432
-434.47
-434.553
-434.574
-434.626
-434.66
-434.7
-434.746
-434.801
-434.861
-434.922
-434.982
-435.042
-435.102
-444.19
-444.223
-444.255
-444.299
-444.34
-444.389
-444.439
-444.49
-444.543
-444.596
-444.651
-444.708
-444.765
-444.821
-444.877
-453.97
-454.008
-454.046
-454.09
-454.136
-454.185
-454.235
-454.286
-454.338
-454.39
-454.443
-454.496
-454.55
-454.604
-454.656
-463.776
-463.813
-463.853
-463.895
-463.941
-463.988
-464.037
-464.086
-464.135
-464.186