/*--------------------------------*- C++ -*----------------------------------*\
| =========                 |                                                 |
| \\      /  F ield         | OpenFOAM: The Open Source CFD Toolbox           |
|  \\    /   O peration     | Version:  v1912                                 |
|   \\  /    A nd           | Website:  www.openfoam.com                      |
|    \\/     M anipulation  |                                                 |
\*---------------------------------------------------------------------------*/
FoamFile
{
    version     2.0;
    format      ascii;
    class       volScalarField;
    location    "32";
    object      p_rgh;
}
// * * * * * * * * * * * * * * * * * * * * * * * * * * * * * * * * * * * * * //

dimensions      [1 -1 -2 0 0 0 0];


internalField   nonuniform List<scalar> 
20320
(
434811
434887
434913
434965
435036
435124
435226
435341
435465
435595
435728
435862
435992
436116
436232
436335
436424
436498
436554
436589
434698
434797
434832
434886
434958
435047
435150
435265
435389
435520
435653
435787
435918
436042
436157
436259
436347
436417
436468
436498
434475
434613
434649
434703
434776
434865
434968
435084
435208
435338
435471
435604
435734
435857
435970
436072
436158
436227
436277
436310
434166
434345
434380
434434
434506
434594
434697
434811
434934
435064
435196
435327
435455
435576
435688
435787
435872
435940
435991
436028
433785
433999
434033
434086
434157
434244
434345
434458
434579
434707
434837
434967
435092
435211
435320
435417
435500
435567
435619
435658
433342
433585
433618
433670
433739
433824
433923
434033
434152
434277
434404
434531
434654
434769
434875
434969
435049
435115
435167
435209
432847
433114
433146
433196
433263
433345
433440
433546
433661
433781
433904
434027
434145
434257
434359
434449
434526
434589
434641
434683
432309
432595
432626
432673
432736
432814
432904
433005
433113
433228
433345
433461
433573
433679
433775
433859
433931
433991
434040
434084
431737
432038
432066
432110
432169
432240
432324
432417
432518
432623
432731
432838
432941
433037
433125
433201
433265
433319
433365
433407
431141
431452
431477
431517
431569
431633
431708
431791
431880
431974
432068
432162
432252
432335
432409
432472
432525
432570
432610
432649
430529
430846
430867
430901
430946
431001
431064
431134
431208
431285
431362
431437
431507
431570
431624
431668
431704
431735
431765
431797
429911
430228
430246
430273
430308
430351
430400
430453
430509
430564
430617
430665
430707
430741
430766
430781
430791
430799
430813
430832
429295
429608
429620
429640
429664
429693
429725
429758
429789
429816
429837
429850
429853
429845
429827
429799
429767
429739
429727
429724
428688
428993
429000
429010
429022
429035
429047
429055
429056
429049
429030
428997
428947
428880
428798
428704
428608
428523
428466
428423
428098
428391
428392
428392
428391
428386
428374
428354
428322
428273
428204
428111
427991
427844
427671
427478
427280
427099
426966
426854
427531
427809
427804
427794
427778
427753
427717
427665
427594
427497
427369
427203
426995
426740
426439
426098
425738
425396
425126
424887
426993
427253
427241
427220
427189
427145
427083
426998
426885
426736
426541
426290
425973
425581
425106
424551
423935
423314
422781
422293
426487
426728
426709
426678
426632
426568
426480
426363
426207
426003
425736
425393
424952
424394
423697
422843
421836
420726
419665
418632
426017
426237
426213
426172
426112
426029
425917
425767
425571
425313
424976
424537
423966
423225
422267
421033
419465
417539
415371
412960
425585
425784
425754
425704
425631
425531
425397
425219
424986
424680
424278
423752
423057
422137
420909
419253
416992
413868
409530
403338
121462
121383
120657
119699
118566
117277
115927
115109
115938
115674
100445
88915.6
85141.6
81779.4
79555.4
79228.5
79286.3
79716.4
79995.4
80647.3
81882
108826
312342
274756
205842
151165
110582
81867.6
62558.1
50046.1
42155.2
37279.6
34313.5
32510.3
31460
30860.2
30522.9
30351
30272.9
30251.6
30263.7
30290.1
30320.1
30349.9
30377.7
30404.6
30430.9
30459
30492.7
30535
30591.8
30662.2
30757.1
30895.7
31053.2
31220.3
31469.7
31314.3
31370.6
31816.4
121373
121269
120562
119699
118632
117318
115955
115008
115417
114780
102851
86109.1
83315.8
80267
76433.9
76162.6
76134.9
76152.6
76323.4
76710.5
77501.3
84144.7
236493
234959
189741
143491
106392
79414.8
61065.1
49134
41607.3
36962.7
34161.6
32453.7
31443
30873.6
30560.4
30404.3
30338.6
30325.2
30340.9
30369.5
30399.9
30427.9
30452.9
30475.5
30497.4
30521.6
30551.5
30591.5
30647.3
30728
30839
30974.4
31127.9
31287.7
31500.3
31802.7
32039.5
32026.7
120804
121286
120715
119643
117947
116435
115194
115238
114433
113714
106417
96480.5
84035.5
81961.5
76690.9
76232.6
76167
76153.4
76257.7
76530.4
76934.9
97211.6
198201
202617
172198
133649
100239
75367.8
58411.9
47449.2
40578.9
36357.5
33800.2
32276.9
31384
30878.4
30604.6
30471.1
30418.7
30412.3
30431.2
30460.8
30489.2
30512.9
30533.4
30551.4
30567.9
30586.9
30611.9
30649.3
30707.1
30791.5
30906.4
31048.7
31210.2
31405
31646.3
31917.9
32129.3
32188.6
121997
119264
118655
118426
119518
118221
116773
115450
114594
113290
108895
101777
97730.5
94060.7
76810.1
76189.8
76166.1
76131.1
76195
76369.5
76583.1
120393
162313
171126
150866
119548
90440.8
68530
53776.7
44431.2
38681.1
35195.5
33110.2
31878.2
31165.1
30766.7
30558
30464.1
30434.8
30441.4
30468.8
30505.5
30535
30556.3
30574.9
30590.7
30603.6
30619.4
30641.2
30676.9
30736
30822.3
30940.8
31092.5
31267
31494.4
31769.6
32021.8
32235
32362.8
122363
122126
121756
120917
119775
118499
117116
115689
114516
109603
110044
105194
100537
98026.2
76083.8
76146
76155.2
76094.1
76133.4
76273.6
93757.6
113204
134171
141105
126520
101057
76598.8
58591.1
46977.2
39969.9
35841
33419.2
32013.6
31214.8
30765.9
30526.2
30415.9
30385.6
30394.1
30422.6
30465.9
30519.2
30553.7
30573.7
30593.3
30609.7
30620.1
30635.1
30655.1
30690.2
30752.1
30839.2
30960.5
31125.2
31310.8
31575.8
31886.5
32099
32333.7
32595.6
122870
121664
119810
119095
120061
118941
117546
116076
114716
105409
106521
108082
91646.7
82729.8
75865.2
76093.1
76136.5
76052.5
76122.7
76154.3
101583
103603
112397
114060
100846
78987.4
58634.5
44929.2
37393.9
33688.4
31874.1
30955.4
30487.9
30249.5
30142.7
30143.1
30191.6
30290.3
30345.1
30393.2
30448.9
30534.9
30572.4
30581.3
30603.1
30622.6
30624.5
30637.7
30646.9
30670.6
30729.4
30797.8
30903.4
31082.8
31230.7
31602.4
32013.3
32065.7
32379.9
32958.1
118941
116956
120983
121982
120690
119193
118023
116597
114744
114090
113890
110951
104723
75465.1
75788.6
76035.9
76887.2
75930.5
76070.9
101917
98195.8
95031.8
94995.3
90443.8
75136.4
52746
30191.7
12919.5
3380.24
46.1071
31.4352
21.8175
15.1167
10.5712
7.42051
5.24519
8.93668
24.5915
50.1696
78.5908
114.319
164.675
184.06
187.514
195.304
193.69
179.978
164.919
143.888
141.151
153.85
180.668
250.78
435.398
725.23
2035.55
3802.53
3251.13
7392.43
17032.4
117236
123767
123450
121322
115492
114224
113351
117298
115777
114305
113336
113395
110239
74637
79245.8
76020.8
76020.6
75379.6
81282.9
104148
94628.8
87303.3
80879.6
70377.8
44763
126.337
99.9044
81.1587
65.4963
49.3925
35.9126
26.5479
19.5352
14.3704
10.5232
7.53097
5.00905
3.17597
2.28937
1.98545
1.75674
1.86936
2.30931
2.51744
2.71588
3.01989
3.37865
3.7078
4.02164
4.09396
4.2036
4.35545
4.38678
4.72348
5.29618
5.7471
6.2022
6.60188
3.52459
2.7639
117592
124933
124059
117684
122579
121379
119747
114263
115511
115352
114735
115465
114328
73482.7
90542.2
86900.7
84815.8
76177
111245
102227
90964.3
80446.4
69522.2
47153.1
113.279
101.186
86.8706
68.5184
53.7182
41.7762
31.5194
23.6329
17.657
13.1788
9.80162
7.19441
5.07772
3.45201
2.44889
1.9327
1.68806
1.68262
1.94011
2.18798
2.42817
2.72588
3.06675
3.39993
3.7139
3.89934
4.05086
4.21335
4.36476
4.73074
5.36488
5.92695
6.33002
6.55951
5.33997
5.027
127483
125845
114155
124090
121190
120804
113118
113641
115830
116225
113880
101127
109822
83093.3
75708.7
104953
72544.5
82112.9
113085
100160
87363.8
74573.3
59790.1
144.312
81.6784
82.427
69.1375
55.9236
44.5377
35.1869
27.2343
20.8621
15.8938
12.0737
9.13554
6.84591
5.01201
3.57359
2.5788
1.98335
1.66428
1.58014
1.72173
1.93574
2.1753
2.45791
2.77251
3.08746
3.37711
3.57762
3.72507
3.86137
4.01616
4.33973
4.87852
5.43415
5.87147
6.08862
5.57094
5.5276
128241
126644
113364
125463
124458
119793
121860
120912
119271
115125
105238
59291.2
88246.5
79229.2
88167.4
87976.3
72498.7
119063
111506
97946.3
83996.9
69280.8
8613.86
59.7189
67.6975
61.9003
53.5417
44.3773
35.9435
28.7862
22.738
17.7742
13.8022
10.6733
8.21967
6.28326
4.72912
3.49125
2.57745
1.97147
1.6148
1.4752
1.53474
1.7028
1.92287
2.18498
2.4752
2.76993
3.04145
3.24715
3.39714
3.52613
3.68308
3.97325
4.43863
4.9631
5.41098
5.67055
5.56535
5.70296
129110
124040
127368
126417
125169
124329
122670
121482
120869
118710
96339.2
59094.7
77560.3
123303
115987
68581.7
68796.8
123718
109918
95703.6
80851.1
48572.2
59.2023
51.2721
50.4931
46.326
40.751
34.3805
28.2997
22.9913
18.4751
14.7066
11.6254
9.14451
7.16184
5.57328
4.28463
3.24338
2.44247
1.87456
1.51508
1.34641
1.3532
1.47822
1.67157
1.91009
2.17678
2.45103
2.70568
2.90959
3.06215
3.19218
3.35155
3.62035
4.03096
4.51533
4.96359
5.27739
5.40639
5.68159
130042
117736
128267
127415
126530
117205
113235
117643
122452
121793
110416
58939.8
119507
126331
77214
67639.5
119967
121606
108198
93541.1
77468.9
456.082
38.2895
39.9383
37.537
34.4855
30.5589
26.1332
21.8251
17.9796
14.6656
11.8604
9.52427
7.60506
6.04426
4.7739
3.72931
2.87262
2.19521
1.69315
1.35758
1.18346
1.16017
1.25244
1.41872
1.63365
1.8784
2.13229
2.37057
2.5688
2.72322
2.85695
3.01896
3.2717
3.64006
4.08346
4.52214
4.88421
5.16162
5.55574
131047
113077
129314
128468
127094
126407
126068
124908
123929
123708
124187
76913.5
128710
122075
73863.8
62926.8
131417
119939
106499
91389.6
35941.2
31.8837
32.9669
30.3291
27.9382
25.4799
22.6367
19.5471
16.5386
13.8076
11.4159
9.35942
7.61569
6.15548
4.94796
3.95008
3.11783
2.42612
1.86868
1.44326
1.14821
0.985336
0.950736
1.02126
1.16507
1.35892
1.584
1.81825
2.04058
2.23123
2.3861
2.52359
2.68614
2.92358
3.25654
3.66042
4.08411
4.48268
4.86459
5.36648
131817
107069
130310
127556
128762
127435
125498
126154
124264
125284
125798
128387
128572
69117.8
55740.8
115439
130280
118627
105006
89033.5
105.795
29.5139
26.1932
22.9976
20.7262
18.7001
16.5818
14.4234
12.352
10.4472
8.74693
7.2567
5.96609
4.86353
3.93553
3.1572
2.49994
1.94848
1.4983
1.14836
0.900885
0.760575
0.727445
0.786112
0.913971
1.09145
1.29857
1.51451
1.721
1.90269
2.05543
2.19407
2.35294
2.57288
2.87302
3.23939
3.64532
4.068
4.52736
5.12547
112434
119353
130920
128573
122999
104901
128831
116960
125855
126739
127819
127768
127774
49875.3
50059.8
139784
129391
117614
103717
40698.2
24.3049
25.1468
20.48
17.3951
15.3297
13.6188
12.0217
10.5261
9.1229
7.81805
6.62581
5.55266
4.59791
3.76283
3.04581
2.43548
1.91566
1.47708
1.11659
0.834671
0.634533
0.521829
0.497625
0.55254
0.670755
0.835381
1.02656
1.22521
1.41657
1.58753
1.73492
1.87019
2.02038
2.22008
2.48729
2.8182
3.20428
3.64149
4.15726
4.83414
135457
133394
111055
129708
88412.9
131818
130865
122881
116841
127129
44337.2
128097
59604.7
41432.4
75867.7
137095
128430
116905
102458
260.091
24.0574
20.0069
15.8467
13.1081
11.2647
9.82146
8.63854
7.62212
6.69115
5.81399
4.98683
4.21363
3.50146
2.86047
2.29715
1.81037
1.39331
1.04103
0.751489
0.526092
0.368671
0.283181
0.271536
0.328118
0.440617
0.594368
0.771092
0.953626
1.13012
1.28912
1.42709
1.55321
1.69032
1.86717
2.10153
2.39885
2.7641
3.20743
3.7618
4.49791
136847
135694
112569
127900
79614.4
133569
133038
132129
130397
127525
25438.9
28279.7
44197.5
40357.4
127265
135452
127689
116608
65116.2
18.2292
20.8982
15.6012
12.0859
9.77276
8.16644
7.00664
6.1647
5.49511
4.89632
4.32021
3.7504
3.18929
2.64897
2.1458
1.69186
1.2928
0.949388
0.659848
0.423115
0.242137
0.119563
0.0580798
0.0595491
0.119618
0.228116
0.371875
0.534965
0.702305
0.864134
1.00932
1.13386
1.24636
1.36594
1.51793
1.72017
1.98509
2.3287
2.77077
3.34742
4.12353
138489
136984
120778
96442.8
66296.5
135397
136094
134948
133342
129779
23472.7
25400.9
38271.3
31990.9
140795
135257
127750
116717
7094.1
20.3891
15.723
11.7334
8.99728
7.10948
5.79984
4.9382
4.37323
3.95796
3.5939
3.2269
2.83577
2.42281
2.00371
1.59808
1.2205
0.88252
0.589892
0.343565
0.144321
-0.00442551
-0.100403
-0.142887
-0.130284
-0.0672601
0.0371151
0.171028
0.320619
0.473269
0.619922
0.749267
0.857224
0.951764
1.05075
1.17637
1.34686
1.58083
1.90114
2.33445
2.92047
3.7191
140417
84108.3
123566
68635.6
68817.5
137202
91530.8
115967
136916
134700
55932.8
23011.1
29071.3
103934
141977
136367
128776
114701
18.593
14.2746
11.4089
8.51771
6.44778
4.98129
4.00853
3.42349
3.08102
2.85456
2.65618
2.43435
2.1675
1.85867
1.52615
1.19011
0.866444
0.570816
0.312258
0.0945336
-0.0797091
-0.206313
-0.283974
-0.312884
-0.292851
-0.229004
-0.129933
-0.00640824
0.129649
0.267528
0.397741
0.5091
0.598063
0.67245
0.748576
0.846511
0.985424
1.18875
1.48372
1.90212
2.48637
3.29311
142492
102273
131701
55035.9
140297
127931
11758.6
12397
25000.6
81466.3
124548
34161.9
26263.2
144470
143965
138375
130604
28131.6
14.1161
10.9715
8.02616
5.91944
4.37718
3.31301
2.66034
2.31177
2.14543
2.05943
1.97892
1.85862
1.67913
1.44547
1.17695
0.892139
0.608233
0.342984
0.107773
-0.0910801
-0.249187
-0.361882
-0.428216
-0.449425
-0.426217
-0.364634
-0.272477
-0.160085
-0.0379117
0.084272
0.196414
0.288225
0.357149
0.410305
0.462602
0.532358
0.639708
0.811795
1.07925
1.47793
2.05138
2.85265
32720.6
72430.6
54700.3
96956.2
57929.6
11725.2
11665.7
11684.4
11731.4
11859.2
14517.1
18593.2
24377.9
150314
146393
141086
133398
48.704
8.30668
7.44406
5.35735
3.82783
2.73559
2.03431
1.65062
1.49076
1.45974
1.47642
1.47942
1.43094
1.31452
1.13794
0.919022
0.674535
0.422542
0.181153
-0.0361998
-0.221561
-0.369127
-0.47382
-0.534592
-0.553123
-0.531136
-0.474742
-0.391201
-0.290891
-0.183514
-0.0782099
0.0145794
0.0863494
0.135219
0.167121
0.195625
0.237429
0.313715
0.453959
0.692013
1.06694
1.62165
2.40589
14421.7
12196.8
16211.4
37551.6
11541.3
11592
11638.8
11678.3
11736.1
11842.1
12111.4
13322.7
120396
153155
149591
144445
87332.1
-3.24252
7.24223
4.73026
3.25304
2.18294
1.47581
1.07085
0.895672
0.877929
0.945333
1.03405
1.09567
1.0979
1.02836
0.897059
0.719126
0.509551
0.286177
0.0668407
-0.134124
-0.307835
-0.44752
-0.54782
-0.607189
-0.627002
-0.609725
-0.561148
-0.487937
-0.400771
-0.309388
-0.221722
-0.148445
-0.0963843
-0.0669083
-0.0556297
-0.0503713
-0.0352268
0.011385
0.120006
0.327293
0.674612
1.20291
1.95853
13291.2
14291.1
17810.3
11518.2
11540.3
11570
11606.7
11642.7
11688.4
11761.3
11898.5
11745.1
157354
156626
153481
148456
15531
8.27805
3.97909
2.61159
1.62679
0.941011
0.541212
0.357346
0.33211
0.414207
0.548069
0.684674
0.784874
0.821243
0.786761
0.692498
0.550677
0.373984
0.179347
-0.0165182
-0.199601
-0.361101
-0.49356
-0.591297
-0.651671
-0.675517
-0.665477
-0.62662
-0.565336
-0.49242
-0.417498
-0.347435
-0.292678
-0.259286
-0.248478
-0.256817
-0.273123
-0.282699
-0.263553
-0.184878
-0.00894452
0.306438
0.800588
1.51788
13360.2
16465
11503.7
11514.5
11530.6
11552.5
11578.5
11606.5
11642.5
11682.4
11767.4
54958.6
161889
161022
158112
153751
23.5431
2.22119
1.93028
1.06661
0.439767
0.0540905
-0.126302
-0.161432
-0.0879659
0.0583254
0.23335
0.398914
0.521572
0.578131
0.568598
0.505038
0.395978
0.251732
0.087965
-0.0816258
-0.244241
-0.39193
-0.516549
-0.611982
-0.674246
-0.703692
-0.702473
-0.674601
-0.626387
-0.568286
-0.509546
-0.455909
-0.417934
-0.402001
-0.409002
-0.43521
-0.470389
-0.501673
-0.507138
-0.455977
-0.311315
-0.0321394
0.420091
1.08852
11666.8
11784.2
11506.3
11510.6
11522.2
11537.9
11554.6
11576.7
11651.9
11618.6
11739.2
152621
167738
166453
163453
72817.8
-7.44316
1.06764
0.411156
-0.0160173
-0.37195
-0.545863
-0.588031
-0.533145
-0.400571
-0.217461
-0.0195585
0.161332
0.292083
0.357803
0.3677
0.330162
0.249951
0.13669
0.00392209
-0.137754
-0.277867
-0.409818
-0.525082
-0.617104
-0.681022
-0.716398
-0.724627
-0.70848
-0.674099
-0.630604
-0.586629
-0.547784
-0.524811
-0.52473
-0.547691
-0.589055
-0.639824
-0.688843
-0.715028
-0.688612
-0.57515
-0.336192
0.0663101
0.675551
11511
11500
11502.4
11506.2
11514.3
11526.2
11536.5
11577.1
11574.5
11606.6
11343.5
175600
174510
172654
169479
8051.64
4.77872
-0.263403
-0.478758
-0.739419
-0.894641
-0.93518
-0.900655
-0.79761
-0.634353
-0.43369
-0.225184
-0.043667
0.0843182
0.158479
0.185961
0.170068
0.115033
0.0297019
-0.0749305
-0.19033
-0.30833
-0.423344
-0.527132
-0.613487
-0.677525
-0.71807
-0.735522
-0.731352
-0.71088
-0.681236
-0.650211
-0.624367
-0.614589
-0.627932
-0.663682
-0.716666
-0.779304
-0.841486
-0.883635
-0.878601
-0.795899
-0.600672
-0.25648
0.280443
11518.9
11506.6
11500.1
11500.4
11505.5
11517.3
11565.2
11530.3
11552.1
11604
142011
182930
181642
179283
176512
-0.600915
-0.878799
-1.08427
-1.14922
-1.20548
-1.2185
-1.18427
-1.11153
-0.986182
-0.811533
-0.605945
-0.400431
-0.230231
-0.104431
-0.0225468
0.0192707
0.0212859
-0.0122954
-0.0739202
-0.153194
-0.244019
-0.340592
-0.438165
-0.528864
-0.607343
-0.669348
-0.713244
-0.738768
-0.746007
-0.738676
-0.721759
-0.702304
-0.687788
-0.688848
-0.712099
-0.756429
-0.816911
-0.887174
-0.957478
-1.0103
-1.02247
-0.968881
-0.82032
-0.544539
-0.0965397
13532.6
11509.9
11497
11493
11495.1
11777.8
11538.2
11510.2
11538.8
11352.8
192157
190757
188956
186172
54865.2
-4.36413
-1.67054
-1.673
-1.53289
-1.47522
-1.40951
-1.3416
-1.25419
-1.12238
-0.94869
-0.746236
-0.557281
-0.396981
-0.273106
-0.186175
-0.134893
-0.118495
-0.133211
-0.173278
-0.230717
-0.302088
-0.38042
-0.460318
-0.535574
-0.603527
-0.661252
-0.706426
-0.737893
-0.754794
-0.758949
-0.753377
-0.744536
-0.739892
-0.748956
-0.777925
-0.826194
-0.889633
-0.962527
-1.03544
-1.09358
-1.11782
-1.08942
-0.988347
-0.791295
-0.456382
13592.8
11583.5
11485.5
11482.6
11524.7
12025.9
11479.1
11493.8
11540.8
135121
200021
198602
196340
193556
138.16
-4.04508
-2.37491
-1.8961
-1.71481
-1.60362
-1.51155
-1.43759
-1.34956
-1.22317
-1.0536
-0.865222
-0.691079
-0.54125
-0.421719
-0.333764
-0.27668
-0.249091
-0.248279
-0.27004
-0.308989
-0.362494
-0.423872
-0.488897
-0.551665
-0.609054
-0.659237
-0.701411
-0.735001
-0.758721
-0.772294
-0.776624
-0.777454
-0.78106
-0.795369
-0.826207
-0.873961
-0.93568
-1.00576
-1.07561
-1.13349
-1.16349
-1.15332
-1.09503
-0.982396
-0.794825
13423.1
12869.7
11464.1
11468
11526.5
11949.2
11467.8
11487.1
11334
209747
208264
206399
203730
153046
-15.6082
-1.22588
-2.21165
-1.91196
-1.75642
-1.63867
-1.55451
-1.49124
-1.41301
-1.29544
-1.13068
-0.961187
-0.803833
-0.665409
-0.5524
-0.466529
-0.405744
-0.369475
-0.356294
-0.363689
-0.387818
-0.425984
-0.472305
-0.52299
-0.573205
-0.621524
-0.66609
-0.70405
-0.734539
-0.758982
-0.778168
-0.790662
-0.799964
-0.810014
-0.827341
-0.85736
-0.900856
-0.95646
-1.01884
-1.08028
-1.13187
-1.16017
-1.15765
-1.12776
-1.08847
-1.0952
11429.8
13395.3
11442.4
11450.9
11674
11523
11466.5
11500.4
154773
217891
216398
214139
211211
23837.6
-0.814758
-2.60181
-2.17448
-1.88364
-1.72957
-1.62554
-1.56444
-1.51822
-1.45371
-1.33561
-1.18892
-1.03957
-0.89867
-0.772747
-0.667927
-0.585043
-0.521965
-0.479328
-0.456804
-0.453431
-0.465691
-0.491115
-0.524319
-0.562164
-0.601208
-0.641076
-0.67875
-0.711289
-0.738666
-0.761592
-0.780365
-0.795377
-0.81035
-0.824946
-0.843553
-0.871176
-0.907989
-0.954097
-1.00506
-1.0539
-1.09345
-1.11198
-1.10385
-1.07577
-1.05373
-1.15396
11534.4
11952.3
12283.1
11473.7
11586.4
11462.8
11480
11260.4
227698
226318
224415
221825
219480
-1.11524
-2.73913
-2.48695
-2.04268
-1.81142
-1.67513
-1.59741
-1.5605
-1.53064
-1.46919
-1.35999
-1.233
-1.10357
-0.9786
-0.865686
-0.769524
-0.689924
-0.62557
-0.578861
-0.549824
-0.538218
-0.541097
-0.555923
-0.577835
-0.605019
-0.634649
-0.666284
-0.696707
-0.723513
-0.746625
-0.766373
-0.783472
-0.797192
-0.811332
-0.826144
-0.843986
-0.867916
-0.89683
-0.931626
-0.968882
-1.00246
-1.02586
-1.0281
-1.00257
-0.94944
-0.873342
-0.776952
11793.9
11437.1
12282.3
11599.8
11433.5
11453.5
11472.8
203181
236175
234613
232362
229547
61340.5
-4.89299
-2.31805
-2.31018
-1.92744
-1.73577
-1.62348
-1.57281
-1.55543
-1.53495
-1.46717
-1.37329
-1.26757
-1.15634
-1.04694
-0.946263
-0.858112
-0.781999
-0.717937
-0.669063
-0.635744
-0.618126
-0.613424
-0.619047
-0.631607
-0.650112
-0.671595
-0.695386
-0.718591
-0.739539
-0.75845
-0.774637
-0.788454
-0.799213
-0.810601
-0.820584
-0.832687
-0.850483
-0.870476
-0.893214
-0.915751
-0.933115
-0.93917
-0.922551
-0.874664
-0.78794
-0.650242
-0.430195
11793.4
11400.7
11397.4
11407.4
11420.3
11457.6
63397.6
246115
244793
242807
240277
237861
12.1711
-4.33861
-2.79742
-2.18188
-1.86133
-1.68174
-1.59031
-1.56044
-1.55692
-1.52708
-1.46603
-1.38636
-1.29609
-1.20027
-1.10501
-1.0162
-0.93573
-0.86313
-0.800703
-0.751113
-0.715434
-0.693631
-0.682505
-0.68039
-0.685277
-0.696282
-0.710291
-0.726782
-0.743038
-0.758605
-0.773601
-0.785798
-0.796115
-0.803783
-0.810986
-0.815524
-0.819787
-0.826877
-0.835351
-0.845222
-0.852875
-0.854569
-0.8448
-0.811618
-0.745474
-0.635396
-0.464775
-0.215366
11386.9
11391.4
11395.9
11400.5
11418.5
11267.9
256196
254949
253218
250947
248262
97238.2
-8.58334
-3.76987
-2.69219
-2.09374
-1.80699
-1.64834
-1.57754
-1.56197
-1.55781
-1.52142
-1.46532
-1.39742
-1.32057
-1.23854
-1.15601
-1.07749
-1.00343
-0.934948
-0.875209
-0.826281
-0.789689
-0.764479
-0.748121
-0.740049
-0.738426
-0.742858
-0.749941
-0.759274
-0.76923
-0.78035
-0.791445
-0.799739
-0.806761
-0.810996
-0.813873
-0.813087
-0.810705
-0.808691
-0.803056
-0.797355
-0.790085
-0.777669
-0.755181
-0.711412
-0.638864
-0.530278
-0.377297
-0.19229
11380.6
11391.4
11386.9
11392.7
11385
245913
265106
263569
261535
259100
256817
24.4852
-4.57122
-3.36434
-2.44137
-2.003
-1.76504
-1.63672
-1.58314
-1.57295
-1.55122
-1.51618
-1.46843
-1.40919
-1.34323
-1.27242
-1.201
-1.1312
-1.06319
-0.999588
-0.943034
-0.895753
-0.858875
-0.830664
-0.810457
-0.797684
-0.790853
-0.789693
-0.790113
-0.792713
-0.797561
-0.804625
-0.811538
-0.816215
-0.819917
-0.820474
-0.819108
-0.813583
-0.806124
-0.797659
-0.783375
-0.764233
-0.740771
-0.714563
-0.682128
-0.634283
-0.56814
-0.484638
-0.388731
-0.302214
11365.8
11380.6
11385.8
11377.1
230521
275306
273846
272037
269872
267367
99098.8
-7.63057
-3.63002
-2.76933
-2.21339
-1.91873
-1.74184
-1.64396
-1.60313
-1.58108
-1.55307
-1.51803
-1.47408
-1.4217
-1.36391
-1.30248
-1.24048
-1.17805
-1.11608
-1.05727
-1.00465
-0.959746
-0.922826
-0.892692
-0.86991
-0.853392
-0.842626
-0.836355
-0.830708
-0.828034
-0.828454
-0.831056
-0.833717
-0.834861
-0.834875
-0.831421
-0.826253
-0.817299
-0.805719
-0.792347
-0.773107
-0.748496
-0.71786
-0.680949
-0.638659
-0.588655
-0.532543
-0.473083
-0.410196
-0.347922
11332.9
11371.9
11375.3
249852
285454
284064
282471
280539
278273
276357
12.4876
-3.52295
-3.02444
-2.34505
-2.04058
-1.8563
-1.73775
-1.66353
-1.62533
-1.5913
-1.55948
-1.52434
-1.48211
-1.43426
-1.38296
-1.32968
-1.27534
-1.21899
-1.16267
-1.10906
-1.06042
-1.01806
-0.981768
-0.951087
-0.926586
-0.907336
-0.893028
-0.881717
-0.871461
-0.864995
-0.861063
-0.859273
-0.857814
-0.855258
-0.851322
-0.843819
-0.835281
-0.823857
-0.809311
-0.792152
-0.770115
-0.743598
-0.710935
-0.672743
-0.629426
-0.580289
-0.529798
-0.479465
-0.42615
-0.37375
71007
46143.6
296670
295690
294362
292952
291277
289241
286873
49814.8
-6.49543
-3.38608
-2.60275
-2.1594
-1.95974
-1.83925
-1.75352
-1.68833
-1.63865
-1.6018
-1.56787
-1.53144
-1.49044
-1.44601
-1.40056
-1.35362
-1.30495
-1.25427
-1.20387
-1.1555
-1.11075
-1.07098
-1.03599
-1.00562
-0.980121
-0.958654
-0.940611
-0.924815
-0.911491
-0.902129
-0.89465
-0.889083
-0.883593
-0.87751
-0.86975
-0.85875
-0.847178
-0.83323
-0.816602
-0.797154
-0.774038
-0.747092
-0.713967
-0.676473
-0.635243
-0.590275
-0.545609
-0.501349
-0.454758
-0.410633
425191
425369
425334
425276
425193
425079
424926
424724
424459
424113
423659
423060
422265
421197
419742
417715
414799
410377
403029
389453
424827
424989
424951
424887
424795
424669
424500
424280
423991
423615
423123
422474
421611
420449
418855
416617
413354
408325
400016
385164
424490
424637
424595
424526
424427
424292
424112
423877
423573
423177
422662
421986
421093
419898
418275
416028
412841
408186
401194
390388
424183
424314
424270
424197
424093
423951
423764
423520
423206
422802
422279
421600
420713
419542
417981
415879
413011
409053
403533
395878
423908
424022
423976
423901
423794
423648
423457
423210
422893
422489
421972
421309
420454
419347
417903
416013
413529
410260
405972
400483
423665
423763
423716
423640
423531
423384
423191
422945
422632
422235
421734
421099
420294
419269
417963
416299
414183
411506
408157
404069
423454
423536
423489
423413
423304
423158
422968
422725
422419
422036
421556
420957
420207
419271
418103
416649
414851
412645
409978
406825
423276
423342
423296
423221
423114
422970
422784
422548
422252
421885
421430
420868
420176
419324
418281
417009
415470
413628
411456
408944
423129
423180
423136
423063
422959
422819
422639
422411
422127
421777
421348
420824
420185
419409
418473
417350
416016
414452
412642
410583
423013
423050
423008
422939
422839
422704
422530
422311
422041
421709
421305
420815
420225
419515
418667
417662
416487
415131
413591
411860
422922
422950
422914
422850
422754
422624
422457
422247
421989
421675
421295
420839
420293
419640
418863
417948
416891
415698
414366
412893
422848
422878
422852
422794
422702
422578
422418
422218
421973
421677
421322
420900
420399
419800
419082
418232
417258
416180
415004
413712
422751
422835
422826
422774
422686
422566
422412
422218
421980
421692
421349
420945
420472
419912
419205
415147
401347
373924
330821
257946
-1.1694
124208
125187
120646
112831
102934
91658.3
79230.9
65880.6
51718.8
36943.3
21962.1
7318.91
-4.07945
-3.87371
-4.21588
-4.00618
-2.60859
2.86144
2.89942
-0.246439
0.255822
0.284266
0.300223
0.309082
0.311818
0.312126
0.311342
0.305305
0.285367
0.232393
0.119938
-0.0982801
-0.569467
-0.964574
-1.05717
-0.972488
-0.692705
-0.223478
-0.0324982
-0.0489929
0.113362
0.108962
0.100355
0.0879169
0.0740304
0.0606334
0.0471817
0.0316728
0.0125639
-0.00974303
-0.0277708
-0.0261746
-0.058525
-0.139073
-0.19744
-0.231839
-0.239402
-0.225209
-0.238483
-0.00820867
0.044589
0.0441345
0.0388585
0.0305739
0.0208376
0.010687
0.000282651
-0.0107276
-0.0224575
-0.0342632
-0.0443372
-0.0499927
-0.0560355
-0.0805353
-0.115453
-0.151259
-0.18041
-0.201786
-0.225005
-0.0129409
0.0107
0.0105071
0.00789904
0.00332725
-0.00288933
-0.0101946
-0.0183083
-0.0272168
-0.036876
-0.0469791
-0.056844
-0.065939
-0.0766017
-0.0935567
-0.116786
-0.143338
-0.170026
-0.195703
-0.222464
-0.0358703
-0.0183651
-0.0166268
-0.0173658
-0.0202287
-0.0246782
-0.0302926
-0.0369155
-0.0445433
-0.0531617
-0.0625614
-0.0722936
-0.0822584
-0.0937482
-0.108835
-0.128054
-0.150412
-0.174721
-0.200394
-0.227769
-0.0633174
-0.0452497
-0.0411794
-0.0409244
-0.0428625
-0.046234
-0.050763
-0.056441
-0.0632941
-0.0712955
-0.0802861
-0.0899878
-0.100418
-0.112326
-0.126748
-0.144105
-0.164192
-0.18664
-0.211138
-0.237623
-0.0867809
-0.0683983
-0.0629168
-0.0623907
-0.0640928
-0.0670989
-0.0712069
-0.0764546
-0.0828813
-0.0904456
-0.0990635
-0.108706
-0.119449
-0.131505
-0.145286
-0.1613
-0.179797
-0.200622
-0.22352
-0.248485
-0.0961816
-0.0841351
-0.0807876
-0.0816544
-0.0839884
-0.0873025
-0.0914354
-0.0963942
-0.102332
-0.109397
-0.117646
-0.127091
-0.137718
-0.149461
-0.162522
-0.177528
-0.194942
-0.214637
-0.236346
-0.260091
-0.0844895
-0.0910499
-0.0951035
-0.0992138
-0.103014
-0.107042
-0.111376
-0.11604
-0.12137
-0.12781
-0.135577
-0.144601
-0.154728
-0.165955
-0.178557
-0.193013
-0.209678
-0.228561
-0.249492
-0.272349
-0.0477931
-0.0941362
-0.109125
-0.117051
-0.122274
-0.126674
-0.130894
-0.135188
-0.139961
-0.145731
-0.152749
-0.160971
-0.170369
-0.181109
-0.193447
-0.207607
-0.223777
-0.242071
-0.262469
-0.284783
337289
336536
335749
336009
339218
344714
351521
358449
364348
368327
369812
368512
364108
355713
340389
355690
340344
335826
335736
338428
343285
349525
355985
361519
365232
366567
365247
361058
353649
342786
374597
355793
345036
341166
341858
345566
350894
356515
361269
364337
365281
363954
360351
354583
347083
386256
374090
363961
357602
355077
355616
358162
361341
364069
365653
365738
364209
361108
356613
351114
393723
385724
378340
372651
369071
367466
367358
367954
368519
368537
367689
365829
362952
359186
354801
399157
393401
387824
383035
379359
376828
375237
374201
373293
372158
370548
368328
365473
362060
358256
403121
398769
394391
390339
386839
383978
381663
379713
377892
375975
373796
371248
368287
364940
361362
406039
402617
399078
395622
392407
389497
386872
384445
382093
379677
377076
374201
371052
364214
188256
408223
405438
402501
399526
396606
393792
391086
388445
385778
382990
380101
365971
164149
-30.2796
5.5777
409888
407552
405061
402472
399827
397149
394436
391657
388870
341620
88897.2
-14.2325
2.59681
-1.60691
-1.8047
411217
409209
407031
404685
402197
399624
387802
249065
400.844
-0.21802
3.17072
-1.51202
-1.58226
-1.30609
-1.25911
412199
410358
407846
372068
236621
18568
-19.4074
6.26239
0.393039
-1.79631
-1.03983
-0.978947
-1.04365
-1.10558
-1.15785
148727
30104.8
-17.3268
-0.83228
3.47057
0.576165
-2.09111
-0.992302
-0.737653
-0.805289
-0.831963
-0.896096
-0.962003
-1.0255
-1.08883
1.85099
0.56372
-1.66822
-1.2448
-0.675767
-0.637047
-0.642362
-0.653806
-0.684348
-0.737122
-0.789433
-0.850759
-0.917278
-0.985175
-1.04942
-0.231748
-0.339007
-0.377197
-0.460723
-0.481123
-0.533264
-0.567007
-0.607481
-0.653771
-0.70866
-0.768262
-0.829514
-0.889908
-0.949582
-1.00939
-0.287152
-0.320704
-0.352328
-0.396092
-0.437875
-0.486782
-0.536189
-0.5877
-0.640101
-0.693529
-0.748245
-0.805282
-0.862753
-0.918897
-0.97431
-0.257818
-0.295267
-0.333766
-0.377131
-0.423499
-0.472894
-0.522973
-0.573477
-0.62511
-0.677725
-0.730522
-0.783746
-0.837535
-0.89111
-0.943993
-0.253684
-0.290802
-0.330364
-0.372946
-0.418198
-0.465679
-0.514433
-0.563447
-0.612898
-0.663067
-0.713834
-0.76476
-0.815857
-0.867133
-0.917884
-0.25845
-0.294598
-0.333349
-0.374503
-0.417713
-0.462546
-0.508648