/*--------------------------------*- C++ -*----------------------------------*\
| =========                 |                                                 |
| \\      /  F ield         | OpenFOAM: The Open Source CFD Toolbox           |
|  \\    /   O peration     | Version:  v1912                                 |
|   \\  /    A nd           | Website:  www.openfoam.com                      |
|    \\/     M anipulation  |                                                 |
\*---------------------------------------------------------------------------*/
FoamFile
{
    version     2.0;
    format      ascii;
    class       surfaceScalarField;
    location    "32";
    object      phi;
}
// * * * * * * * * * * * * * * * * * * * * * * * * * * * * * * * * * * * * * //

dimensions      [0 3 -1 0 0 0 0];
oriented        oriented;


internalField   nonuniform List<scalar> 
40282
(
0.00276838
0.0026483
1.91886
-1.92547
1.91987
0.00559916
-1.91084
1.89864
0.0122055
-1.88348
1.86538
0.0181037
-1.84442
1.82058
0.023845
-1.79398
1.7646
0.0293756
-1.73258
1.69791
0.034673
-1.66074
1.62107
0.0396683
-1.57903
1.53463
0.0444049
-1.48794
1.43905
0.048894
-1.38794
1.33483
0.0531167
-1.27959
1.22257
0.0570289
-1.16352
1.10291
0.0606068
-1.04037
0.976508
0.0638597
-0.910862
0.844109
0.0667536
-0.775699
0.706235
0.0694639
-0.635185
0.562869
0.0723155
-0.488825
0.41267
0.0761544
-0.335035
0.253124
0.0819106
-0.1707
0.0785888
0.0921115
-0.00422686
0.00560001
1.85397
-1.84949
1.84254
-0.0140949
0.0210393
-1.83287
1.82043
-0.0256184
0.0380592
-1.80521
1.78726
-0.0369206
0.0548726
-1.7666
1.74326
-0.0479919
0.0713319
-1.71726
1.68864
-0.0587605
0.0873837
-1.65743
1.6237
-0.0692012
0.102932
-1.58749
1.54886
-0.0792575
0.117884
-1.50787
1.46456
-0.0888776
0.132182
-1.419
1.37123
-0.0980088
0.14578
-1.32131
1.26929
-0.106617
0.158635
-1.21525
1.15921
-0.114667
0.170707
-1.10126
1.04142
-0.122107
0.181947
-0.979794
0.916396
-0.12888
0.192278
-0.851344
0.784638
-0.134892
0.201597
-0.716425
0.646703
-0.140136
0.209858
-0.575629
0.503226
-0.144737
0.21714
-0.429709
0.355261
-0.14932
0.223768
-0.280112
0.20498
-0.155278
0.23041
-0.129765
0.0575459
-0.165334
0.237553
-0.00700934
0.00835763
1.78752
-1.78334
1.77653
-0.0281729
0.0349835
-1.76707
1.75497
-0.0506822
0.0627788
-1.74025
1.7229
-0.0729225
0.0902709
-1.70294
1.6804
-0.0947316
0.117272
-1.65531
1.6277
-0.116014
0.14362
-1.59762
1.56508
-0.136651
0.169182
-1.53015
1.49284
-0.15651
0.19381
-1.45323
1.41137
-0.17549
0.217351
-1.36733
1.32116
-0.19353
0.239695
-1.27295
1.22276
-0.210584
0.260771
-1.17067
1.11675
-0.226619
0.280546
-1.06105
1.00364
-0.241607
0.299014
-0.944584
0.883921
-0.255468
0.316131
-0.821705
0.757974
-0.268026
0.331757
-0.692767
0.626106
-0.278984
0.345645
-0.558011
0.488511
-0.287984
0.357483
-0.417707
0.345765
-0.294969
0.36691
-0.272979
0.199777
-0.300337
0.37354
-0.126645
0.055938
-0.307307
0.378014
-0.00964265
0.0109182
1.72352
-1.71965
1.71323
-0.0417018
0.0481199
-1.70426
1.69273
-0.0748138
0.0863381
-1.67867
1.66209
-0.107542
0.124124
-1.64301
1.62144
-0.139723
0.161287
-1.59742
1.57096
-0.171177
0.197632
-1.5421
1.51086
-0.201706
0.232944
-1.47729
1.44141
-0.231128
0.267008
-1.40327
1.36292
-0.259265
0.299614
-1.32041
1.27581
-0.285965
0.33057
-1.22917
1.18057
-0.311107
0.359703
-1.1301
1.07783
-0.334619
0.386884
-1.02387
0.968301
-0.356493
0.412062
-0.911218
0.852707
-0.376724
0.435235
-0.792844
0.731694
-0.395238
0.456388
-0.669308
0.605723
-0.411772
0.475356
-0.540959
0.47501
-0.425692
0.491641
-0.407863
0.339537
-0.436079
0.504405
-0.27013
0.199839
-0.442192
0.512483
-0.129006
0.0594663
-0.446677
0.516218
-0.0121382
0.0133449
1.66179
-1.65814
1.65205
-0.0544913
0.0605794
-1.64353
1.6326
-0.0977861
0.10872
-1.61926
1.60352
-0.140595
0.156337
-1.58539
1.56489
-0.182715
0.203213
-1.54204
1.51685
-0.223939
0.249127
-1.48935
1.45956
-0.26403
0.293819
-1.42751
1.39324
-0.302743
0.337018
-1.35677
1.31815
-0.339837
0.378456
-1.27743
1.23464
-0.375088
0.417877
-1.18984
1.14309
-0.408273
0.455021
-1.09446
1.04402
-0.439205
0.489643
-0.99186
0.938069
-0.467766
0.521558
-0.882749
0.826008
-0.493914
0.550655
-0.767951
0.708678
-0.517666
0.576938
-0.648276
0.586816
-0.538958
0.600418
-0.524348
0.460907
-0.557314
0.620754
-0.396508
0.331143
-0.571521
0.636887
-0.264782
0.197403
-0.579788
0.647168
-0.129
0.0612903
-0.583547
0.651257
-0.0144918
0.0156195
1.60239
-1.59879
1.59307
-0.0665961
0.072315
-1.58507
1.57479
-0.11953
0.12981
-1.56223
1.54741
-0.171912
0.186733
-1.53033
1.511
-0.223511
0.242845
-1.48942
1.46561
-0.274093
0.297903
-1.43958
1.41135
-0.323378
0.351606
-1.38094
1.34838
-0.371069
0.403635
-1.31368
1.27689
-0.416871
0.453667
-1.23803
1.19714
-0.460498
0.501387
-1.15426
1.10945
-0.501651
0.546461
-1.06276
1.01425
-0.540036
0.588548
-0.963984
0.912049
-0.5754
0.627335
-0.858533
0.803538
-0.607554
0.66255
-0.747173
0.689554
-0.636449
0.694068
-0.630793
0.570991
-0.662137
0.721939
-0.510234
0.448587
-0.684383
0.74603
-0.386094
0.322775
-0.702057
0.765376
-0.258595
0.193445
-0.712953
0.778103
-0.12704
0.0616767
-0.717402
0.782766
-0.0166846
0.0177239
1.5448
-1.54177
1.53646
-0.0779372
0.0832471
-1.52903
1.51947
-0.139921
0.149477
-1.50779
1.49399
-0.201323
0.215127
-1.47806
1.46001
-0.261902
0.279955
-1.43983
1.41753
-0.321404
0.343705
-1.39311
1.36657
-0.379512
0.406046
-1.33793
1.3072
-0.435886
0.466616
-1.2744
1.23953
-0.490177
0.525042
-1.20263
1.16372
-0.542038
0.580947
-1.12284
1.08001
-0.591098
0.633924
-1.03529
0.988717
-0.636971
0.683541
-0.940357
0.890274
-0.679286
0.729369
-0.838543
0.785255
-0.717687
0.770976
-0.730511
0.674426
-0.751964
0.808049
-0.617122
0.558723
-0.782126
0.840524
-0.499346
0.43909
-0.808101
0.868357
-0.378036
0.316233
-0.828956
0.890759
-0.253668
0.19022
-0.842453
0.905901
-0.125297
0.0625777
-0.848421
0.91114
-0.0186973
0.0196377
1.48963
-1.48687
1.48202
-0.0884281
0.0932809
-1.47522
1.46647
-0.158808
0.167556
-1.45576
1.44309
-0.228622
0.241293
-1.42845
1.41182
-0.297633
0.314264
-1.39319
1.37256
-0.365588
0.386222
-1.3499
1.32523
-0.432141
0.456815
-1.29853
1.2698
-0.496914
0.525646
-1.23903
1.20625
-0.559509
0.592297
-1.17144
1.13462
-0.619519
0.656333
-1.09582
1.05505
-0.676498
0.717266
-1.01235
0.96775
-0.729966
0.774567
-0.921295
0.87304
-0.779435
0.82769
-0.823049
0.771397
-0.824396
0.876047
-0.718176
0.663493
-0.864435
0.919118
-0.607469
0.550239
-0.899402
0.956632
-0.491941
0.432709
-0.929248
0.988481
-0.372659
0.311881
-0.953234
1.01401
-0.250399
0.188105
-0.969262
1.03156
-0.123966
0.0635564
-0.977058
1.03747
-0.020508
0.0213374
1.43633
-1.43368
1.42934
-0.0979691
0.102309
-1.42326
1.41541
-0.176017
0.18386
-1.4058
1.3944
-0.253568
0.26497
-1.38119
1.36615
-0.330413
0.345454
-1.34925
1.33048
-0.406315
0.42509
-1.3098
1.28719
-0.480918
0.503524
-1.26264
1.23611
-0.553812
0.580338
-1.2076
1.17708
-0.62456
0.655075
-1.14455
1.11001
-0.692694
0.727241
-1.07344
1.03486
-0.757689
0.796269
-0.99428
0.951719
-0.818961
0.861522
-0.907209
0.860787
-0.875901
0.922322
-0.812504
0.762423
-0.92784
0.977921
-0.710623
0.657202
-0.974152
1.02757
-0.602277
0.545988
-1.01445
1.07074
-0.488491
0.429952
-1.04856
1.1071
-0.370533
0.310388
-1.07588
1.13602
-0.249613
0.188185
-1.09456
1.15598
-0.124559
0.0664979
-1.10438
1.16244
-0.0220927
0.0227985
1.38508
-1.38277
1.379
-0.106446
0.110214
-1.37371
1.36687
-0.191347
0.198182
-1.35847
1.34849
-0.275882
0.28587
-1.33688
1.32361
-0.359893
0.373161
-1.30864
1.29194
-0.443185
0.459887
-1.27346
1.25316
-0.525408
0.545711
-1.23099
1.20692
-0.606139
0.630212
-1.1809
1.1529
-0.684907
0.712907
-1.12288
1.09082
-0.761193
0.793254
-1.05669
1.02048
-0.834385
0.870601
-0.982164
0.941757
-0.903791
0.944198
-0.899263
0.854704
-0.968661
1.01322
-0.808111
0.759532
-1.02816
1.07673
-0.70903
0.656691
-1.08142
1.13376
-0.602627
0.546978
-1.12776
1.18341
-0.489914
0.431632
-1.16678
1.22506
-0.37235
0.3123
-1.19789
1.25794
-0.251691
0.19067
-1.21955
1.28057
-0.126855
0.0709283
-1.23139
1.28732
-0.0234264
0.0239966
1.33551
-1.33357
1.33043
-0.113739
0.116876
-1.32602
1.3203
-0.204588
0.210306
-1.31325
1.30483
-0.295264
0.303684
-1.295
1.28371
-0.385694
0.396987
-1.2709
1.25651
-0.475749
0.490134
-1.24049
1.22277
-0.565112
0.582832
-1.20329
1.18197
-0.653367
0.67468
-1.15877
1.1336
-0.740026
0.765192
-1.10641
1.07715
-0.824528
0.853792
-1.04575
1.01218
-0.906183
0.939756
-0.976391
0.938355
-0.98418
1.02222
-0.898054
0.855482
-1.05761
1.10019
-0.810646
0.763571
-1.12545
1.17253
-0.714301
0.662903
-1.18657
1.23797
-0.609476
0.554157
-1.23994
1.29526
-0.497124
0.438603
-1.28479
1.34331
-0.378863
0.318227
-1.3204
1.38104
-0.257032
0.195698
-1.34551
1.40684
-0.130349
0.0768726
-1.35985
1.41332
-0.0244856
0.0249096
1.28781
-1.28609
1.28364
-0.119729
0.122179
-1.28018
1.27568
-0.215522
0.220023
-1.2701
1.2634
-0.311402
0.318101
-1.25553
1.24641
-0.407406
0.416521
-1.23599
1.22417
-0.503507
0.515318
-1.2109
1.19607
-0.599449
0.614277
-1.1796
1.1614
-0.69485
0.713048
-1.14138
1.11944
-0.789237
0.811178
-1.09548
1.06942
-0.882026
0.908087
-1.04117
1.01063
-0.972465
1.003
-0.977734
0.942411
-1.05963
1.09495
-0.904605
0.86427
-1.14245
1.18279
-0.821375
0.775912
-1.21968
1.26514
-0.72789
0.67735
-1.28989
1.34043
-0.624368
0.569066
-1.35163
1.40693
-0.511626
0.452295
-1.40361
1.46294
-0.391393
0.329341
-1.44483
1.50688
-0.266621
0.204015
-1.47417
1.53677
-0.134983
0.0845059
-1.4921
1.54258
-0.0252508
0.0255207
1.24196
-1.24068
1.23897
-0.124307
0.126025
-1.23653
1.23333
-0.223952
0.227149
-1.22933
1.22448
-0.323998
0.328846
-1.21872
1.21197
-0.424625
0.431377
-1.20415
1.19516
-0.525942
0.534929
-1.18491
1.17329
-0.627786
0.639402
-1.1602
1.1455
-0.729851
0.744544
-1.12909
1.11083
-0.831716
0.849977
-1.09059
1.06824
-0.932816
0.955167
-1.04364
1.01667
-1.03237
1.05934
-0.987195
0.955097
-1.12937
1.16147
-0.920262
0.882592
-1.22259
1.26026
-0.842001
0.798424
-1.31054
1.35412
-0.751818
0.702176
-1.39148
1.44112
-0.649532
0.593978
-1.46342
1.51898
-0.535684
0.474917
-1.52442
1.58519
-0.412065
0.347692
-1.57291
1.63728
-0.282523
0.217872
-1.60774
1.67239
-0.143704
0.0963977
-1.63017
1.67748
-0.0257081
0.0258201
1.19743
-1.19679
1.19583
-0.12739
0.128346
-1.19445
1.19262
-0.229717
0.23155
-1.19028
1.18739
-0.3328
0.335695
-1.18387
1.17963
-0.436987
0.441218
-1.1746
1.16867
-0.542556
0.548491
-1.16172
1.15363
-0.649477
0.657566
-1.14427
1.1335
-0.757566
0.768336
-1.12116
1.10711
-0.866506
0.880562
-1.09116
1.07315
-0.975812
0.993825
-1.05289
1.03019
-1.08474
1.10744
-1.00488
0.976757
-1.19225
1.22037
-0.945645
0.911364
-1.29702
1.3313
-0.87375
0.83265
-1.39735
1.43845
-0.787938
0.739519
-1.49114
1.53956
-0.687349
0.631449
-1.57582
1.63172
-0.571942
0.509091
-1.64855
1.7114
-0.443347
0.375469
-1.7069
1.77478
-0.306565
0.238811
-1.74961
1.81736
-0.158487
0.114996
-1.77829
1.82178
-0.0258524
0.0258076
1.15474
-1.15456
1.15438
-0.128927
0.129113
-1.15408
1.15363
-0.232712
0.233159
-1.15299
1.1521
-0.337626
0.338517
-1.15089
1.14928
-0.444202
0.445812
-1.14717
1.14446
-0.552912
0.555624
-1.14103
1.13673
-0.663901
0.668192
-1.13144
1.12499
-0.777154
0.783606
-1.11721
1.1079
-0.892528
0.901831
-1.09688
1.08392
-1.00969
1.02265
-1.06879
1.05126
-1.12804
1.14558
-1.03106
1.00794
-1.24662
1.26974
-0.981618
0.951823
-1.3641
1.39389
-0.918274
0.880697
-1.47869
1.51627
-0.838831
0.79244
-1.58799
1.63438
-0.741331
0.685382
-1.6888
1.74475
-0.624591
0.55913
-1.77716
1.84262
-0.489444
0.41646
-1.8492
1.92218
-0.341729
0.268514
-1.90295
1.97616
-0.179323
0.138958
-1.9403
1.98067
-0.0256885
0.0254934
1.11353
-1.11362
1.11419
-0.128915
0.128347
-1.11495
1.11587
-0.232912
0.231994
-1.11691
1.11801
-0.338402
0.337298
-1.11912
1.12015
-0.446104
0.445071
-1.12102
1.12162
-0.556704
0.556105
-1.12183
1.12152
-0.67055
0.670855
-1.12055
1.11875
-0.787845
0.789646
-1.11594
1.11191
-0.908684
0.912714
-1.10644
1.09928
-1.03299
1.04015
-1.09017
1.07882
-1.16043
1.17178
-1.06491
1.04809
-1.29027
1.30708
-1.02801
1.00426
-1.42139
1.44514
-0.976435
0.944091
-1.55215
1.58449
-0.906776
0.864035
-1.68006
1.7228
-0.815427
0.760565
-1.80145
1.85631
-0.69917
0.631169
-1.91109
1.97909
-0.556836
0.477142
-2.00301
2.08271
-0.394089
0.312246
-2.07349
2.15533
-0.211056
0.17399
-2.12511
2.16218
-0.0252319
0.0248983
1.0738
-1.0745
1.07578
-0.127399
0.12612
-1.07754
1.07976
-0.230385
0.228169
-1.0824
1.08541
-0.335184
0.332165
-1.08876
1.09237
-0.442693
0.439084
-1.09616
1.10005
-0.553811
0.549927
-1.10392
1.10766
-0.669104
0.665363
-1.11113
1.11418
-0.789026
0.785977
-1.11663
1.11828
-0.91397
0.912322
-1.1189
1.11824
-1.04421
1.04487
-1.11601
1.1119
-1.17979
1.1839
-1.10554
1.09654
-1.32043
1.32944
-1.08444
1.06875
-1.46551
1.4812
-1.04891
1.0243
-1.61388
1.63849
-0.994231
0.95796
-1.7635
1.79977
-0.914677
0.863553
-1.91079
1.96192
-0.803792
0.734754
-2.04959
2.11863
-0.656163
0.568638
-2.17127
2.25879
-0.474311
0.379014
-2.26827
2.36357
-0.261317
0.225448
-2.34367
2.37954
-0.0245082
0.0240524
1.03534
-1.03644
1.03836
-0.124479
0.122556
-1.04103
1.04443
-0.225292
0.221893
-1.04853
1.05332
-0.328169
0.323385
-1.05874
1.06476
-0.434155
0.428139
-1.07131
1.07832
-0.544348
0.537334
-1.08572
1.09341
-0.65952
0.651835
-1.10127
1.10918
-0.780384
0.772475
-1.11698
1.12451
-0.907658
0.900132
-1.13155
1.13788
-1.04202
1.03569
-1.14323
1.14728
-1.18403
1.17998
-1.14967
1.14999
-1.33404
1.33372
-1.14777
1.14244
-1.49221
1.49754
-1.13336
1.11978
-1.6584
1.67198
-1.1008
1.07537
-1.83186
1.85728
-1.04228
1.00011
-2.01032
2.05249
-0.947268
0.882079
-2.18819
2.25338
-0.802999
0.709271
-2.35503
2.44876
-0.601851
0.486849
-2.49717
2.61218
-0.345844
0.30309
-2.61679
2.65954
-0.0235515
0.0229928
0.998352
-0.999973
1.00245
-0.120302
0.117821
-1.00591
1.01034
-0.217885
0.213455
-1.01574
1.02207
-0.317692
0.311355
-1.02934
1.03751
-0.420879
0.412713
-1.04654
1.0564
-0.528698
0.518839
-1.06703
1.07838
-0.642096
0.630747
-1.09037
1.10292
-0.762017
0.749472
-1.11591
1.12922
-0.889488
0.876177
-1.1427
1.15617
-1.0256
1.01214
-1.16941
1.18216
-1.17146
1.15871
-1.19414
1.20497
-1.32816
1.31732
-1.21424
1.22144
-1.49683
1.48964
-1.22593
1.22698
-1.67882
1.67777
-1.22365
1.21475
-1.87554
1.88443
-1.19882
1.17399
-2.08789
2.11272
-1.13789
1.08759
-2.31423
2.36452
-1.0196
0.930143
-2.54706
2.63652
-0.816175
0.679396
-2.76949
2.90627
-0.509446
0.438873
-2.98042
3.051
-0.0224013
0.0217611
0.962825
-0.964541
0.96748
-0.115049
0.11211
-0.97159
0.976873
-0.208486
0.203203
-0.983329
0.990963
-0.304206
0.296573
-0.999773
1.00975
-0.403427
0.393445
-1.0209
1.0332
-0.5075
0.495199
-1.04664
1.0612
-0.617488
0.602929
-1.07685
1.09355
-0.734505
0.717801
-1.11126
1.12992
-0.859824
0.841171
-1.14944
1.16972
-0.994881
0.974599
-1.19064
1.21205
-1.14126
1.11985
-1.23376
1.25555
-1.30071
1.27892
-1.27714
1.29818
-1.47535
1.45431
-1.31826
1.33684
-1.66804
1.64946
-1.35324
1.36655
-1.88282
1.86951
-1.37554
1.37856
-2.12517
2.12215
-1.37327
1.3564
-2.4015
2.41837
-1.3234
1.26793
-2.71715
2.77262
-1.18186
1.05301
-3.07398
3.20282
-0.880946
0.798125
-3.49243
3.57525
0.0865819
-0.185729
0.0991476
-0.160981
0.220296
-0.0593155
-0.2645
0.296922
-0.0324218
-0.323374
0.348087
-0.0247125
-0.374925
0.403152
-0.0282263
-0.43673
0.470433
-0.0337032
-0.500339
0.525767
-0.0254285
-0.521318
0.497582
0.0237352
-0.421507
0.203775
0.217732
0.164807
-0.719802
0.554995
1.3599
-1.87081
0.510912
2.19903
-2.35328
0.154243
2.40606
-2.40803
0.00197151
2.4332
-2.49284
0.0596343
2.52958
-2.53784
0.00825765
2.52933
-2.51503
-0.0143033
2.51095
-2.53338
0.0224224
2.58352
-2.66021
0.0766939
2.76724
-2.90691
0.139665
3.09738
-3.35216
0.254787
3.59324
-3.6648
0.0715629
3.58917
-3.01278
-0.576391
0.699937
1.39091
-2.09085
-2.78353
3.69194
-0.908408
-4.33281
4.81594
-0.483128
-5.19304
5.49146
-0.298418
-5.72875
5.91731
-0.188564
-6.06667
6.18423
-0.11756
-6.27587
6.34655
-0.0706788
-6.40036
6.44066
-0.040298
-6.47027
6.4913
-0.0210334
-6.50566
6.51464
-0.00897723
-6.51944
6.52119
-0.00174705
-6.52012
6.51672
0.00339964
-6.51198
6.50597
0.00600198
-6.49886
6.49084
0.00801974
-6.4821
6.47276
0.00934495
-6.4629
6.45256
0.0103338
-6.44187
6.43086
0.0110119
-6.41966
6.40832
0.0113371
-6.39693
6.38558
0.011348
-6.37423
6.36303
0.0112002
-6.35187
6.34085
0.0110208
-6.33003
6.31927
0.0107521
-6.30895
6.29867
0.0102769
-6.2889
6.27929
0.00961326
-6.27002
6.2611
0.00891676
-6.25237
6.24402
0.00834878
-6.23588
6.2279
0.00797497
-6.2203
6.21257
0.00772755
-6.2053
6.19787
0.00743076
-6.19047
6.18296
0.00750929
-6.17466
6.16662
0.00803831
-6.15795
6.14968
0.00826228
-6.14157
6.13358
0.0079893
-6.1267
6.12135
0.00534828
-6.11854
6.11821
0.000335173
-6.11216
6.09987
0.0122887
-6.08222
6.06377
0.0184485
-6.05019
6.04088
0.0093112
0.279915
-0.36317
0.0832554
-0.147495
0.18743
0.104457
-0.144392
-0.223378
0.257376
0.0663267
-0.100324
-0.289253
0.319559
0.0529726
-0.0832784
-0.349101
0.378629
0.0575683
-0.0870966
-0.406863
0.43553
0.0642811
-0.0929486
-0.463944
0.484476
0.0449649
-0.0654969
-0.499005
0.493798
-0.0395341
0.0447416
-0.459491
0.389361
-0.345098
0.415229
-0.274617
0.160917
-0.832473
0.946173
0.00747461
-0.196598
-0.891442
1.08057
0.18128
-0.123317
-0.44008
0.382117
0.421939
-0.795795
-0.100628
0.474483
0.833929
-1.11299
-0.254639
0.533695
1.86006
-2.45485
-0.171899
0.766687
2.62812
-2.65479
0.0125692
0.0141063
2.67348
-2.71371
-0.0566399
0.0968706
2.77512
-2.85172
-0.145252
0.221854
2.94799
-3.09123
-0.256863
0.400105
3.32216
-3.68254
-0.48165
0.842024
4.32519
-5.04519
0.00565321
0.71434
3.47268
0.138243
1.85619
-5.46711
-1.41812
2.29521
3.43824
-4.31532
-3.10254
3.81627
1.7314
-2.44513
-4.40892
4.89153
0.975586
-1.4582
-5.28416
5.60416
0.611174
-0.931173
-5.86442
6.07481
0.390948
-0.601341
-6.24362
6.37778
0.245865
-0.380019
-6.48314
6.56511
0.149101
-0.231062
-6.62805
6.67567
0.0859586
-0.133575
-6.71112
6.73694
0.0457663
-0.0715779
-6.75508
6.76723
0.0205621
-0.0327108
-6.7746
6.77836
0.00482606
-0.00858422
-6.77992
6.77867
-0.00476037
0.00600693
-6.77585
6.7717
-0.0106658
0.0148162
-6.76652
6.76052
-0.0146658
0.0206711
-6.75383
6.74662
-0.0173686
0.0245876
-6.73894
6.73089
-0.0192942
0.0273419
-6.72253
6.71392
-0.0206243
0.0292363
-6.70512
6.69621
-0.0212874
0.0301931
-6.68727
6.67836
-0.0213207
0.0302278
-6.66956
6.66084
-0.0210128
0.0297325
-6.65225
6.64378
-0.0206114
0.0290819
-6.63543
6.6273
-0.0199827
0.0281142
-6.61932
6.61164
-0.0190132
0.0266983
-6.60415
6.59694
-0.0178213
0.0250303
-6.58998
6.58323
-0.0166202
0.0233623
-6.57674
6.57042
-0.0155827
0.0219025
-6.5643
6.55832
-0.0147907
0.020769
-6.55239
6.54658
-0.0142485
0.02006
-6.5406
6.53454
-0.0140449
0.0201087
-6.52822
6.52161
-0.0146038
0.0212209
-6.51486
6.50769
-0.0156313
0.0228035
-6.50041
6.49286
-0.016156
0.0237086
-6.4853
6.47799
-0.0152317
0.0225448
-6.47054
6.46247
-0.0114815
0.0195511
-6.45309
6.44206
-0.0113227
0.0223509
-6.43085
6.42041
-0.0235232
0.0339646
-6.41141
6.40335
-0.0272494
0.0353127
-6.39573
6.38843
-0.0179013
0.025199
0.437442
-0.499086
0.0616445
-0.123125
0.160074
0.182212
-0.219161
-0.193075
0.225099
0.132911
-0.164935
-0.256529
0.287418
0.114154
-0.145044
-0.318312
0.348571
0.11667
-0.146929
-0.376409
0.403158
0.120012
-0.146761
-0.429364
0.455153
0.0878222
-0.113611
-0.478111
0.49297
-0.0388634
0.024004
-0.497927
0.49731
-0.444397
0.445014
-0.476616
0.455607
-0.990521
1.01153
-0.478172
0.459413
-1.17087
1.18963
-0.348542
0.256152
-0.346909
0.439299
-0.227919
0.316392
-0.0823095
-0.00616353
-0.440956
0.682058
0.0318346
-0.272937
-1.1476
1.69552
-1.74413
1.1962
-0.871346
-0.436349
-1.06132
2.36901
1.35001
-2.0829
-0.579121
1.312
2.76176
-3.33242
-0.653312
1.22397
3.66868
-3.71108
-0.579612
0.622012
3.47929
-2.93177
-0.848782
0.301261
1.78773
0.758822
1.96175
-4.50831
-2.47772
2.77558
6.28694
-6.58481
-2.97051
3.29898
4.84421
-5.17268
-3.73022
4.19845
3.02171
-3.48994
-4.65099
5.06085
1.90434
-2.31419
-5.41805
5.72085
1.24322
-1.54602
-5.97234
6.17794
0.809868
-1.01547
-6.34296
6.47345
0.513019
-0.643509
-6.57519
6.65332
0.311748
-0.389875
-6.7125
6.75671
0.179941
-0.22415
-6.7891
6.8124
0.096391
-0.119693
-6.82867
6.83951
0.0443174
-0.0551651
-6.84626
6.84986
0.0124134
-0.0160109
-6.85108
6.8506
-0.00683719
0.00731141
-6.8488
6.846
-0.0184081
0.0212098
-6.84243
6.83826
-0.0258619
0.0300268
-6.83364
6.82866
-0.0307933
0.0357777
-6.82337
6.81783
-0.0342125
0.0397546
-6.81205
6.80606
-0.0365818
0.0425749
-6.79991
6.79364
-0.0378191
0.0440858
-6.78733
6.78106
-0.0378288
0.0440961
-6.7749
6.76882
-0.0371189
0.0431935
-6.76286
6.75696
-0.0362643
0.0421645
-6.75113
6.74544
-0.0350095
0.0406989
-6.73988
6.73452
-0.0331788
0.0385349
-6.72934
6.72435
-0.0310968
0.0360875
-6.71954
6.71487
-0.0290358
0.0337037
-6.71036
6.70595
-0.0272144
0.0316241
-6.70162
6.69732
-0.0258565
0.0301544
-6.69296
6.68857
-0.0251257
0.0295234
-6.68397
6.67913
-0.025506
0.0303469
-6.67396
6.66838
-0.0272515
0.0328282
-6.66246
6.6561
-0.0294936
0.0358598
-6.64937
6.6422
-0.030948
0.0381193
-6.63461
6.62674
-0.0300931
0.03797
-6.61844
6.60963
-0.02811
0.0369136
-6.59997
6.58931
-0.0331631
0.0438232
-6.57838
6.56796
-0.0442122
0.0546322
-6.55882
6.55129
-0.0430022
0.0505383
-6.54511
6.54
-0.0312242
0.0363334
0.541406
-0.572564
0.0311582
-0.0876843
0.125268
0.255484
-0.293068
-0.158783
0.190404
0.195402
-0.227023
-0.222078
0.25487
0.175913
-0.208706
-0.285585
0.315136
0.177173
-0.206723
-0.343908
0.371091
0.17416
-0.201343
-0.396997
0.423369
0.13969
-0.166062
-0.450354
0.475934
-0.00359955
-0.0219812
-0.502722
0.538424
-0.424184
0.388483
-0.565696
0.568263
-1.02057
1.018
-0.582454
0.607456
-1.17287
1.14787
-0.558967
0.440442
-0.564973
0.683498
-0.320607
0.246107
-0.0105311
0.0850306
-0.208441
0.226128
0.379091
-0.396778
-0.338717
0.702998
-0.765694
0.401413
-0.633292
0.361229
-3.16645
3.43851
0.151306
-0.753717
-2.06994
2.67235
1.40013
-1.92337
-1.79738
2.32061
2.05437
-1.65006
-0.443048
0.0387387
0.724465
0.604018
0.786402
-2.11489
-2.99185
3.87011
5.87641
-6.75467
-3.84308
3.81268
6.60857
-6.57818
-3.85434
4.01965
5.38856
-5.55387
-4.28435
4.61091
3.86983
-4.19638
-4.95841
5.29786
2.68231
-3.02175
-5.60791
5.87881
1.83085
-2.10175
-6.10596
6.29093
1.21031
-1.39528
-6.43779
6.55222
0.766058
-0.880488
-6.63959
6.70572
0.461997
-0.528124
-6.75493
6.79151
0.264264
-0.300842
-6.8184
6.8381
0.140751
-0.160449
-6.85237
6.86262
0.0652219
-0.0754754
-6.86986
6.87486
0.0198384
-0.0248446
-6.87821
6.88035
-0.00688354
0.00474693
-6.8816
6.88214
-0.0226673
0.0221231
-6.88209
6.88155
-0.0326188
0.0331636
-6.88061
6.87933
-0.0390727
0.0403459
-6.87778
6.87595
-0.0435529
0.0453859
-6.87384
6.87144
-0.0468336
0.0492367
-6.86878
6.86587
-0.0486957
0.0515998
-6.86283
6.85972
-0.0487792
0.0518922
-6.85666
6.85363
-0.0477185
0.0507434
-6.85062
6.84756
-0.0466096
0.0496722
-6.84446
6.84136
-0.0450448
0.0481484
-6.83831
6.83536
-0.0426287
0.045581
-6.83251
6.82973
-0.0399097
0.0426849
-6.82703
6.82437
-0.0373025
0.0399681
-6.82176
6.81915
-0.0350634
0.0376751
-6.81649
6.81371
-0.0336221
0.0364025
-6.81077
6.80764
-0.0332126
0.036339
-6.80425
6.8005
-0.0345633
0.0383088
-6.79632
6.79159
-0.0379062
0.0426296
-6.78635
6.78055
-0.0418513
0.0476487
-6.77422
6.76718
-0.0451355
0.0521724
-6.75938
6.75099
-0.0460188
0.0544109
-6.74232
6.73362
-0.0456305
0.054333
-6.7246
6.71474
-0.0540248
0.0638811
-6.70413
6.69342
-0.0651002
0.0758097
-6.68384
6.67651
-0.05787
0.0651931
-6.67138
6.66778
-0.0405917
0.044196
0.595574
-0.60723
0.0116557
-0.0558468
0.0908916
0.32968
-0.364725
-0.125133
0.158794
0.260315
-0.293976
-0.191351
0.222073
0.239999
-0.270721
-0.251601
0.279327
0.234755
-0.262481
-0.305996
0.331876
0.227849
-0.253728
-0.357531
0.38416
0.192384
-0.219013
-0.412724
0.4434
0.0505244
-0.0811998
-0.479121
0.530505
-0.342893
0.291509
-0.587633
0.623946
-1.00207
0.965753
-0.63843
0.653582
-1.12538
1.11023
-0.64757
0.58507
-0.775394
0.837894
-0.470294
0.338468
-0.195072
0.326898
-0.231635
0.188834
0.370326
-0.327525
-0.231901
0.200975
-0.113178
0.144105
-0.0477689
0.147395
-3.50364
3.40401
-0.398373
0.435857
-2.98287
2.94538
-0.163734
-0.18022
-2.75728
3.10123
0.082996
0.687731
0.546086
-1.31681
-1.99105
3.886
4.19406
-6.08901
-4.26871
4.28729
6.79406
-6.81264
-4.28105
4.28043
6.55612
-6.5555
-4.33292
4.46429
5.69283
-5.8242
-4.67268
4.9356
4.48077
-4.74368
-5.22583
5.51636
3.33158
-3.62211
-5.78503
6.01943
2.35255
-2.58694
-6.21295
6.36668
1.5641
-1.71783
-6.48631
6.57802
0.982813
-1.07452
-6.64761
6.70117
0.586719
-0.640275
-6.74248
6.77507
0.334002
-0.366592
-6.80129
6.82282
0.179748
-0.201287
-6.84074
6.85589
0.0871282
-0.102281
-6.86881
6.87994
0.0321508
-0.0432803
-6.88957
6.89803
2.23222e-05
-0.0084766
-6.90549
6.91209
-0.0188764
0.0122734
-6.91778
6.92271
-0.0311452
0.0262133
-6.92693
6.93056
-0.0392439
0.0356219
-6.93365
6.93625
-0.0450091
0.0424024
-6.93835
6.93994
-0.0496123
0.0480183
-6.94103
6.94164
-0.0526853
0.0520661
-6.94185
6.9418
-0.0533727
0.053426
-6.94166
6.9415
-0.0522427
0.0524041
-6.94121
6.94072
-0.0513458
0.0518312
-6.94003
6.93917
-0.0500263
0.0508884
-6.93824
6.93729
-0.0474246
0.0483721
-6.93635
6.93538
-0.0444564
0.04543
-6.93434
6.93322
-0.0417565
0.0428762
-6.93205
6.93078
-0.0395147
0.0407812
-6.92935
6.92764
-0.0385485
0.0402555
-6.92565
6.92336
-0.0389466
0.0412363
-6.92074
6.91771
-0.0416014
0.0446363
-6.91415
6.90992
-0.0470108
0.0512351
-6.90501
6.8995
-0.0532078
0.0587152
-6.89338
6.88641
-0.0591097
0.0660816
-6.87831
6.86929
-0.063016
0.0720359
-6.86007
6.85157
-0.0628293
0.0713304
-6.84353
6.83485
-0.0731066
0.0817855
-6.82484
6.81387
-0.0865642
0.097533
-6.80362
6.79638
-0.0723941
0.0796342
-6.79229
6.78987
-0.0471492
0.0495675
0.608412
-0.596804
-0.011608
-0.0198649
0.0471551
0.396265
-0.423555
-0.0805137
0.116075
0.328076
-0.363637
-0.150225
0.182996
0.3021
-0.334871
-0.213352
0.240791
0.289733
-0.317173
-0.265787
0.289473
0.278339
-0.302025
-0.313066
0.338084
0.244888
-0.269905
-0.366444
0.398883
0.11273
-0.145169
-0.437232
0.488377
-0.239898
0.188753
-0.562874
0.636015
-0.907979
0.834837
-0.674425
0.680232
-1.10162
1.09581
-0.670122
0.648503
-0.871761
0.89338
-0.583594
0.458391
-0.466
0.591203
-0.316293
0.252204
0.261598
-0.197509
0.217474
-1.12211
-0.705661
1.6103
0.841137
-0.23741
-3.07186
2.46813
-0.290692
0.778254
-2.58243
2.09486
-1.08041
1.08451
-3.33556
3.33146
-1.52302
2.98014
2.35844
-3.81556
-4.31349
4.38245
6.94139
-7.01035
-4.41061
4.44267
6.83929
-6.87135
-4.4833
4.53763
6.58364
-6.63798
-4.62555
4.76337
5.95604
-6.09386
-4.95309
5.1833
4.98634
-5.21656
-5.43292
5.67995
3.8884
-4.13543
-5.90313
6.09063
2.79738
-2.98488
-6.23952
6.35339
1.85106
-1.96493
-6.44435
6.5178
1.15476
-1.22821
-6.57979
6.63415
0.690745
-0.745107
-6.68187
6.72506
0.401534
-0.444722
-6.76392
6.7987
0.227572
-0.262351
-6.8297
6.85733
0.122648
-0.150274
-6.88187
6.90362
0.0592597
-0.0810135
-6.92285
6.93985
0.0210627
-0.0380605
-6.95491
6.96825
-0.00213215
-0.0112146
-6.9799
6.99028
-0.0184422
0.00806613
-6.99926
7.00716
-0.0296914
0.0217962
-7.01409
7.02021
-0.0378378
0.031721
-7.02557
7.03018
-0.0447286
0.0401242
-7.03406
7.03727
-0.0499943
0.0467916
-7.03981
7.0418
-0.052292
0.0503066
-7.0435
7.04512
-0.0515013
0.0498785
-7.04655
7.04771
-0.0513374
0.0501844
-7.04853
7.04906
-0.0509193
0.0503911
-7.04938
7.0496
-0.0486152
0.0483977
-7.04974
7.04977
-0.0457728
0.0457396
-7.04964
7.0493
-0.0434878
0.0438312
-7.0488
7.04816
-0.041619
0.0422619
-7.04729
7.04602
-0.0416413
0.0429142
-7.04432
7.04223
-0.043313
0.0453969
-7.03976
7.03687
-0.0474838
0.0503709
-7.03345
7.02935
-0.0553223
0.0594191
-7.02446
7.01886
-0.0641747
0.0697748
-7.01282
7.00597
-0.0729603
0.0798099
-6.99779
6.98811
-0.0813482
0.0910277
-6.97778
6.96889
-0.079833
0.0887208
-6.96175
6.95443
-0.0897165
0.0970361
-6.94584
6.93545
-0.108315
0.118706
-6.92476
6.9176
-0.0868268
0.0939847
-6.91474
6.91311
-0.0514951
0.0531254
0.570506
-0.533342
-0.0371636
0.0229074
0.00213905
0.448098
-0.473145
-0.0344524
0.0685136
0.399552
-0.433613
-0.103336
0.135975
0.368224
-0.400863
-0.16701
0.196161
0.344628
-0.373779
-0.222055
0.244918
0.324671
-0.347534
-0.266157
0.287507
0.293188
-0.314538
-0.312492
0.342723
0.176899
-0.20713
-0.380625
0.429665
-0.139368
0.0903282
-0.497212
0.577933
-0.754648
0.673928
-0.635315
0.642869
-1.09006
1.08251
-0.617145
0.583127
-0.919665
0.953683
-0.549784
0.474387
-0.683629
0.759026
-0.207967
-0.355541
-0.129374
0.692883
0.968573
-0.772233
-2.1112
1.91486
0.203671
-0.0350689
-1.8717
1.7031
-0.00458491
0.169154
-1.79767
1.6331
-0.777704
1.46806
-2.88322
2.19287
-3.11457
4.38416
5.47064
-6.74023
-4.36608
4.40749
7.03299
-7.0744
-4.46494
4.53295
6.92225
-6.99027
-4.61431
4.71045
6.71457
-6.81071
-4.82843
4.97716
6.23504
-6.38377
-5.15437
5.35554
5.43129
-5.63245
-5.56233
5.75307
4.35507
-4.54581
-5.90992
6.0264
3.14033
-3.25681
-6.12663
6.20204
2.05626
-2.13167
-6.29568
6.39022
1.3029
-1.39745
-6.48166
6.5675
0.81093
-0.896769
-6.64642
6.71693
0.500527
-0.571034
-6.77623
6.82773
0.306588
-0.358085
-6.87274
6.91194
0.184675
-0.223879
-6.94603
6.97576
0.107466
-0.137199
-7.0016
7.02402
0.0582675
-0.0806922
-7.04346
7.06035
0.0267035
-0.0435926
-7.07498
7.08771
0.00363467
-0.0163689
-7.09898
7.1089
-0.0126771
0.00275146
-7.11751
7.125
-0.0247198
0.0172258
-7.1316
7.13743
-0.0347641
0.0289274
-7.14257
7.14707
-0.0428607
0.038369
-7.15092
7.15409
-0.0477338
0.0445583
-7.15666
7.15885
-0.0478415
0.0456494
-7.16085
7.16266
-0.048643
0.0468306
-7.16424
7.16555
-0.0494763
0.0481712
-7.16656
7.1673
-0.0478949
0.0471541
-7.16783
7.1682
-0.0454948
0.0451252
-7.1684
7.16836
-0.0440253
0.0440596
-7.16804
7.16744
-0.0428406
0.0434393
-7.16658
7.16534
-0.0441574
0.0453941
-7.16363
7.16141
-0.047527
0.0497513
-7.15868
7.15549
-0.0533478
0.0565441
-7.15185
7.14774
-0.0634952
0.0676056
-7.14299
7.13742
-0.0754219
0.0809873
-7.13117
7.12435
-0.0865034
0.0933206
-7.11673
7.10771
-0.100638
0.109663
-7.09724
7.08747
-0.0978917
0.107669
-7.07973
7.07279
-0.103826
0.11076
-7.06675
7.06005
-0.127806
0.134497
-7.05097
7.04547
-0.100549
0.106048
-7.04408
7.04141
-0.0549588
0.0576266
0.496761
-0.466878
-0.0298826
0.0363309
-0.0217609
0.495767
-0.510337
0.0043105
0.0179476
0.46209
-0.484348
-0.0448416
0.0729652
0.432165
-0.460288
-0.103816
0.135022
0.403773
-0.43498
-0.164665