/*--------------------------------*- C++ -*----------------------------------*\
| =========                 |                                                 |
| \\      /  F ield         | OpenFOAM: The Open Source CFD Toolbox           |
|  \\    /   O peration     | Version:  v1912                                 |
|   \\  /    A nd           | Website:  www.openfoam.com                      |
|    \\/     M anipulation  |                                                 |
\*---------------------------------------------------------------------------*/
FoamFile
{
    version     2.0;
    format      ascii;
    class       volVectorField;
    location    "32";
    object      U;
}
// * * * * * * * * * * * * * * * * * * * * * * * * * * * * * * * * * * * * * //

dimensions      [0 1 -1 0 0 0 0];


internalField   nonuniform List<vector> 
20320
(
(1.85449 0.00629669 0)
(1.85313 -0.00525589 0)
(1.83785 0.0044783 0)
(1.80826 0.0120099 0)
(1.7675 0.019235 0)
(1.7162 0.0262756 0)
(1.65458 0.0329388 0)
(1.58295 0.0388983 0)
(1.50191 0.044456 0)
(1.4119 0.0497334 0)
(1.31339 0.0546854 0)
(1.20695 0.0592753 0)
(1.09317 0.0634875 0)
(0.972672 0.0674391 0)
(0.846195 0.0710607 0)
(0.714326 0.0748244 0)
(0.577204 0.0793193 0)
(0.434241 0.0863789 0)
(0.284295 0.0991476 0)
(0.124455 0.125619 0)
(1.85462 0.0112736 0)
(1.84605 0.0356434 0)
(1.8267 0.0666623 0)
(1.79644 0.0978167 0)
(1.75523 0.128418 0)
(1.70329 0.158259 0)
(1.64091 0.187241 0)
(1.56855 0.215221 0)
(1.48662 0.242039 0)
(1.39552 0.267555 0)
(1.29572 0.291682 0)
(1.18764 0.314339 0)
(1.07175 0.335397 0)
(0.948503 0.354685 0)
(0.818381 0.371974 0)
(0.681927 0.387163 0)
(0.53976 0.400541 0)
(0.392718 0.413439 0)
(0.242221 0.428653 0)
(0.0906033 0.454691 0)
(1.85461 0.0170497 0)
(1.84612 0.0698503 0)
(1.8266 0.125447 0)
(1.7961 0.180574 0)
(1.75475 0.234735 0)
(1.70278 0.287572 0)
(1.64042 0.338887 0)
(1.56798 0.388383 0)
(1.48585 0.43573 0)
(1.3945 0.480715 0)
(1.29452 0.523209 0)
(1.18648 0.563143 0)
(1.07098 0.600483 0)
(0.948498 0.635076 0)
(0.819471 0.666555 0)
(0.68423 0.694275 0)
(0.542995 0.717324 0)
(0.396103 0.73502 0)
(0.244718 0.747768 0)
(0.0918861 0.774276 0)
(1.85461 0.0228335 0)
(1.84636 0.0997765 0)
(1.8272 0.17909 0)
(1.79702 0.257487 0)
(1.756 0.334557 0)
(1.70438 0.4099 0)
(1.64233 0.483066 0)
(1.57013 0.553612 0)
(1.48811 0.6211 0)
(1.39669 0.685143 0)
(1.29637 0.745409 0)
(1.18778 0.801679 0)
(1.0717 0.853908 0)
(0.948906 0.902112 0)
(0.820146 0.946214 0)
(0.68596 0.985739 0)
(0.546628 1.01941 0)
(0.402128 1.04504 0)
(0.252488 1.06059 0)
(0.0990718 1.09048 0)
(1.85461 0.0282987 0)
(1.8465 0.127809 0)
(1.82763 0.22942 0)
(1.79793 0.329918 0)
(1.75752 0.428828 0)
(1.70658 0.525671 0)
(1.64527 0.619895 0)
(1.5738 0.710925 0)
(1.49246 0.798194 0)
(1.40161 0.881166 0)
(1.30167 0.959304 0)
(1.19317 1.03212 0)
(1.07678 1.09928 0)
(0.953352 1.16062 0)
(0.823825 1.21619 0)
(0.68908 1.26594 0)
(0.549715 1.30898 0)
(0.40597 1.34274 0)
(0.257617 1.36378 0)
(0.103486 1.39791 0)
(1.85461 0.0334362 0)
(1.8467 0.154285 0)
(1.82831 0.277011 0)
(1.79932 0.398497 0)
(1.75983 0.518214 0)
(1.70994 0.635627 0)
(1.64975 0.750088 0)
(1.57941 0.860912 0)
(1.49915 0.967409 0)
(1.40924 1.06891 0)
(1.31004 1.16471 0)
(1.20199 1.2541 0)
(1.08567 1.33645 0)
(0.961814 1.41125 0)
(0.831374 1.47832 0)
(0.695401 1.53779 0)
(0.554813 1.58926 0)
(0.410153 1.6304 0)
(0.261353 1.65719 0)
(0.10538 1.69498 0)
(1.85461 0.0382056 0)
(1.847 0.179021 0)
(1.82927 0.321519 0)
(1.8013 0.462735 0)
(1.7631 0.602124 0)
(1.71472 0.739117 0)
(1.65615 0.872988 0)
(1.58745 1.00296 0)
(1.50874 1.12821 0)
(1.4202 1.24796 0)
(1.32209 1.36132 0)
(1.21477 1.4674 0)
(1.09871 1.56529 0)
(0.974547 1.65413 0)
(0.843152 1.73333 0)
(0.705622 1.80286 0)
(0.563123 1.8626 0)
(0.416563 1.91062 0)
(0.26609 1.94287 0)
(0.107234 1.98328 0)
(1.85462 0.0425629 0)
(1.8474 0.201815 0)
(1.83058 0.362593 0)
(1.80398 0.522154 0)
(1.76756 0.679974 0)
(1.72124 0.835489 0)
(1.6649 0.987921 0)
(1.59847 1.13641 0)
(1.52193 1.28004 0)
(1.43532 1.41787 0)
(1.33876 1.54887 0)
(1.23249 1.67191 0)
(1.11687 1.78585 0)
(0.992439 1.88946 0)
(0.859962 1.98172 0)
(0.720512 2.06217 0)
(0.575409 2.13064 0)
(0.425917 2.18556 0)
(0.272497 2.22313 0)
(0.108709 2.26519 0)
(1.85462 0.0464576 0)
(1.84793 0.222438 0)
(1.83231 0.399832 0)
(1.80753 0.576198 0)
(1.77345 0.751083 0)
(1.72986 0.923973 0)
(1.67651 1.09407 0)
(1.61314 1.26046 0)
(1.53955 1.42213 0)
(1.45559 1.57803 0)
(1.36121 1.72693 0)
(1.25645 1.86747 0)
(1.14155 1.99823 0)
(1.01689 2.11763 0)
(0.883139 2.22415 0)
(0.741319 2.31677 0)
(0.592869 2.39496 0)
(0.439431 2.45729 0)
(0.282022 2.50019 0)
(0.111857 2.54285 0)
(1.85462 0.0498363 0)
(1.8486 0.240632 0)
(1.83451 0.432785 0)
(1.81206 0.624235 0)
(1.78099 0.814661 0)
(1.74096 1.00365 0)
(1.6915 1.19044 0)
(1.63218 1.37409 0)
(1.56254 1.55352 0)
(1.48219 1.72757 0)
(1.39083 1.89482 0)
(1.28827 2.05366 0)
(1.1745 2.20235 0)
(1.04975 2.33893 0)
(0.914523 2.46134 0)
(0.769747 2.56786 0)
(0.616951 2.65735 0)
(0.458188 2.72826 0)
(0.295121 2.77716 0)
(0.116189 2.81808 0)
(1.85462 0.0526444 0)
(1.84943 0.256132 0)
(1.83724 0.460977 0)
(1.81769 0.665588 0)
(1.79041 0.869844 0)
(1.75486 1.0735 0)
(1.7104 1.27587 0)
(1.65631 1.47605 0)
(1.59188 1.67295 0)
(1.5164 1.8653 0)
(1.42923 2.05152 0)
(1.32985 2.22976 0)
(1.21794 2.3979 0)
(1.09343 2.55353 0)
(0.956589 2.69401 0)
(0.808196 2.81678 0)
(0.649801 2.91981 0)
(0.48386 3.00103 0)
(0.3126 3.05694 0)
(0.11973 3.09377 0)
(1.85462 0.0548315 0)
(1.85044 0.268675 0)
(1.84053 0.483932 0)
(1.82449 0.699565 0)
(1.80182 0.915716 0)
(1.77182 1.13238 0)
(1.73359 1.34904 0)
(1.68617 1.56486 0)
(1.62851 1.77882 0)
(1.55951 1.98962 0)
(1.47812 2.19556 0)
(1.38337 2.39452 0)
(1.27446 2.58405 0)
(1.1509 2.76122 0)
(1.01255 2.9227 0)
(0.859901 3.06496 0)
(0.694423 3.18471 0)
(0.51895 3.27898 0)
(0.336119 3.34375 0)
(0.121076 3.37666 0)
(1.85463 0.0563575 0)
(1.8516 0.278034 0)
(1.84437 0.501228 0)
(1.83246 0.725524 0)
(1.81526 0.951396 0)
(1.79191 1.17916 0)
(1.76131 1.40852 0)
(1.7222 1.63885 0)
(1.67318 1.86925 0)
(1.61272 2.09849 0)
(1.53924 2.32486 0)
(1.45119 2.54606 0)
(1.34711 2.7593 0)
(1.22584 2.96117 0)
(1.08659 3.14754 0)
(0.92929 3.31371 0)
(0.755128 3.45474 0)
(0.567336 3.56602 0)
(0.369505 3.64214 0)
(0.125985 3.67114 0)
(1.85463 0.0571966 0)
(1.85292 0.284039 0)
(1.84872 0.512533 0)
(1.8415 0.742936 0)
(1.83061 0.976103 0)
(1.81504 1.21274 0)
(1.79352 1.45288 0)
(1.76453 1.69618 0)
(1.72632 1.94201 0)
(1.67691 2.18937 0)
(1.61412 2.43665 0)
(1.53567 2.68156 0)
(1.43924 2.92112 0)
(1.32265 3.15149 0)
(1.18407 3.36779 0)
(1.02236 3.56393 0)
(0.837955 3.7329 0)
(0.63423 3.86764 0)
(0.416389 3.9606 0)
(0.137698 3.98643 0)
(1.85463 0.0573428 0)
(1.85436 0.2866 0)
(1.85346 0.517655 0)
(1.85143 0.751449 0)
(1.84757 0.989251 0)
(1.84082 1.23222 0)
(1.8298 1.48078 0)
(1.8128 1.735 0)
(1.78779 1.99468 0)
(1.75236 2.25921 0)
(1.70373 2.52734 0)
(1.6388 2.79705 0)
(1.55417 3.06545 0)
(1.44629 3.32858 0)
(1.31166 3.58098 0)
(1.14731 3.81522 0)
(0.951873 4.02162 0)
(0.72792 4.18936 0)
(0.481925 4.30677 0)
(0.154578 4.33113 0)
(1.85464 0.056813 0)
(1.85587 0.285738 0)
(1.85846 0.516588 0)
(1.86196 0.750966 0)
(1.86568 0.990557 0)
(1.8686 1.237 0)
(1.86933 1.49118 0)
(1.86611 1.75368 0)
(1.85673 2.02485 0)
(1.8385 2.30471 0)
(1.80812 2.59266 0)
(1.7617 2.88732 0)
(1.69468 3.18638 0)
(1.60181 3.48636 0)
(1.47726 3.78188 0)
(1.315 4.06463 0)
(1.11013 4.32222 0)
(0.862219 4.53862 0)
(0.57774 4.69495 0)
(0.183734 4.72603 0)
(1.85464 0.0556473 0)
(1.8574 0.281584 0)
(1.86356 0.509532 0)
(1.87272 0.741686 0)
(1.88432 0.980116 0)
(1.89747 1.22693 0)
(1.91088 1.4835 0)
(1.92291 1.75097 0)
(1.9314 2.0304 0)
(1.93355 2.32258 0)
(1.92585 2.62789 0)
(1.90384 2.94602 0)
(1.86195 3.27591 0)
(1.79324 3.61547 0)
(1.68909 3.9607 0)
(1.5391 4.30402 0)
(1.33202 4.63151 0)
(1.05984 4.92124 0)
(0.724539 5.14235 0)
(0.237977 5.19901 0)
(1.85465 0.0539076 0)
(1.85889 0.274386 0)
(1.86855 0.496898 0)
(1.88332 0.724126 0)
(1.90281 0.958455 0)
(1.92634 1.20241 0)
(1.9529 1.45782 0)
(1.98113 1.7264 0)
(2.00915 2.00991 0)
(2.03445 2.3101 0)
(2.05364 2.62849 0)
(2.06222 2.96626 0)
(2.05423 3.32424 0)
(2.0216 3.70287 0)
(1.95334 4.10146 0)
(1.83422 4.51627 0)
(1.6439 4.93614 0)
(1.35891 5.33683 0)
(0.963584 5.67285 0)
(0.344749 5.80433 0)
(1.85465 0.0516726 0)
(1.8603 0.264491 0)
(1.87325 0.479288 0)
(1.89335 0.699102 0)
(1.92042 0.926537 0)
(1.95406 1.16444 0)
(1.99366 1.415 0)
(2.0383 1.68041 0)
(2.08666 1.96312 0)
(2.13684 2.26576 0)
(2.18613 2.59106 0)
(2.23073 2.94181 0)
(2.26527 3.32114 0)
(2.28205 3.73284 0)
(2.26964 4.18144 0)
(2.21019 4.6712 0)
(2.07517 5.20192 0)
(1.81995 5.76056 0)
(1.38435 6.30262 0)
(0.589881 6.63327 0)
(1.85465 0.0490321 0)
(1.86157 0.252318 0)
(1.87751 0.457448 0)
(1.90248 0.667672 0)
(1.93651 0.885699 0)
(1.97957 1.11457 0)
(2.03146 1.35669 0)
(2.09188 1.61459 0)
(2.16026 1.89122 0)
(2.23562 2.1899 0)
(2.31642 2.51438 0)
(2.40029 2.86884 0)
(2.48373 3.25843 0)
(2.56143 3.6902 0)
(2.62501 4.17436 0)
(2.66014 4.72562 0)
(2.6402 5.36302 0)
(2.51328 6.10727 0)
(2.16874 6.97454 0)
(1.31203 7.80612 0)
(0.403177 -0.268406 0)
(0.779018 -0.0817854 0)
(1.10548 -0.0367081 0)
(1.30787 -0.0257592 5.13586e-21)
(1.52251 -0.0318475 0)
(1.79303 -0.0423994 0)
(1.99401 -0.0401815 0)
(1.87125 0.0198655 0)
(1.26049 0.298094 0)
(-1.72715 0.74567 1.53624e-20)
(-6.93458 0.427667 0)
(-8.76162 0.04117 0)
(-9.11319 -0.143685 -9.66905e-21)
(-9.52913 -0.0136489 -9.74588e-21)
(-9.76529 0.0054695 0)
(-9.67061 -0.102498 2.57203e-21)
(-9.67824 -0.0273898 -1.41896e-21)
(-10.0961 0.0706356 1.6807e-21)
(-10.9514 0.160965 0)
(-12.3337 -0.0720534 -8.51873e-22)
(-13.9097 -1.32545 -4.29359e-21)
(-13.773 -2.31863 8.8885e-19)
(2.50451 -3.69789 -1.32982e-19)
(12.993 -1.48463 -1.7635e-19)
(17.971 -0.761254 0)
(20.7925 -0.472632 -1.10992e-19)
(22.5672 -0.304151 0)
(23.6897 -0.196615 5.46743e-20)
(24.3742 -0.125905 7.19444e-20)
(24.7723 -0.0794111 0)
(24.9882 -0.0489419 1.43535e-20)
(25.09 -0.0287201 -8.83406e-21)
(25.1209 -0.0145234 2.69228e-21)
(25.1094 -0.00569811 -1.62345e-21)
(25.0706 -0.00396884 0)
(25.0143 -0.00188709 0)
(24.9464 -0.000173669 -2.8808e-22)
(24.8697 0.00135527 0)
(24.7869 0.00266972 5.73755e-23)
(24.7004 0.0036244 0)
(24.6124 0.00419277 0)
(24.5248 0.00462241 -3.2866e-23)
(24.4385 0.00507057 0)
(24.3549 0.00541021 0)
(24.2756 0.00545429 3.37094e-23)
(24.201 0.0050922 3.35761e-23)
(24.1302 0.00462069 0)
(24.0631 0.00437412 -1.69479e-23)
(24.0006 0.00446212 2.08804e-23)
(23.9424 0.0046631 -2.79549e-23)
(23.8877 0.0037409 0)
(23.8317 0.00351617 4.73893e-23)
(23.7677 0.005902 0)
(23.7002 0.00629367 -4.03724e-23)
(23.6386 0.00674331 0)
(23.5892 0.00271813 0)
(23.5724 -0.0265508 -4.15125e-25)
(23.5315 0.00481275 1.06825e-25)
(23.3954 0.051906 0)
(23.2887 0.0187626 0)
(0.527613 -0.646483 0)
(0.755999 -0.247444 0)
(0.992046 -0.166955 -3.54523e-21)
(1.21735 -0.136514 0)
(1.44564 -0.145439 0)
(1.66688 -0.158256 5.81101e-21)
(1.84449 -0.108574 -5.35923e-21)
(1.84605 0.0884724 0)
(1.35304 0.772445 -1.00062e-23)
(0.0833379 1.79901 1.24968e-20)
(-1.34016 2.00708 4.08425e-23)
(-1.00379 0.942148 2.40397e-18)
(-2.44259 0.625799 -2.04099e-18)
(-4.23895 1.26836 0)
(-8.45045 0.304543 0)
(-9.99143 -0.0755044 7.01748e-20)
(-10.193 0.0576774 0)
(-10.6997 0.201587 0)
(-11.4907 0.377421 6.8593e-22)
(-13.4655 0.895377 0)
(-19.7203 0.697263 0)
(3.94446 -7.77551 0)
(9.10918 -7.77153 -1.383e-19)
(14.4494 -4.20061 -9.96309e-20)
(18.3992 -2.42918 1.10502e-19)
(21.1013 -1.53193 9.11415e-20)
(22.9057 -0.983881 0)
(24.0767 -0.620311 0)
(24.805 -0.377011 3.15812e-20)
(25.2368 -0.218191 -1.36493e-23)
(25.4776 -0.117265 0)
(25.5984 -0.0543209 3.85216e-24)
(25.6449 -0.0160024 -4.46935e-21)
(25.6479 0.00902841 0)
(25.6231 0.0248019 0)
(25.5818 0.0350439 -8.04147e-22)
(25.5302 0.0419114 0)
(25.4715 0.0467447 0)
(25.408 0.0500622 0)
(25.3415 0.051748 4.89165e-23)
(25.2742 0.0518504 6.64873e-23)
(25.2081 0.0510858 -1.40763e-22)
(25.1436 0.0500524 6.48793e-23)
(25.0812 0.0484517 0)
(25.0218 0.0460555 -5.37998e-23)
(24.9662 0.0431903 0)
(24.9142 0.0403169 4.50603e-23)
(24.8656 0.0378018 -2.2559e-23)
(24.8197 0.0358446 -2.52287e-23)
(24.7756 0.0345606 3.17272e-23)
(24.7312 0.034364 -4.25878e-23)
(24.6837 0.0359592 -5.72494e-23)
(24.6322 0.0385995 1.35319e-22)
(24.5768 0.0399976 0)
(24.5203 0.0376411 0)
(24.4653 0.030864 0)
(24.395 0.0301692 0)
(24.3097 0.0552105 -4.01758e-23)
(24.2419 0.0636362 1.99675e-23)
(24.1871 0.044647 0)
(0.602231 -0.931248 0)
(0.724299 -0.398012 -1.6312e-21)
(0.919872 -0.29566 0)
(1.13196 -0.255346 -3.88061e-21)
(1.36077 -0.259242 -4.78436e-21)
(1.5695 -0.263213 -4.87352e-21)
(1.73362 -0.199375 0)
(1.7813 0.0657468 -4.04576e-21)
(1.49353 0.8913 0)
(0.862854 1.99414 0)
(0.817292 2.3735 0)
(0.778897 0.79926 0)
(1.03833 -0.0296894 0)
(2.01629 -0.471224 0)
(4.2731 2.86532 0)
(-0.751463 3.42631 0)
(-7.07353 1.79754 0)
(-12.1849 1.83152 4.92746e-20)
(-14.416 1.29052 0)
(-12.7589 1.39397 0)
(-5.09841 -6.46 0)
(15.0311 -12.7301 0)
(14.563 -10.019 0)
(16.703 -6.49877 0)
(19.3333 -4.19971 0)
(21.547 -2.77038 0)
(23.1291 -1.81189 0)
(24.1611 -1.14841 0)
(24.7885 -0.697393 2.89992e-20)
(25.1468 -0.402151 0)
(25.3378 -0.215219 -1.15154e-20)
(25.4287 -0.0990921 0)
(25.4613 -0.0280828 0)
(25.4606 0.0143379 0)
(25.4418 0.0397432 0)
(25.4122 0.0559731 0)
(25.3761 0.0666189 -1.90334e-22)
(25.336 0.0739831 0)
(25.2927 0.0791343 0)
(25.2471 0.0818291 0)
(25.2009 0.0818265 -4.28849e-23)
(25.156 0.0802225 4.68496e-23)
(25.1125 0.0783159 -4.17944e-23)
(25.0703 0.0755779 0)
(25.0302 0.0715921 -3.25495e-23)
(24.9929 0.0670637 0)
(24.9581 0.0626199 0)
(24.9255 0.0587156 0)
(24.8941 0.0558487 0)
(24.8625 0.0544396 2.59048e-23)
(24.8287 0.0555905 0)
(24.7904 0.0597237 1.02337e-22)
(24.7465 0.0648826 0)
(24.6967 0.0684582 0)
(24.641 0.0672942 4.3154e-23)
(24.5803 0.0643357 -5.48433e-23)
(24.5086 0.0765121 1.26973e-22)
(24.4276 0.098023 -3.04798e-23)
(24.3609 0.0927266 0)
(24.3172 0.0672422 1.41478e-24)
(0.587836 -1.09977 0)
(0.656245 -0.540369 0)
(0.838057 -0.415013 0)
(1.05149 -0.380935 0)
(1.27358 -0.380035 4.79e-21)
(1.47522 -0.370707 0)
(1.63173 -0.301181 0)
(1.69873 -0.0164315 3.97691e-24)
(1.55434 0.806595 0)
(1.22844 2.01834 1.09113e-23)
(1.23708 2.28416 -2.35023e-20)
(1.36075 1.23763 0)
(0.957158 0.0858019 0)
(1.04279 -0.768047 5.90199e-23)
(1.0553 1.1682 1.98467e-23)
(-0.141881 6.63167 -5.73884e-22)
(-3.31158 4.76621 -8.70802e-20)
(-7.82081 4.08168 0)
(-7.39149 0.552884 -1.3814e-19)
(-0.0161876 -2.77823 0)
(19.2451 -13.0841 1.15864e-22)
(18.2297 -13.0463 -3.88069e-23)
(17.6552 -10.8054 -3.80311e-22)
(18.6337 -7.97735 4.21865e-20)
(20.412 -5.64085 -7.11578e-20)
(22.129 -3.88752 0)
(23.3916 -2.57654 0)
(24.1862 -1.6293 -1.07044e-22)
(24.6402 -0.98025 7.38047e-23)
(24.8843 -0.559326 0)
(25.0109 -0.29764 1.01438e-20)
(25.0742 -0.138424 0)
(25.1038 -0.0432246 0)
(25.1153 0.0125409 0)
(25.1174 0.0453464 -2.42398e-21)
(25.1131 0.0660473 0)
(25.1041 0.0794421 0)
(25.0916 0.088768 -6.50341e-23)
(25.0756 0.0957207 2.26587e-23)
(25.0563 0.099791 1.93489e-23)
(25.0347 0.100073 7.32668e-23)
(25.0135 0.0978457 0)
(24.9926 0.0956297 6.17003e-23)
(24.9712 0.0925063 0)
(24.9504 0.087535 2.30221e-23)
(24.931 0.0819453 -1.91713e-23)
(24.9125 0.0766337 0)
(24.8945 0.0721091 -1.04932e-23)
(24.8759 0.069361 0)
(24.8551 0.0688325 2.29903e-23)
(24.8307 0.0720645 3.47465e-23)
(24.8001 0.0795519 -4.78519e-23)
(24.7618 0.088334 6.30645e-23)
(24.7158 0.0959424 7.50342e-23)
(24.6595 0.0988755 0)
(24.5973 0.0986333 -6.09036e-23)
(24.5315 0.116496 -6.17315e-23)
(24.4544 0.138858 2.60678e-23)
(24.3863 0.121387 0)
(24.3508 0.0838987 0)
(0.589777 -1.18233 6.57156e-23)
(0.59684 -0.683449 9.63608e-22)
(0.771848 -0.544917 0)
(0.979812 -0.500973 -3.5502e-21)
(1.18029 -0.488152 4.03754e-21)
(1.36034 -0.473158 0)
(1.50942 -0.404032 0)
(1.58936 -0.128683 7.46855e-24)
(1.53064 0.624857 -3.07607e-24)
(1.38286 1.93942 1.12414e-20)
(1.40537 2.19243 1.41826e-20)
(1.61597 1.5951 -7.4429e-23)
(1.23982 0.511652 -4.16258e-21)
(0.987731 -0.690938 0)
(0.806135 0.0440512 1.12946e-21)
(-2.45651 6.89094 1.80523e-19)
(-0.436592 6.01192 0)
(-2.31546 5.80502 -7.89825e-20)
(1.11139 -1.74777 1.04394e-19)
(14.5728 -9.85027 0)
(19.8368 -13.344 -2.09427e-20)
(19.4861 -12.863 -9.61184e-23)
(19.2678 -11.3029 0)
(19.9638 -9.06595 0)
(21.3014 -6.83733 6.10294e-20)
(22.6057 -4.85982 2.44692e-22)
(23.5014 -3.23068 0)
(24.0049 -2.02387 0)
(24.2723 -1.20503 9.90207e-23)
(24.4257 -0.686266 0)
(24.5299 -0.37167 -1.66999e-20)
(24.6101 -0.183416 -2.75036e-23)
(24.6753 -0.0717361 2.92173e-21)
(24.7292 -0.00635968 -3.3502e-21)
(24.7744 0.0322772 1.90538e-21)
(24.8104 0.0576599 1.01896e-21)
(24.8378 0.0745788 0)
(24.8583 0.0867259 -7.24979e-25)
(24.8723 0.0966406 0)
(24.8797 0.103528 -2.05276e-23)
(24.8818 0.105431 -3.88835e-23)
(24.882 0.103238 -4.24736e-23)
(24.881 0.101749 -2.41269e-23)
(24.8772 0.0994685 1.85489e-23)
(24.872 0.0943864 -1.92147e-23)
(24.8667 0.0885487 -1.37179e-23)
(24.8606 0.0833482 2.41649e-23)
(24.8533 0.0790594 -7.12732e-26)
(24.8438 0.0775705 -1.14531e-23)
(24.83 0.0788929 2.19697e-23)
(24.8114 0.0848399 -3.34833e-23)
(24.7856 0.096643 0)
(24.7504 0.110058 -6.39509e-23)
(24.7067 0.123104 7.65288e-23)
(24.6492 0.132661 0)
(24.5846 0.131721 -7.08086e-23)
(24.527 0.152402 -5.65065e-23)
(24.4558 0.180918 -5.07223e-26)
(24.3851 0.149216 0)
(24.3574 0.0950894 4.39263e-24)
(0.539489 -1.18093 -7.13543e-22)
(0.503773 -0.80188 0)
(0.670098 -0.673921 4.9249e-24)
(0.88336 -0.621611 0)
(1.07789 -0.593228 0)
(1.23803 -0.567664 -4.38221e-21)
(1.37068 -0.503724 0)
(1.45494 -0.252116 4.84227e-21)
(1.42862 0.418081 -3.12614e-21)
(1.41057 1.70559 1.22977e-20)
(1.5137 2.14514 -1.25905e-20)
(1.63812 1.72875 -1.32793e-20)
(1.42161 1.03268 3.93628e-20)
(1.14662 -0.423235 -1.83822e-20)
(-4.01231 2.90865 0)
(-3.97681 5.75806 -3.0333e-19)
(0.3663 4.2768 0)
(1.41041 6.66931 0)
(9.39193 -5.75566 -2.60981e-19)
(20.0399 -13.6291 0)
(20.0281 -13.3945 0)
(20.0494 -12.905 2.39474e-21)
(20.2048 -11.7685 -9.65993e-21)
(20.8819 -9.97518 0)
(21.9246 -7.85215 -5.61274e-20)
(22.7984 -5.65937 0)
(23.2629 -3.73481 4.73476e-20)
(23.4893 -2.34287 0)
(23.6641 -1.41895 3.54406e-20)
(23.8418 -0.840856 0)
(24.0207 -0.489259 -5.18293e-21)
(24.1835 -0.273773 2.85563e-21)
(24.3233 -0.141299 0)
(24.4395 -0.0600149 -9.96652e-22)
(24.5342 -0.00961217 6.53729e-22)
(24.6097 0.0250632 -4.25614e-22)
(24.6684 0.0499591 1.05396e-24)
(24.7144 0.0678842 1.34739e-22)
(24.7499 0.0829656 -1.31039e-22)
(24.776 0.0946855 -6.19455e-25)
(24.7938 0.10038 0)
(24.8068 0.0992929 -8.1798e-23)
(24.8177 0.0993841 -1.23147e-22)
(24.8245 0.0991337 0)
(24.8281 0.0949324 2.07173e-25)
(24.8306 0.0895539 -1.13779e-22)
(24.8308 0.0853939 1.13737e-22)
(24.8284 0.0820235 9.93978e-23)
(24.8228 0.0826073 -1.03702e-22)
(24.8112 0.0866259 -3.41569e-23)
(24.7938 0.0955777 2.14449e-23)
(24.7692 0.11203 1.38126e-23)
(24.7345 0.130841 2.14066e-23)
(24.6916 0.149479 0)
(24.6343 0.168492 -5.19666e-23)
(24.5642 0.165655 0)
(24.5131 0.183757 -3.12916e-23)
(24.453 0.222871 0)
(24.3824 0.177636 0)
(24.3623 0.102721 0)
(0.406816 -1.06845 -7.21508e-23)
(0.395866 -0.898059 0)
(0.568329 -0.813689 0)
(0.769328 -0.748866 4.00273e-21)
(0.955001 -0.698042 0)
(1.10843 -0.653224 0)
(1.22181 -0.591358 0)
(1.29256 -0.374676 0)
(1.29114 0.222702 0)
(1.28045 1.38934 0)
(1.37412 2.11406 0)
(1.3447 1.81565 -8.08584e-21)
(1.20156 1.42096 0)
(0.609358 0.76814 0)
(-5.16789 4.26602 -4.56201e-19)
(-1.38512 3.23062 0)
(-1.04131 3.35771 6.52911e-24)
(1.52269 5.12838 0)
(19.4253 -12.835 -2.78183e-21)
(19.7975 -13.7224 0)
(20.0415 -13.5211 0)
(20.3721 -13.1443 -9.7186e-21)
(20.8078 -12.2706 -1.64213e-20)
(21.4741 -10.7673 3.67399e-20)
(22.1839 -8.66888 -5.82878e-20)
(22.4918 -6.28882 0)
(22.5425 -4.23396 1.82584e-22)
(22.6738 -2.63431 1.27907e-22)
(23.0124 -1.59533 0)
(23.3845 -0.948677 2.90565e-20)
(23.6916 -0.566836 0)
(23.9422 -0.332169 3.09147e-20)
(24.1419 -0.186521 -1.12078e-22)
(24.299 -0.0956261 2.72845e-20)
(24.4207 -0.0389733 0)
(24.5139 -0.000563546 -2.37386e-20)
(24.5852 0.0320788 2.15828e-20)
(24.6409 0.054738 1.94361e-20)
(24.6837 0.0729091 8.77063e-21)
(24.7174 0.087397 7.88925e-21)
(24.7434 0.0957529 0)
(24.7621 0.0954762 -6.30734e-21)
(24.7765 0.0964429 -5.78575e-21)
(24.7881 0.0975065 3.29194e-25)
(24.7963 0.0941308 0)
(24.8014 0.0891166 -4.56217e-21)
(24.8039 0.0857415 4.24083e-21)
(24.8027 0.0829225 -3.92048e-21)
(24.7973 0.0845858 0)
(24.7856 0.0901539 -1.62132e-21)
(24.7666 0.100488 0)
(24.741 0.119097 0)
(24.7076 0.14119 0)
(24.6643 0.162164 0)
(24.6113 0.189026 0)
(24.5422 0.187656 0)
(24.4872 0.200167 0)
(24.4451 0.245765 4.48613e-23)
(24.3931 0.196194 1.95469e-22)
(24.3792 0.109308 -8.34624e-24)
(0.373452 -0.927727 0)
(0.375489 -0.977291 -1.41809e-23)
(0.461822 -0.919279 1.36552e-21)
(0.607464 -0.864057 2.01298e-21)
(0.784345 -0.812081 0)
(0.945769 -0.743109 0)
(1.05813 -0.668166 0)
(1.10478 -0.478021 4.68253e-21)
(1.09546 0.0381472 0)
(1.08054 1.08205 0)
(1.08983 2.06551 0)
(0.877993 1.97976 -2.52598e-21)
(0.629709 1.66972 0)
(-0.365626 2.81019 0)
(-1.79673 3.03341 4.66485e-21)
(-1.49686 3.2748 0)
(-0.988226 2.65206 0)
(1.61303 0.916844 0)
(19.2304 -13.8573 -4.71669e-20)
(19.5795 -13.874 -2.15632e-20)
(20.0482 -13.7922 0)
(20.6021 -13.5102 -1.88201e-20)
(21.1538 -12.7842 -2.52652e-20)
(21.6854 -11.4138 -4.42669e-20)
(21.8498 -9.31064 -5.9643e-20)
(21.5331 -6.73174 0)
(21.3709 -4.1411 0)
(21.72 -3.11311 0)
(21.9929 -2.09495 0)
(22.1379 -1.24678 0)
(22.2692 -0.806698 0)
(22.3548 -0.517745 1.61179e-20)
(22.4202 -0.3261 0)
(22.4676 -0.199632 0)
(22.5043 -0.116377 -6.48664e-21)
(22.5389 -0.0613183 -5.12314e-21)
(22.5855 -0.0391753 -1.76515e-24)
(22.6586 -0.0309275 0)
(22.7555 -0.0121521 0)
(22.8629 0.0118173 0)
(22.9691 0.0291963 0)
(23.0587 0.049004 0)
(23.1172 0.071961 0)
(23.1573 0.0802395 0)
(23.1865 0.0834424 0)
(23.2023 0.0872398 0)
(23.2062 0.0914229 0)
(23.2024 0.0950159 0)
(23.1956 0.0988475 0)
(23.2017 0.0988006 -2.00777e-23)
(23.2238 0.105716 0)
(23.2642 0.120432 0)
(23.3246 0.139061 0)
(23.3846 0.177755 0)
(23.4291 0.226709 -1.42508e-22)
(23.4592 0.244021 0)
(23.4553 0.258031 0)
(23.4956 0.285447 0)
(23.6802 0.203806 0)
(23.9787 0.109357 -5.77681e-23)
(0.433504 -0.856869 -1.27724e-21)
(0.37452 -0.984301 0)
(0.354858 -0.970638 2.42068e-21)
(0.443413 -0.960141 0)
(0.604748 -0.924151 0)
(0.748282 -0.844258 0)
(0.856678 -0.743419 -5.30671e-21)
(0.882557 -0.553368 0)
(0.839404 -0.116548 7.91661e-21)
(0.802798 0.794414 0)
(0.781959 1.9975 1.67905e-22)
(0.356792 2.27845 -5.01671e-21)
(-0.094594 1.97727 0)
(-2.05178 3.72534 0)
(-1.56331 3.10118 4.10999e-21)
(-1.22811 2.77921 -1.09618e-20)
(-0.958372 2.39828 3.28101e-20)
(16.7209 -12.2112 6.30382e-19)
(18.9126 -14.1481 -2.25154e-20)
(19.4323 -14.1567 0)
(20.0924 -14.1639 2.32986e-20)
(20.7328 -13.9254 -2.5066e-20)
(21.2319 -13.2392 0)
(21.4123 -11.9126 4.62441e-20)
(21.1216 -9.75511 0)
(20.8281 -6.56241 -2.59309e-20)
(20.4034 -4.69531 4.28116e-20)
(20.2831 -3.22589 0)
(20.2713 -2.1666 0)
(20.364 -1.37763 0)
(20.4577 -0.888566 1.80234e-20)
(20.5135 -0.570188 1.32276e-20)
(20.5484 -0.35945 -1.92663e-20)
(20.5688 -0.221759 0)
(20.5818 -0.133476 5.18623e-21)
(20.5948 -0.0790887 -7.93655e-21)
(20.6118 -0.0574555 -3.05742e-21)
(20.6305 -0.0551624 4.05357e-21)
(20.6584 -0.0470771 -1.09255e-21)
(20.7034 -0.0306311 -5.5479e-22)
(20.7586 -0.0119414 1.26181e-22)
(20.8129 0.0146612 -7.97933e-25)
(20.867 0.0432355 1.62007e-22)
(20.9178 0.0582599 1.24226e-22)
(20.9594 0.0672697 1.5894e-22)
(20.9934 0.0758831 -2.06004e-22)
(21.0226 0.0829429 0)
(21.0495 0.0874378 -2.13965e-22)
(21.0804 0.0867047 -1.84978e-24)
(21.1181 0.0795584 0)
(21.1661 0.0760411 0)
(21.2285 0.0786644 0)
(21.2998 0.0909444 0)
(21.3699 0.126344 3.91565e-22)
(21.4421 0.169235 0)
(21.5111 0.191852 0)
(21.5768 0.201336 1.38002e-22)
(21.69 0.177813 -4.27621e-23)
(21.8486 0.0460501 -1.38604e-22)
(21.9542 -0.0182331 5.93072e-23)
(0.449332 -0.847305 0)
(0.33387 -0.920563 0)
(0.238422 -0.95787 0)
(0.301269 -1.03503 0)
(0.420009 -1.01914 0)
(0.531593 -0.935847 0)
(0.601131 -0.811083 0)
(0.607846 -0.612681 0)
(0.533695 -0.21757 0)
(0.412778 0.541744 0)
(0.420904 1.80386 0)
(0.0181947 2.66085 0)
(-1.21101 2.32875 0)
(-1.69434 3.4387 0)
(-1.51728 3.22754 0)
(-1.10077 2.82859 0)
(-1.91151 3.01918 0)
(18.0925 -14.2641 0)
(18.7021 -14.3794 0)
(19.3825 -14.5352 0)
(20.1326 -14.5823 0)
(20.723 -14.3143 0)
(21.009 -13.6073 0)
(20.9603 -12.3494 0)
(20.0723 -9.3125 0)
(18.8379 -6.83901 0)
(18.4398 -4.80761 3.60688e-20)
(18.274 -3.36848 0)
(18.222 -2.32111 0)
(18.2703 -1.53182 0)
(18.3676 -0.996453 0)
(18.4517 -0.64221 0)
(18.517 -0.406519 0)
(18.5659 -0.252163 0)
(18.6034 -0.15402 0)
(18.635 -0.0951829 0)
(18.6637 -0.0689121 0)
(18.686 -0.0643964 0)
(18.7063 -0.0622363 0)
(18.7341 -0.053999 0)
(18.7705 -0.0394198 0)
(18.8129 -0.0160019 0)
(18.8643 0.0100136 0)
(18.9199 0.0279707 0)
(18.9728 0.0406817 0)
(19.0232 0.0515403 0)
(19.0734 0.0595337 0)
(19.1254 0.0630708 0)
(19.1824 0.0594465 1.39832e-22)
(19.2437 0.0491668 8.48425e-23)
(19.3105 0.0398808 0)
(19.3838 0.0371398 0)
(19.459 0.048632 0)
(19.5353 0.0820391 0)
(19.6202 0.122243 2.03157e-22)
(19.7129 0.145548 -8.75345e-23)
(19.8156 0.143544 6.26207e-23)
(19.9439 0.0967266 0)
(20.0591 -0.00797874 -5.34452e-23)
(20.1149 -0.0561088 0)
(0.369762 -0.806424 1.55019e-21)
(0.242375 -0.816683 0)
(0.118928 -0.916363 -1.09194e-21)
(0.166562 -1.06363 1.56207e-21)
(0.230906 -1.08904 0)
(0.304724 -1.00987 0)
(0.347029 -0.870362 0)
(0.324905 -0.65572 3.05564e-21)
(0.190534 -0.261141 2.81044e-21)
(-0.0648898 0.407539 0)
(-0.217742 1.42321 -9.54227e-22)
(-0.743519 3.40688 0)
(-2.22247 2.576 0)
(-2.24807 3.07107 -6.48423e-20)
(-1.40946 2.92629 8.5792e-21)
(-1.21849 2.8928 -2.5053e-21)
(14.0994 -10.2327 -2.50399e-20)
(17.8963 -14.5156 0)
(18.5803 -14.7289 -5.17065e-20)
(19.3886 -14.967 5.46007e-20)
(20.113 -14.9873 6.78641e-23)
(20.5379 -14.6337 -6.48644e-20)
(20.635 -13.9295 5.67995e-20)
(19.6422 -11.6191 3.55856e-20)
(17.9331 -9.06934 0)
(16.8756 -6.75493 1.69078e-22)
(16.3382 -4.89964 2.55408e-20)
(16.1088 -3.49811 0)
(16.0387 -2.45683 1.87039e-20)
(16.0728 -1.67791 1.50383e-20)
(16.1739 -1.12272 -1.20038e-20)
(16.291 -0.740674 9.30208e-21)
(16.4023 -0.480932 0)
(16.501 -0.307881 0)
(16.5863 -0.196404 0)
(16.6606 -0.128807 0)
(16.7257 -0.0946044 2.41872e-21)
(16.7796 -0.0833517 -1.79821e-21)
(16.8246 -0.0803318 7.81107e-25)
(16.8676 -0.0755398 -7.70546e-22)
(16.9131 -0.0649592 -4.15744e-22)
(16.9637 -0.0467994 0)
(17.0228 -0.0255987 -6.05584e-23)
(17.0879 -0.00821022 0)
(17.1542 0.00536451 0)
(17.2212 0.0162866 0)
(17.2904 0.0234571 0)
(17.3628 0.0251165 0)
(17.4391 0.019395 0)
(17.5175 0.00761613 -9.19844e-23)
(17.5969 -0.00391827 0)
(17.6764 -0.0081328 -3.50332e-23)
(17.7547 0.0028795 -6.42355e-23)
(17.8359 0.0320394 1.30329e-22)
(17.9285 0.0657199 1.79902e-22)
(18.0335 0.0839181 0)
(18.1488 0.0741442 6.415e-23)
(18.2685 0.0261981 1.39219e-23)
(18.3558 -0.0468658 0)
(18.3942 -0.077234 1.32764e-23)
(0.295688 -0.712714 -1.54278e-21)
(0.133643 -0.696414 0)
(0.0292715 -0.867169 0)
(0.0355275 -1.05046 -1.16427e-21)
(0.0534582 -1.12414 0)
(0.0915717 -1.06923 2.44686e-21)
(0.109942 -0.918532 2.72967e-21)
(0.0493294 -0.67569 0)
(-0.143153 -0.254156 1.78519e-21)
(-0.503132 0.424455 4.86577e-22)
(-0.942979 1.2969 -4.26302e-20)
(-3.47161 5.68622 0)
(-2.0542 2.74121 0)
(-2.11321 2.71248 0)
(-1.67239 2.76369 5.45769e-21)
(-1.70748 2.96491 -2.10848e-21)
(17.2436 -14.9433 0)
(17.7292 -14.8164 0)
(18.5548 -15.1536 5.3502e-20)
(19.3878 -15.4028 0)
(19.9863 -15.3295 -6.24582e-20)
(20.1932 -14.8944 0)
(20.285 -13.8651 1.406e-19)
(17.7708 -11.1552 1.03065e-20)
(16.0633 -8.69541 1.6626e-20)
(14.9953 -6.61949 1.80985e-20)
(14.3622 -4.9179 0)
(14.0406 -3.58858 0)
(13.9167 -2.57801 -1.43795e-20)
(13.9229 -1.81803 0)
(14.0154 -1.2616 9.45876e-21)
(14.1501 -0.865199 7.47019e-21)
(14.298 -0.587574 0)
(14.4437 -0.397202 4.47771e-21)
(14.5798 -0.270783 3.457e-21)
(14.7039 -0.191107 -7.73033e-24)
(14.8154 -0.14608 2.10773e-21)
(14.9128 -0.125137 1.61253e-21)
(14.9969 -0.116352 0)
(15.0722 -0.110051 7.85552e-22)
(15.1438 -0.10067 -4.63796e-22)
(15.2162 -0.0860969 1.75721e-22)
(15.2931 -0.0688145 2.13998e-23)
(15.3741 -0.0530458 -8.55942e-23)
(15.4571 -0.039997 1.26985e-22)
(15.5417 -0.0299264 1.54609e-22)
(15.6287 -0.0240595 0)
(15.7183 -0.023932 1.63282e-22)
(15.8098 -0.0305155 -1.35992e-22)
(15.9008 -0.042014 -9.67073e-23)
(15.9894 -0.0529294 0)
(16.0744 -0.0562921 0)
(16.1572 -0.0458669 0)
(16.244 -0.0217389 0)
(16.3418 0.00451781 0)
(16.4512 0.01702 8.26091e-23)
(16.5657 0.00532417 6.64248e-23)
(16.6712 -0.0325052 0)
(16.742 -0.0779029 1.40234e-25)
(16.774 -0.0919073 1.22148e-23)
(0.248561 -0.595677 0)
(0.0332148 -0.567405 0)
(-0.0284558 -0.783621 1.51113e-21)
(-0.080223 -0.994389 0)
(-0.119676 -1.11878 0)
(-0.130322 -1.10567 -9.94567e-22)
(-0.135685 -0.960912 3.18053e-21)
(-0.207852 -0.682652 0)
(-0.433679 -0.219878 0)
(-0.848737 0.50064 -4.141e-23)
(-1.48497 1.60332 0)
(-2.50687 4.32931 0)
(-1.63705 3.00632 -3.40437e-21)
(-2.01058 2.73302 1.46207e-20)
(-2.18835 2.68195 6.27278e-20)
(0.820378 0.594346 -1.60906e-18)
(16.9022 -14.9377 -3.29774e-20)
(17.6507 -15.2234 -3.29002e-23)
(18.5509 -15.6091 -5.47865e-20)
(19.3174 -15.7983 0)
(19.7043 -15.6059 0)
(19.8606 -15.085 -2.41256e-19)
(18.0906 -12.8972 -1.08014e-20)
(15.9425 -10.4493 2.39503e-20)
(14.3744 -8.27713 1.25684e-20)
(13.2672 -6.40927 0)
(12.5517 -4.85772 -1.34432e-20)
(12.1405 -3.62169 1.25426e-20)
(11.9476 -2.66614 -1.08329e-20)
(11.9093 -1.94059 0)
(11.978 -1.39992 7.3281e-21)
(12.112 -1.00431 -5.85337e-21)
(12.2792 -0.718864 0)
(12.4583 -0.516545 3.67413e-21)
(12.6361 -0.376973 -2.88306e-21)
(12.8055 -0.284517 -2.26747e-21)
(12.9623 -0.227197 3.61069e-21)
(13.1042 -0.194768 0)
(13.2306 -0.177063 1.06216e-21)
(13.3442 -0.165346 0)
(13.4491 -0.153785 -4.75021e-22)
(13.55 -0.139763 -1.78894e-24)
(13.6506 -0.124126 -6.10102e-24)
(13.7521 -0.109303 -6.45021e-23)
(13.8541 -0.0967284 0)
(13.9569 -0.0873007 -1.37214e-22)
(14.0608 -0.0822143 -1.51486e-22)
(14.1655 -0.0825813 -1.55966e-24)
(14.2698 -0.0886313 1.27736e-22)
(14.3712 -0.0983172 0)
(14.4679 -0.106864 0)