/*--------------------------------*- C++ -*----------------------------------*\
| =========                 |                                                 |
| \\      /  F ield         | OpenFOAM: The Open Source CFD Toolbox           |
|  \\    /   O peration     | Version:  v1912                                 |
|   \\  /    A nd           | Website:  www.openfoam.com                      |
|    \\/     M anipulation  |                                                 |
\*---------------------------------------------------------------------------*/
FoamFile
{
    version     2.0;
    format      ascii;
    class       surfaceScalarField;
    location    "54";
    object      alphaPhi0.water;
}
// * * * * * * * * * * * * * * * * * * * * * * * * * * * * * * * * * * * * * //

dimensions      [0 3 -1 0 0 0 0];
oriented        oriented;


internalField   nonuniform List<scalar> 
40282
(
0.00277684
0.00265692
1.92267
-1.92929
1.92374
0.00555443
-1.91473
1.90253
0.0122042
-1.88729
1.86911
0.0181825
-1.84804
1.82412
0.0239186
-1.7974
1.76796
0.0294429
-1.73587
1.7012
0.0346627
-1.66398
1.62425
0.0397351
-1.58205
1.53752
0.0445351
-1.49072
1.44177
0.048945
-1.39066
1.33746
0.0531954
-1.28216
1.22495
0.0572112
-1.16582
1.10498
0.0608395
-1.04232
0.978181
0.0641418
-0.912384
0.84532
0.0670644
-0.776605
0.70681
0.0697954
-0.635233
0.562616
0.0726175
-0.487469
0.411333
0.0761359
-0.331132
0.250468
0.0806642
-0.161398
0.0793224
0.0820751
-0.00423011
0.0056179
1.85764
-1.85322
1.84631
-0.0141499
0.0210656
-1.83663
1.82415
-0.0256568
0.0381344
-1.80888
1.79085
-0.0369671
0.0549955
-1.7701
1.74667
-0.0480556
0.0714907
-1.72058
1.6919
-0.0588763
0.0875649
-1.66064
1.62685
-0.0693575
0.103145
-1.59058
1.55187
-0.0794239
0.118137
-1.51078
1.46738
-0.0890767
0.132474
-1.42173
1.37388
-0.0982587
0.146115
-1.32387
1.27176
-0.106896
0.159007
-1.21761
1.16146
-0.114964
0.171115
-1.10337
1.04342
-0.122422
0.182381
-0.981664
0.918162
-0.129229
0.192731
-0.853005
0.786251
-0.135315
0.202069
-0.718038
0.648427
-0.1407
0.210311
-0.577607
0.505673
-0.145545
0.217479
-0.432944
0.359564
-0.15054
0.22392
-0.286015
0.212446
-0.156966
0.230535
-0.139896
0.0724736
-0.168917
0.236339
-0.00702296
0.00837587
1.79107
-1.78689
1.78006
-0.0282226
0.0350566
-1.77057
1.75845
-0.0507735
0.0628951
-1.7437
1.72634
-0.0730721
0.0904327
-1.70637
1.68382
-0.0949388
0.117496
-1.6587
1.63104
-0.116261
0.143915
-1.60089
1.56828
-0.13693
0.169538
-1.53327
1.49589
-0.156843
0.194219
-1.4562
1.41425
-0.175879
0.217831
-1.3701
1.32381
-0.193954
0.240236
-1.27548
1.22518
-0.211047
0.261351
-1.17298
1.11895
-0.22713
0.281158
-1.06316
1.00566
-0.242149
0.299649
-0.946503
0.885747
-0.256034
0.316791
-0.823437
0.759623
-0.268639
0.332453
-0.694364
0.627717
-0.279703
0.346349
-0.559761
0.490588
-0.288898
0.358072
-0.420342
0.349216
-0.296156
0.367281
-0.277515
0.205677
-0.302236
0.374074
-0.134322
0.0651019
-0.308816
0.378036
-0.0096589
0.0109383
1.72694
-1.72308
1.71664
-0.0417622
0.0481976
-1.70764
1.6961
-0.0749534
0.0864977
-1.68202
1.66542
-0.107762
0.124366
-1.64631
1.62471
-0.140011
0.161607
-1.60065
1.57415
-0.171521
0.198021
-1.54524
1.51395
-0.20211
0.2334
-1.48031
1.44437
-0.2316
0.267544
-1.40616
1.36574
-0.259817
0.300236
-1.32316
1.27848
-0.286592
0.331274
-1.23176
1.18307
-0.311787
0.360473
-1.1325
1.08014
-0.335337
0.387702
-1.02607
0.9704
-0.357229
0.412901
-0.913214
0.854602
-0.377476
0.436089
-0.794637
0.733381
-0.396016
0.457272
-0.670885
0.60719
-0.412585
0.476279
-0.542336
0.476357
-0.426581
0.49256
-0.409297
0.341224
-0.437163
0.505237
-0.272274
0.202728
-0.444028
0.513574
-0.132966
0.0643861
-0.448
0.51658
-0.0121597
0.0133665
1.6651
-1.66144
1.65535
-0.0545764
0.0606668
-1.64683
1.63589
-0.0979544
0.108898
-1.62253
1.60677
-0.140856
0.156617
-1.58862
1.56809
-0.183067
0.203593
-1.54521
1.51998
-0.22437
0.249594
-1.49244
1.46261
-0.264537
0.294369
-1.43052
1.39619
-0.30334
0.337669
-1.35966
1.32098
-0.340532
0.379216
-1.28018
1.23731
-0.375869
0.418734
-1.19244
1.14561
-0.40913
0.455961
-1.09689
1.04636
-0.440119
0.490648
-0.994104
0.940215
-0.468708
0.522597
-0.884794
0.827948
-0.494874
0.55172
-0.769783
0.710397
-0.518658
0.578044
-0.649874
0.588283
-0.539984
0.601575
-0.525668
0.462061
-0.558359
0.621967
-0.397479
0.331935
-0.572684
0.638228
-0.26546
0.198151
-0.581658
0.648967
-0.130088
0.0628528
-0.58492
0.652155
-0.0145132
0.0156399
1.60558
-1.60198
1.59626
-0.0666847
0.072402
-1.58826
1.57798
-0.119716
0.129999
-1.56542
1.55058
-0.172207
0.187038
-1.53349
1.51414
-0.223914
0.243265
-1.49254
1.46871
-0.27459
0.298423
-1.44265
1.41439
-0.323966
0.352225
-1.38395
1.35134
-0.371769
0.404376
-1.3166
1.27975
-0.417694
0.454546
-1.24082
1.19986
-0.461429
0.502387
-1.15692
1.11203
-0.502673
0.547562
-1.06525
1.01665
-0.541131
0.589731
-0.966299
0.914269
-0.576538
0.628568
-0.860653
0.805553
-0.608725
0.663825
-0.749079
0.691344
-0.63767
0.695404
-0.63246
0.572527
-0.663415
0.723348
-0.511625
0.44981
-0.685715
0.74753
-0.387112
0.323538
-0.703543
0.767117
-0.25907
0.193688
-0.715038
0.780419
-0.127225
0.0617398
-0.718876
0.784362
-0.0167035
0.0177403
1.54788
-1.54485
1.53955
-0.0780197
0.0833218
-1.53212
1.52257
-0.140109
0.149659
-1.5109
1.4971
-0.201633
0.215436
-1.48117
1.46311
-0.262333
0.28039
-1.44292
1.42061
-0.321941
0.344252
-1.39618
1.36963
-0.380156
0.406706
-1.34097
1.31021
-0.436664
0.467421
-1.27737
1.24247
-0.491106
0.526013
-1.20552
1.16655
-0.543101
0.582067
-1.1256
1.0827
-0.592275
0.635172
-1.0379
0.991251
-0.638241
0.684894
-0.942803
0.892624
-0.680616
0.730794
-0.840793
0.787398
-0.71907
0.772465
-0.73254
0.676333
-0.753418
0.809625
-0.618898
0.560356
-0.783661
0.842204
-0.500816
0.440369
-0.80973
0.870177
-0.379074
0.316958
-0.830811
0.892927
-0.253994
0.190095
-0.844827
0.908726
-0.124797
0.0612903
-0.849934
0.913441
-0.0187105
0.0196465
1.4926
-1.48985
1.48501
-0.0884912
0.0933287
-1.47823
1.4695
-0.158979
0.167711
-1.45881
1.44615
-0.228923
0.241579
-1.43152
1.4149
-0.298066
0.314686
-1.39628
1.37566
-0.366135
0.386762
-1.35301
1.32834
-0.432808
0.45748
-1.30163
1.27289
-0.497738
0.526481
-1.24211
1.2093
-0.560514
0.593329
-1.17446
1.1376
-0.620689
0.657545
-1.09875
1.05792
-0.677812
0.718638
-1.01515
0.970475
-0.7314
0.776077
-0.923935
0.875588
-0.780955
0.829303
-0.825495
0.773734
-0.825996
0.877757
-0.720395
0.665584
-0.866137
0.920948
-0.609423
0.552044
-0.901221
0.9586
-0.49358
0.434154
-0.931213
0.990638
-0.37387
0.312795
-0.955509
1.01658
-0.250936
0.188203
-0.972013
1.03475
-0.123728
0.0624989
-0.978898
1.04013
-0.0205116
0.0213345
1.43919
-1.43656
1.43225
-0.0979972
0.102313
-1.42619
1.41838
-0.176148
0.183961
-1.40879
1.39742
-0.253832
0.265203
-1.38424
1.36923
-0.330814
0.345824
-1.35237
1.33362
-0.406836
0.425582
-1.31297
1.29039
-0.48157
0.504152
-1.26585
1.23934
-0.554646
0.581159
-1.21083
1.18031
-0.625607
0.656127
-1.14777
1.1132
-0.69394
0.728511
-1.0766
1.03797
-0.759114
0.797738
-0.997336
0.95471
-0.820544
0.863171
-0.910122
0.863611
-0.877607
0.924117
-0.815228
0.765035
-0.929664
0.979856
-0.713111
0.659554
-0.976119
1.02968
-0.604481
0.54803
-1.01658
1.07303
-0.490357
0.431622
-1.05093
1.10967
-0.371983
0.311584
-1.07872
1.13912
-0.250517
0.188784
-1.09799
1.15972
-0.124987
0.0660239
-1.10671
1.16567
-0.0220823
0.0227794
1.38784
-1.38556
1.38182
-0.106421
0.110156
-1.37657
1.36978
-0.191411
0.198201
-1.36143
1.35149
-0.276074
0.286012
-1.33993
1.32672
-0.360222
0.373437
-1.31181
1.29516
-0.443635
0.460282
-1.27673
1.25648
-0.525998
0.54625
-1.23436
1.21032
-0.606934
0.630967
-1.18434
1.15636
-0.685952
0.71393
-1.12635
1.09429
-0.762475
0.794537
-1.06015
1.02391
-0.83589
0.87213
-0.985562
0.945103
-0.9055
0.945959
-0.902543
0.857902
-0.970543
1.01518
-0.811211
0.762518
-1.03021
1.0789
-0.711887
0.659401
-1.08366
1.13615
-0.60517
0.549332
-1.13022
1.18606
-0.492049
0.433504
-1.16953
1.22808
-0.37389
0.313402
-1.20114
1.26163
-0.252192
0.190353
-1.22324
1.28508
-0.125694
0.068081
-1.23393
1.29154
-0.0233973
0.023956
1.33818
-1.33627
1.33318
-0.11364
0.116733
-1.32882
1.32316
-0.204554
0.210211
-1.31618
1.30783
-0.295345
0.303692
-1.29807
1.28686
-0.385903
0.397118
-1.27413
1.25983
-0.476075
0.490375
-1.24389
1.22626
-0.565582
0.583218
-1.20685
1.18562
-0.654065
0.675304
-1.16247
1.13736
-0.741012
0.766123
-1.11022
1.08098
-0.825797
0.855031
-1.04961
1.01603
-0.907725
0.941297
-0.98023
0.942161
-0.985985
1.02405
-0.901809
0.859166
-1.05966
1.1023
-0.814238
0.76705
-1.12773
1.17492
-0.717645
0.666089
-1.18912
1.24068
-0.612482
0.556956
-1.24279
1.29832
-0.499685
0.440881
-1.28803
1.34683
-0.380789
0.31968
-1.32424
1.38535
-0.257807
0.195414
-1.3497
1.41209
-0.129186
0.0732097
-1.36277
1.41874
-0.0244326
0.0248422
1.29038
-1.2887
1.28631
-0.119534
0.121928
-1.28292
1.2785
-0.215355
0.219776
-1.27301
1.26641
-0.311326
0.317929
-1.25863
1.24962
-0.407442
0.416449
-1.23931
1.22762
-0.503645
0.515337
-1.21447
1.19976
-0.59973
0.614435
-1.18341
1.16533
-0.695379
0.713462
-1.14541
1.12357
-0.790093
0.811938
-1.0997
1.07371
-0.883216
0.909207
-1.0455
1.015
-0.973987
1.00449
-0.982126
0.9468
-1.06149
1.09681
-0.908966
0.868577
-1.14463
1.18502
-0.825603
0.780031
-1.22218
1.26776
-0.731872
0.681162
-1.29276
1.34347
-0.627978
0.572439
-1.35491
1.41045
-0.514722
0.455062
-1.40741
1.46707
-0.393759
0.33118
-1.44936
1.51194
-0.26772
0.203849
-1.47898
1.54286
-0.134817
0.080369
-1.4951
1.54955
-0.0251682
0.025421
1.24445
-1.24322
1.24157
-0.123993
0.125643
-1.23921
1.23611
-0.223615
0.226713
-1.23223
1.2275
-0.323715
0.328441
-1.22187
1.21526
-0.424426
0.431037
-1.20758
1.19875
-0.52582
0.53465
-1.18867
1.17722
-0.627797
0.639246
-1.16429
1.14976
-0.730125
0.744654
-1.13351
1.11539
-0.832354
0.850468
-1.09529
1.07306
-0.933841
0.956073
-1.04856
1.02168
-1.0338
1.06068
-0.992264
0.960203
-1.13121
1.16328
-0.925378
0.887686
-1.22486
1.26255
-0.84704
0.80337
-1.31326
1.35693
-0.756633
0.706817
-1.3947
1.44451
-0.653954
0.598131
-1.4672
1.52302
-0.53951
0.478344
-1.52889
1.59006
-0.414989
0.349937
-1.57829
1.64334
-0.283791
0.217372
-1.61342
1.67984
-0.144273
0.0912591
-1.6336
1.68661
-0.0255906
0.0256829
1.19983
-1.19924
1.19836
-0.126932
0.127808
-1.19709
1.19537
-0.229169
0.230884
-1.19317
1.19042
-0.332257
0.335003
-1.18706
1.18301
-0.436488
0.440544
-1.17816
1.17243
-0.542095
0.547831
-1.16569
1.15781
-0.649126
0.656999
-1.14867
1.13812
-0.757482
0.768032
-1.12601
1.11216
-0.866818
0.880667
-1.09641
1.07858
-0.976565
0.994395
-1.05848
1.03594
-1.08596
1.10851
-1.01075
0.982727
-1.19399
1.22202
-0.95168
0.917428
-1.29931
1.33356
-0.8798
0.838642
-1.40024
1.4414
-0.793823
0.745242
-1.4947
1.54328
-0.692851
0.636663
-1.58014
1.63632
-0.576793
0.51348
-1.65378
1.71709
-0.447129
0.378382
-1.7132
1.78195
-0.308133
0.237738
-1.75593
1.82633
-0.159018
0.107013
-1.78164
1.83365
-0.0256948
0.0256279
1.15706
-1.15694
1.15684
-0.128302
0.128397
-1.15666
1.15635
-0.231915
0.232225
-1.15587
1.15516
-0.336769
0.337483
-1.15414
1.15274
-0.443331
0.444732
-1.15086
1.14839
-0.552027
0.554496
-1.14521
1.14119
-0.663087
0.667108
-1.13617
1.13001
-0.776596
0.782765
-1.1225
1.11348
-0.892386
0.901411
-1.10273
1.09003
-1.01004
1.02274
-1.07515
1.05784
-1.12893
1.14623
-1.03785
1.01491
-1.24813
1.27107
-0.98874
0.959051
-1.3663
1.39599
-0.925561
0.887989
-1.48167
1.51924
-0.846067
0.799551
-1.59187
1.63838
-0.748239
0.692003
-1.69371
1.74994
-0.630828
0.564874
-1.7833
1.84925
-0.494549
0.420665
-1.85677
1.93065
-0.34451
0.268428
-1.91065
1.98673
-0.181827
0.132142
-1.94473
1.99442
-0.0254863
0.025267
1.11577
-1.11592
1.11659
-0.128101
0.127433
-1.11748
1.11856
-0.231829
0.230755
-1.11977
1.12108
-0.337177
0.335871
-1.12241
1.12368
-0.444792
0.443516
-1.12482
1.1257
-0.555308
0.554423
-1.12622
1.12624
-0.669164
0.669146
-1.12561
1.12415
-0.786682
0.788135
-1.12169
1.11802
-0.907941
0.911615
-1.1129
1.1061
-1.03277
1.03957
-1.09734
1.08632
-1.1608
1.17182
-1.07272
1.0562
-1.29135
1.30788
-1.03637
1.01285
-1.42333
1.44685
-0.985192
0.952961
-1.55507
1.5873
-0.915688
0.872905
-1.68415
1.72693
-0.824158
0.769043
-1.80692
1.86204
-0.707266
0.638735
-1.91825
1.98678
-0.5637
0.48304
-2.01212
2.09278
-0.398479
0.313881
-2.08318
2.16777
-0.214322
0.171019
-2.13271
2.17602
-0.0249812
0.0246218
1.07596
-1.07673
1.07812
-0.126378
0.124991
-1.08002
1.08241
-0.228981
0.226595
-1.08524
1.08849
-0.33354
0.330296
-1.09208
1.09597
-0.440873
0.436989
-1.10006
1.10427
-0.551816
0.547605
-1.1085
1.11261
-0.667038
0.662921
-1.11648
1.11995
-0.787126
0.783661
-1.12283
1.12491
-0.912465
0.910378
-1.12598
1.12577
-1.04323
1.04344
-1.124
1.12033
-1.17943
1.18309
-1.11442
1.10585
-1.32086
1.32944
-1.09416
1.07885
-1.46692
1.48223
-1.05935
1.03502
-1.61649
1.64082
-1.00517
0.96902
-1.76761
1.80376
-0.925746
0.874488
-1.91674
1.968
-0.81442
0.744868
-2.05783
2.12738
-0.665517
0.576898
-2.18222
2.27084
-0.480903
0.382692
-2.28065
2.37886
-0.263433
0.222854
-2.35615
2.39673
-0.0242061
0.0237233
1.03743
-1.0386
1.04063
-0.123237
0.121199
-1.04345
1.04703
-0.223538
0.219956
-1.05135
1.05638
-0.326061
0.321034
-1.06208
1.0684
-0.431766
0.425448
-1.07528
1.08266
-0.541675
0.534299
-1.09045
1.09855
-0.656671
0.648562
-1.10687
1.11525
-0.777612
0.769225
-1.12356
1.13161
-0.905225
0.897179
-1.13919
1.14607
-1.04008
1.0332
-1.15198
1.15661
-1.1827
1.17808
-1.15959
1.16051
-1.33352
1.3326
-1.15888
1.15413
-1.49275
1.49749
-1.14562
1.13257
-1.66033
1.67338
-1.11407
1.08904
-1.83559
1.86061
-1.05625
1.01423
-2.01641
2.05843
-0.961344
0.895865
-2.19741
2.26289
-0.816199
0.721552
-2.3682
2.46285
-0.612799
0.495615
-2.51345
2.63063
-0.35276
0.306405
-2.63349
2.67984
-0.0231958
0.0226095
1.00036
-1.00206
1.00466
-0.118826
0.116227
-1.00828
1.0129
-0.215757
0.211134
-1.01852
1.02512
-0.315084
0.308487
-1.03267
1.04116
-0.417869
0.409379
-1.05055
1.0608
-0.525278
0.515028
-1.07186
1.08368
-0.638371
0.62656
-1.09616
1.10924
-0.758252
0.745177
-1.12279
1.13669
-0.885969
0.872068
-1.15079
1.1649
-1.0225
1.00839
-1.17882
1.19228
-1.1689
1.15544
-1.20499
1.21659
-1.32634
1.31474
-1.22666
1.23467
-1.49607
1.48806
-1.24
1.2419
-1.67952
1.67763
-1.2394
1.23132
-1.87827
1.88635
-1.21615
1.19198
-2.09345
2.11763
-1.15637
1.10632
-2.32385
2.3739
-1.03819
0.948135
-2.56228
2.65234
-0.832991
0.694386
-2.79058
2.92918
-0.521829
0.450379
-3.00561
3.07706
-0.0219908
0.0213224
0.964766
-0.966561
0.96962
-0.113333
0.110273
-0.973891
0.979373
-0.205966
0.200484
-0.986066
0.99397
-0.301068
0.293164
-1.00308
1.01341
-0.399754
0.389432
-1.02493
1.03764
-0.503278
0.490564
-1.05153
1.06658
-0.612816
0.597767
-1.08276
1.10004
-0.729648
0.712374
-1.11835
1.13765
-0.855084
0.835787
-1.15785
1.17885
-0.990436
0.969435
-1.20053
1.22275
-1.13722
1.115
-1.24533
1.26803
-1.29726
1.27455
-1.2906
1.3127
-1.47281
1.45072
-1.33389
1.35366
-1.66687
1.6471
-1.37132
1.38595
-1.88365
1.86902
-1.39633
1.40078
-2.12904
2.1246
-1.39692
1.38143
-2.41015
2.42564
-1.34961
1.29496
-2.73324
2.78789
-1.20908
1.0798
-3.1
3.22928
-0.90499
0.824817
-3.52954
3.60971
0.0947776
-0.237692
0.148325
-0.215014
0.316162
-0.101148
-0.386792
0.440558
-0.055869
-0.480373
0.524026
-0.034881
-0.563501
0.592968
-0.0294799
-0.627723
0.664586
-0.0368749
-0.678803
0.664418
0.00580208
-0.671232
0.704677
-0.0346411
-0.607625
0.682841
-0.0754213
-0.816199
0.994112
-0.17812
-1.36245
1.62243
-0.190209
-1.79569
1.9391
-0.143404
-2.07419
2.19063
-0.116596
-2.2938
2.39106
-0.0975843
-2.03503
2.19313
-0.122852
-2.2972
2.50706
-0.167792
-2.67285
2.93086
-0.195584
-3.10124
3.76134
-0.216393
-4.05116
4.25239
-0.201224
-4.44099
4.60092
-0.159926
-4.72876
4.83458
-0.105813
-4.92921
5.00681
-0.0775951
-5.06014
5.09293
-0.0327856
-5.11113
5.12469
-0.0135621
-5.14704
5.18189
-0.0353838
-5.21971
5.24837
-0.0286979
-5.26671
5.27644
-0.00960987
-5.28277
5.29541
-0.0126419
-5.32267
5.3594
-0.0367311
-5.39088
5.40786
-0.0169825
-5.41473
5.42454
-0.00981783
-5.46702
5.56152
-0.0944992
-1.1431
-3.28353e-06
0.00194315
-1.24263e-19
-1.79924e-19
0
-1.97618e-19
1.29072e-19
0
-9.25549e-20
2.78908e-20
0
-3.00843e-21
-6.02807e-22
0
4.29332e-21
-6.52432e-21
-1.70178e-22
8.9366e-22
0.0396451
-0.00333741
-0.119509
0.131202
-0.0193797
-0.12434
0.129689
0.0014463
-4.99461
6.43522
-0.0082761
-6.61601
1.84274
-0.0182804
-0.333378
0.3538
-0.00442089
-0.352704
0.367308
0.00122114
-0.339986
0.363522
0.00517723
-0.33009
0.354398
0.00886102
-0.320438
0.354298
-0.00059169
-0.320954
0.351823
0.0037008
-4.02753
6.72309
-0.0490006
-6.81548
6.89086
-0.0753801
-7.04548
7.26407
-0.218594
-7.46591
7.64895
-0.183049
-7.75892
7.76343
-0.0510432
-7.43677
7.25825
0.153037
-7.13625
1.58701
-0.0881724
-1.04624e-07
-4.17505e-09
1.93361e-09
-9.63162e-08
3.03957e-08
-7.06676e-10
-4.56015e-09
1.05177e-08
1.92775e-09
-3.4753
4.52357
-2.44338e-06
0.390969
-0.546742
0.139762
-0.246376
0.313546
0.177002
-0.241559
-0.368061
0.413574
0.107416
-0.154348
-0.455191
0.491686
0.0743625
-0.110857
-0.523694
0.545173
0.0562252
-0.0817225
-0.567286
0.581878
0.0623052
-0.0769092
-0.505589
0.498656
0.00679414
-0.0378144
-0.591004
0.704129
0.0786795
-0.123142
-0.773891
0.866118
0.208337
-0.300565
-0.99261
1.15802
0.355527
-0.520936
-1.35078
1.55171
0.381639
-0.582562
-1.75031
1.92739
0.308578
-0.484769
-2.07695
2.23064
0.251158
-0.401436
-2.413
2.56361
0.234525
-0.385135
-2.71911
2.90837
0.309809
-0.499068
-3.10319
3.24309
0.369704
-0.539481
-3.04825
2.62458
0.42859
-0.175361
-2.20943
1.89457
0.436124
-0.174501
-1.91958
2.07693
0.376268
-0.200133
-2.2917
2.50045
0.296546
-0.177913
-2.78423
3.35659
0.212601
-0.0771303
-4.38827
5.0977
0.140395
-0.182074
-5.23033
5.38677
0.0676869
-0.083309
-5.46332
5.46888
0.0283047
-0.0249488
-5.42134
5.44828
0.0655754
-0.0582483
-5.53262
5.62294
0.0516161
-0.0687646
-5.6821
5.71413
0.0167052
-0.0176077
-5.72988
5.74748
0.0216299
-0.0260309
-5.78243
5.80322
0.0612386
-0.0771251
-5.79138
5.7916
0.035778
-0.0258221
-5.84039
5.26437
0.0500262
-0.0113571
-1.24661
0.264752
0.0301885
0.0058653
-0.664809
2.22246
0.0407085
-0.288211
-5.88787
6.46328
0.290036
-0.435148
-6.53766
6.55267
0.240854
-0.359122
-6.48287
6.46282
0.12682
-0.217781
-6.45798
6.44988
0.0163515
-0.0605966
-6.48866
6.60662
-0.0116335
0.0302314
-6.83001
6.86964
0.01047
-0.0193118
-6.87311
6.87852
0.0212971
-0.0267073
-6.89026
6.90825
-0.026407
0.00841103
-6.91712
6.91721
0.014731
-0.0148255
-6.91674
6.92092
0.0163294
-0.0205111
-6.9218
6.9227
0.0192537
-0.02015
-6.9187
6.917
-0.00430188
0.00600531
-6.90923
6.89954
-0.0262255
0.0359111
-6.88834
6.87491
-0.0482613
0.0616979
-6.85857
6.83743
-0.0301757
0.0513086
-6.82643
6.82898
-0.0289508
0.026396
-6.83807
6.86325
0.107725
-0.132906
-6.90767
6.99827
0.182124
-0.272716
-7.10776
7.21172
0.298708
-0.402659
-7.33396
7.44188
0.273471
-0.405194
-7.27288
5.28667
0.386888
-0.127555
-0.651467
0.00638001
-0.0106481
0
4.96337e-06
0.000266517
1.03465e-05
-6.15354e-06
-0.000317796
0.000156894
-2.78459e-06
5.95007e-06
-0.000156844
0.00324178
-1.39865e-08
0.000104142
-0.00696695
0.00687324
-0.0135468
-0.000616334
-0.00213653
0.00213653
-1.0172e-21
-1.28675e-23
0.668258
-0.769749
0.101491
-0.205878
0.266449
0.296527
-0.361079
-0.315234
0.36254
0.191414
-0.218029
-0.417015
0.450647
0.143619
-0.176982
-0.477359
0.509922
0.105456
-0.142207
-0.536071
0.556648
0.0971156
-0.117693
-0.578718
0.604942
0.0668262
-0.0930511
-0.630859
0.65662
0.154355
-0.180116
-0.695081
0.761813
0.378481
-0.445213
-0.86958
1.00122
0.686407
-0.813784
-1.20647
1.43236
0.761258
-0.983108
-1.68944
1.93768
0.666446
-0.920214
-2.16057
2.34917
0.583283
-0.768126
-2.44213
1.95901
0.551851
-0.255884
-0.971961
0.15648
0.363219
-0.0580303
-0.0412761
0.0935562
0.0847451
-0.135525
-0.163713
0.980102
0.0572791
-0.761435
-2.174
3.44507
0.121273
-1.15721
-4.63826
5.64252
0.368155
-0.871345
-5.7971
5.82585
0.371594
-0.604174
-5.7415
5.75623
0.251694
-0.360979
-5.70872
3.88
0.171626
-0.243229
-2.04073
2.12621
0.0472505
-0.120737
-2.17139
2.21899
0.0217867
-0.0573933
-4.09775
5.59415
0.0743358
-0.0791755
-5.6652
0.664671
0.041603
-0.0683736
-0.685999
0.782601
0.00499267
-0.0476744
-0.7656
0.87743
0.0128858
-0.0317183
-0.810716
1.12453
0.0300167
-0.0624193
-1.58127
1.58371
0.0181972
-0.107993
-1.56985
2.65001
0.0300719
-0.177123
-5.93524
6.5206
0.252386
-0.354127
-6.56381
6.5904
0.427594
-0.454177
-6.61268
6.63314
0.46478
-0.485231
-6.65518
6.68019
0.392008
-0.417013
-6.70794
6.73798
0.251558
-0.281602
-6.77073
6.80671
0.0997987
-0.13578
-6.84442
6.8795
0.0113284
-0.0464002
-6.90344
6.91689
0.0306075
-0.0440517
-6.92609
6.9351
0.0335704
-0.0425823
-6.94623
6.95811
0.0067684
-0.0186515
-6.96591
6.96691
0.0160124
-0.0170102
-6.96593
6.9663
0.0215086
-0.0218755
-6.96632
6.96544
0.0193181
-0.018431
-6.96177
6.95829
-0.00904947
0.0125279
-6.95204
6.94366
-0.0448483
0.0532229
-6.93419
6.92212
-0.0746316
0.0867004
-6.90696
6.88566
-0.0729511
0.0942529
-6.86414
6.85045
-0.0285894
0.0422719
-6.83756
6.83283
0.139763
-0.135032
-6.84129
6.86156
0.319456
-0.339723
-6.88613
6.90788
0.465435
-0.487185
-6.90644
0.805358
0.306607
-0.350257
2.2516e-05
-4.03422e-09
-2.63117e-18
-2.2512e-05
-6.6519e-08
6.65189e-08
-2.46936e-23
9.67747e-14
-4.4758e-07
3.68406e-06
5.17219e-07
-1.08764e-09
-6.86017e-06
1.60808e-06
-9.77349e-07
1.42095e-07
-2.95527e-09
9.06802e-06
-0.000164033
0.000257463
-1.63632e-05
2.42926e-05
0.00010585
-1.5764e-05
-3.86074e-05
3.86074e-05
-6.30873e-25
-1.1112e-47
0.854597
-0.925667
0.0710695
-0.166582
0.238248
0.449697
-0.521363
-0.296984
0.343566
0.281846
-0.328428
-0.378777
0.409251
0.209901
-0.240375
-0.439217
0.46928
0.171689
-0.201753
-0.496433
0.518883
0.138595
-0.161044
-0.539173
0.559137
0.115383
-0.135347
-0.577667
0.594639
0.200245
-0.217217
-0.601139
0.610333
0.488169
-0.504553
-0.719304
0.943423
0.997427
-1.2348
-1.2373
1.52292
1.29619
-1.5926
-1.66013
1.23558
1.1533
-0.353079
-0.507555
0.100868
0.335167
-0.230527
-0.0984829
0.260628
0.062594
-0.258226
-1.57862
3.53664
0.130862
-1.94067
-5.23403
5.66602
1.40231
-1.83429
-5.73567
5.81475
1.52308
-1.60216
-5.89206
5.96134
1.2156
-1.28488
-6.02439
6.08209
0.918344
-0.976037
-6.13506
6.18615
0.654563
-0.705644
-6.23813
6.29105
0.411858
-0.464774
-6.33582
6.37052
0.278079
-0.312781
-6.40217
6.4319
0.173442
-0.203173
-6.45862
6.48305
0.0867121
-0.111147
-6.49892
6.50408
0.090503
-0.0956576
-6.50725
6.51779
0.108385
-0.118919
-6.53579
6.55711
0.0848768
-0.10619
-6.57979
6.6019
0.0718754
-0.0939839
-6.62077
6.6356
0.0997829
-0.114608
-6.65077
6.67261
0.137296
-0.159137
-6.70087
6.72589
0.204425
-0.22944
-6.73913
6.74575
0.362575
-0.369196
-6.75167
6.75933
0.468287
-0.475943
-6.76698
6.7753
0.498492
-0.506812
-6.78589
6.79988
0.435767
-0.449763
-6.8175
6.83857
0.306816
-0.327894
-6.86268
6.88916
0.166765
-0.193248
-6.91618
6.94111
0.0756483
-0.100585
-6.96059
6.97466
0.0580571
-0.0721272
-6.98608
6.99703
0.0526003
-0.063544
-7.00796
7.01715
0.0285059
-0.037705
-7.022
7.02208
0.0175909
-0.0176696
-7.02015
7.0191
0.0214938
-0.0204441
-7.01897
7.01955
0.0180941
-0.0186782
-7.01918
7.01745
-0.0154764
0.0172034
-7.0128
7.00585
-0.0608016
0.0677525
-6.99852
6.98992
-0.0971601
0.105756
-6.97793
6.95836
-0.115007
0.134573
-6.93098
6.90049
-0.0650553
0.095542
-6.86836
6.8407
0.119154
-0.0914954
-6.82155
6.80959
0.341313
-0.329445
-6.79574
6.77546
0.478051
-0.456927
-6.74967
6.7236
0.411202
-0.38513
-4.57489
0.393849
-0.000509504
-0.1162
-0.00053018
7.34127e-21
-1.28948e-11
0.00053018
-4.5295e-30
-4.31898e-30
-6.47004e-29
-7.69577e-32
3.11626e-21
0.00747912
-8.8471e-08
0.000540547
-0.00751341
0.00679147
-0.000552761
0.000783785
-0.00250144
0
-4.06803e-05
1.46861e-05
-3.20955e-20
0.0192056
3.50179e-21
-0.0192056
0.984007
-1.03185
0.0460538
-0.122046
0.186128
0.588914
-0.652996
-0.246166
0.295954
0.376
-0.425788
-0.333247
0.362648
0.270084
-0.299486
-0.391411
0.422046
0.231851
-0.262488
-0.451914
0.477554
0.184763
-0.210404
-0.498899
0.504382
0.153916
-0.163992
-0.490577
0.466961
0.207391
-0.20673
-0.513079
0.571241
0.559684
-0.641586
-0.626377
0.463185
1.45329
-0.694973
-0.170799
0.21528
0.650098
-0.198956
-0.522165
1.76524
0.157599
-1.83498
-2.95556
4.1943
0.88622
-2.67927
-4.8469
5.05496
2.36549
-2.57354
-5.25495
5.4156
2.19674
-2.35739
-5.56097
5.69494
1.95429
-2.08826
-5.80802
5.91006
1.68978
-1.79181
-6.00587
6.09367
1.36316
-1.45096
-6.17462
6.24766
1.04216
-1.1152
-6.31291
6.37085
0.759778
-0.817723
-6.4244
6.47458
0.516107
-0.566287
-6.51842
6.55354
0.34769
-0.38281
-6.58261
6.60798
0.230086
-0.255456
-6.63162
6.65533
0.13589
-0.159597
-6.67649
6.69067
0.10686
-0.121043
-6.69844
6.70503
0.126064
-0.132655
-6.71431
6.72736
0.12254
-0.135592
-6.74431
6.76449
0.115425
-0.135604
-6.78521
6.80347
0.131773
-0.150036
-6.8196
6.83724
0.178036
-0.195669
-6.85797
6.87758
0.251115
-0.270722
-6.89023
6.8963
0.375263
-0.381339
-6.89954
6.90249
0.480101
-0.483051
-6.90493
6.90745
0.511517
-0.514042
-6.91176
6.91888
0.45988
-0.467004
-6.92935
6.94272
0.344725
-0.358096
-6.95897
6.97735
0.215134
-0.233517
-6.99673
7.01528
0.121666
-0.14022
-7.03123
7.04435
0.0856238
-0.098742
-7.0563
7.06871
0.0751564
-0.0875692
-7.08156
7.09221
0.0470871
-0.0577363
-7.09751
7.09728
0.0174115
-0.0171743
-7.09465
7.09263
0.0188729
-0.0168555
-7.09248
7.09475
0.0202367
-0.0225033
-7.09831
7.10074
-0.0170715
0.0146431
-7.09884
7.09296
-0.0740237
0.079902
-7.08723
7.08293
-0.112036
0.116335
-7.07821
7.06727
-0.150775
0.161709
-7.04337
7.00613
-0.130596
0.167838
-6.96088
6.91125
0.0530547
-0.00343395
-6.86859
6.8375
0.307823
-0.276735
-6.81344
6.79352
0.435822
-0.415906
-6.77841
6.77048
0.369124
-0.36119
-6.77112
6.77813
0.17725
-0.184258
-5.57847
1.25193
-0.00984279
0.0275818
-0.00945639
-7.08388e-05
4.72268e-20
0.00952723
-0.00117551
0.00155469
-0.000450739
0.000103507
-0.000934354
0.000192094
-9.04849e-05
8.38971e-06
3.99264e-21
5.92759e-19
-2.58185e-22
9.58518e-21
-3.49751
7.56787
0.103213
-0.252439
1.06759
-1.09444
0.0268565
-0.0815922
0.134964
0.711821
-0.764759
-0.193165
0.248237
0.477305
-0.532164
-0.289819
0.318752
0.328088
-0.357021
-0.344735
0.374612
0.292785
-0.322663
-0.401682
0.388898
0.235093
-0.249108
-0.391343
0.423681
0.168835
-0.194929
-0.469863
0.49918
0.245899
-0.272544
-0.489174
0.121797
0.633186
-0.167298
-0.0173506
0.382591
0.191742
-0.374148
-2.49944
3.40819
2.89788
-3.80663
-3.74564
4.06555
3.13392
-3.45383
-4.35888
4.62055
2.94428
-3.20595
-4.86117
5.07622
2.78089
-2.99593
-5.27937
5.46456
2.53097
-2.71616
-5.63262
5.78598
2.23213
-2.38549
-5.92159
6.04186
1.90434
-2.02462
-6.14955
6.24649
1.54444
-1.64138
-6.33295
6.40957
1.19109
-1.26771
-6.47677
6.53522
0.876802
-0.935247
-6.58665
6.63194
0.614215
-0.659511
-6.67105
6.70338
0.416697
-0.449031
-6.72993
6.75224
0.279107
-0.301412
-6.77218
6.79164
0.181025
-0.200489
-6.81005
6.82482
0.135828
-0.150602
-6.83499
6.84271
0.139505
-0.147218
-6.85069
6.86084
0.146441
-0.156594
-6.87472
6.89278
0.154216
-0.172276
-6.91291
6.93154
0.168283
-0.186917
-6.94798
6.96473
0.212389
-0.229133
-6.98372
7.00247
0.289023
-0.30777
-7.01552
7.0221
0.387429
-0.394017
-7.02606
7.02955
0.485815
-0.489312
-7.03149
7.03093
0.514831
-0.514266
-7.03052
7.0322
0.471579
-0.473258
-7.03675
7.04424
0.368318
-0.375812
-7.05482
7.06842
0.248953
-0.262547
-7.08406
7.10034
0.156958
-0.173239
-7.11543
7.12852
0.111487
-0.124576
-7.14047
7.15343
0.100363
-0.113316
-7.16842
7.18296
0.0701129
-0.0846478
-7.19226
7.19405
0.0175133
-0.0192968
-7.19221
7.18983
0.0145326
-0.0121601
-7.18838
7.18938
0.0247074
-0.0257123
-7.19375
7.20071
-0.00977589
0.00281575
-7.20431
7.1995
-0.085323
0.0901376
-7.19388
7.19091
-0.1194
0.122367
-7.19147
6.64557
-0.165119
0.118326
-2.7112
0.360999
-0.201944
-0.0105407
-0.394211
0.524291
-0.0317547
0
-2.18614
5.60438
0.227048
-0
-6.82711
6.87087
0.397806
-0.35354
-6.86683
6.87146
0.360106
-0.364742
-6.88641
6.91125
0.201942
-0.226779
-6.94532
6.98878
-0.00375991
-0.0397006
-6.54702
3.96917
-0.0828241
0.146742
-1.87507
2.12175
-0.000103507
0.147782
-3.44704
6.32086
-2.84905e-06
0.114504
-7.59779
7.67231
0.0260328
-0.0817066
-7.71193
7.73705
0.294689
-0.319803
1.11638
-1.13579
0.0194147
-0.0495685
0.0851329
0.810454
-0.846018
-0.132056
0.175485
0.590086
-0.629815
-0.194418
0.234444
0.373647
-0.344099
-0.301037
0.335903
0.349175
-0.364129
-0.363994
0.402853
0.291247
-0.332906
-0.435488
0.456001
0.226801
-0.247314
-0.467073
0.410098
0.26826
-0.211285
-0.00973499
-6.83944e-20
0.00973499
4.52985e-20
-0.316714
3.11754
1.67297
-3.53876
-3.38232
3.64992
4.09759
-4.36518
-3.92382
4.2046
3.75036
-4.03114
-4.48242
4.74546
3.46645
-3.72949
-4.99199
5.21854
3.21585
-3.4424
-5.42854
5.62079
2.90517
-3.09742
-5.79528
5.95228
2.54068
-2.69767
-6.09005
6.21038
2.14614
-2.26646
-6.31472
6.40587
1.73602
-1.82717
-6.48492
6.55291
1.34069
-1.40869
-6.61129
6.66173
0.990304
-1.04075
-6.70553
6.74321
0.700943
-0.738625
-6.77579
6.80348
0.478706
-0.506395
-6.82699
6.84732
0.322101
-0.342427
-6.86547
6.88303
0.218241
-0.235796
-6.90028
6.91581
0.165183
-0.18071
-6.92847
6.93936
0.156104
-0.166998
-6.95016
6.96222
0.167055
-0.179113
-6.97728
6.99685
0.190479
-0.210055
-7.01923
7.04004
0.20612
-0.226939
-7.05815
7.07622
0.246103
-0.264173
-7.09676
7.11886
0.327709
-0.34981
-7.13603
7.14459
0.401205
-0.409765
-7.14965
7.15338
0.493579
-0.497306
-7.10135
6.64744
0.512102
-0.300777
-5.87985
4.95171
0.471631
-0.00218148
-4.07261
3.35723
0.376782
4.08133e-21
-3.2781
3.37406
0.260428
2.76982e-21
-3.66047
3.933
0.187751
1.57971e-21
-3.93588
3.83167
0.137208
1.04585e-21
-3.88746
4.33175
0.125201
7.55689e-22
-5.02819
4.73646
0.0997643
2.48838e-22
-2.44745
0.104544
0.0120386
-2.59648e-20
-0.00186893
8.94902e-21
0.00186893
-7.46802e-44
0.000190649
0.00378298
0.00603226
-9.54715e-17
-0.0216506
0.0311102
8.19846e-05
-2.78521e-16
-0.0255983
0.00121606
0.00360027
-2.46575e-13
-1.43456e-20
-1.87734e-20
3.08885e-14
-3.08884e-14
-1.8198e-20
-9.57414e-21
2.36543e-13
-2.36544e-13
8.19018e-21
1.68925e-23
7.51299e-12
-7.51299e-12
5.34692e-22
-3.39426e-22
2.08318e-22
-9.50888e-24
9.00094e-23
-7.2971e-24
-2.19332e-25
-3.46985e-22
1.95581e-24
0
0
6.59003e-26
-2.74347
6.55142
0.386071
-0.109058
-7.01658
7.05719
0.25696
-0.297577
-7.10256
7.15861
0.0910317
-0.147081
-7.22693
7.3064
-0.0591468
-0.0203218
-7.39567
7.48801
-0.113116
0.0207696