/*--------------------------------*- C++ -*----------------------------------*\
| =========                 |                                                 |
| \\      /  F ield         | OpenFOAM: The Open Source CFD Toolbox           |
|  \\    /   O peration     | Version:  v1912                                 |
|   \\  /    A nd           | Website:  www.openfoam.com                      |
|    \\/     M anipulation  |                                                 |
\*---------------------------------------------------------------------------*/
FoamFile
{
    version     2.0;
    format      ascii;
    class       volScalarField;
    location    "54";
    object      alpha.water;
}
// * * * * * * * * * * * * * * * * * * * * * * * * * * * * * * * * * * * * * //

dimensions      [0 0 0 0 0 0 0];


internalField   nonuniform List<scalar> 
20320
(
1
1
1
1
1
1
1
1
1
1
1
1
1
1
1
1
1
1
1
1
1
1
1
1
1
1
1
1
1
1
1
1
1
1
1
1
1
1
1
1
1
1
1
1
1
1
1
1
1
1
1
1
1
1
1
1
1
1
1
1
1
1
1
1
1
1
1
1
1
1
1
1
1
1
1
1
1
1
1
1
1
1
1
1
1
1
1
1
1
1
1
1
1
1
1
1
1
1
1
1
1
1
1
1
1
1
1
1
1
1
1
1
1
1
1
1
1
1
1
1
1
1
1
1
1
1
1
1
1
1
1
1
1
1
1
1
1
1
1
1
1
1
1
1
1
1
1
1
1
1
1
1
1
1
1
1
1
1
1
1
1
1
1
1
1
1
1
1
1
1
1
1
1
1
1
1
1
1
1
1
1
1
1
1
1
1
1
1
1
1
1
1
1
1
1
1
1
1
1
1
1
1
1
1
1
1
1
1
1
1
1
1
1
1
1
1
1
1
1
1
1
1
1
1
1
1
1
1
1
1
1
1
1
1
1
1
1
1
1
1
1
1
1
1
1
1
1
1
1
1
1
1
1
1
1
1
1
1
1
1
1
1
1
1
1
1
1
1
1
1
1
1
1
1
1
1
1
1
1
1
1
1
1
1
1
1
1
1
1
1
1
1
1
1
1
1
1
1
1
1
1
1
1
1
1
1
1
1
1
1
1
1
1
1
1
1
1
1
1
1
1
1
1
1
1
1
1
1
1
1
1
1
1
1
1
1
1
1
1
1
1
1
1
1
1
1
1
1
1
1
1
1
1
1
1
1
1
1
1
1
1
1
1
1
1
1
1
1
1
1
1
1
1
1
1
1
1
1
1
1
1
1
1
1
1
1
1
1
1
1
1
1
1
1
1
1
1
1
1
1
0.983939
0.991593
0.987701
0.960501
0.996398
0.996398
0.991273
0.986875
0.753485
0.753485
0.989812
1
0.999995
0.999743
0.789432
0.78922
0.789016
0.868661
1
1
1
1
1
1
0.999952
0.999885
0.999996
1
1
1
1
1
0.0317312
2.79257e-20
4.3199e-20
1.11087e-20
-5.03943e-23
-9.34663e-22
0.00218598
0.0166664
0.0160573
0.945609
0.745231
0.0479249
0.0479061
0.0477812
0.0477585
0.0477575
0.0477598
0.896121
1
1
1
0.996038
0.994145
0.664856
1.01231e-08
3.58322e-09
6.8502e-10
0.868287
0.96706
0.995651
0.996899
0.997745
0.99033
0.996398
0.775958
0.946721
1
1
1
0.999097
0.984391
1
1
0.997062
0.829457
0.578046
0.493785
0.530429
0.606406
0.851993
0.949011
0.971357
0.959913
0.972448
0.988178
0.991771
0.996745
0.990869
0.99834
0.0952144
0.138578
0.98819
0.997485
0.969452
0.952647
0.95347
0.999022
1
1
1
1
1
1
1
1
1
1
1
1
1
0.998949
0.896492
0.014633
9.0308e-06
3.68208e-05
2.89749e-05
0.00126888
2.05105e-21
1
0.942002
0.943893
0.970777
0.983972
1
1
0.999999
1
0.98307
0.954525
0.969941
0.997189
0.885889
0.144001
0.0131202
0.0739214
0.372633
0.827725
0.965295
0.932534
0.892938
0.311792
0.311792
0.86423
0.507557
0.111529
0.111167
0.118144
0.208168
0.221393
0.986591
1
1
1
1
1
1
1
1
1
1
1
1
1
1
1
1
1
1
1
1
0.601985
-3.11315e-21
4.88216e-22
3.22225e-07
3.14157e-07
2.73187e-22
2.02586e-06
-2.01675e-24
0.998172
1
1
1
1
0.999998
1
1
0.922042
0.947809
0.992402
0.80432
0.0842726
0.0189184
0.351703
1
1
1
1
1
1
1
1
1
1
1
1
1
1
1
1
1
1
1
1
1
1
1
1
1
1
1
1
1
1
1
1
1
1
1
0.999843
0.999932
1
0.35421
-2.82691e-21
-7.90913e-46
0.000457289
0.00113305
8.92906e-05
1.40127e-20
0.999039
1
1
1
0.999986
1
0.995934
0.870289
0.955181
0.754771
0.121327
0.255457
0.786143
1
1
1
1
1
1
1
1
1
1
1
1
1
1
1
1
1
1
1
1
1
1
1
1
1
1
1
1
1
1
1
1
1
1
1
1
1
1
1
1
1
0.528847
-3.17185e-19
0.000234803
3.40958e-05
-9.70556e-37
0.770982
1
0.999035
0.999921
1
1
0.948767
0.869807
0.996788
0.652346
0.0241288
1
1
1
1
1
1
1
1
1
1
1
1
1
1
1
1
1
1
1
1
1
1
1
1
1
1
1
1
1
1
1
1
1
1
1
1
1
0.994557
0.190814
0.0616265
0.535873
0.997884
1
1
1
0.786354
0.259118
0.609781
0.999724
1
1
1
0.977147
0.83263
0.986521
0.990789
1
1
1.68679e-20
0.709241
1
1
1
1
1
1
1
1
1
1
1
1
1
1
1
1
1
1
1
1
1
1
1
0.970041
0.80791
0.58359
0.509019
0.572863
0.578807
0.591025
0.732334
0.160778
1.29248e-21
0.000289515
0.00476832
0.000814841
-3.09428e-21
1.03166e-20
-1.57491e-25
-5.06788e-23
9.81729e-32
-5.59487e-19
0.67936
1
1
1
1
1
1
1
1
0.998235
0.937064
0.756467
0.859904
1
0.975535
0.118029
-7.10064e-20
0.984965
1
1
1
1
1
1
1
1
1
1
1
1
1
1
1
1
1
1
0.988826
0.893977
0.76927
0.102321
-1.00062e-20
-3.04061e-20
-1.99226e-20
-1.8525e-20
-1.69597e-20
-1.53441e-20
-1.34337e-20
-8.33743e-21
1.57405e-20
1.38354e-18
6.55027e-17
1.95847e-15
6.08315e-14
3.01136e-12
1.69364e-11
2.85805e-11
2.68353e-09
8.81902e-10
1.33097e-07
2.27088e-06
-7.05156e-25
0.10101
0.963798
1
1
1
1
1
0.998889
0.771202
0.920628
0.949488
0.843349
0.894738
0.872834
-5.5502e-20
0.192587
1
1
1
1
1
1
1
1
1
0.916413
0.696297
0.489053
0.358519
0.280853
0.222262
0.14219
0.000449252
-1.00029e-20
-1.06591e-20
-1.44288e-20
-1.25957e-20
-1.13847e-20
-1.02605e-20
-9.26045e-21
-8.5279e-21
-8.02866e-21
-7.60351e-21
-7.20164e-21
-6.3218e-21
-2.90999e-21
6.11158e-20
5.36429e-18
3.57219e-16
1.95629e-14
6.49523e-13
8.96202e-12
3.42113e-11
6.07034e-11
4.36457e-10
1.22514e-09
1.85422e-10
3.71831e-05
6.22572e-05
5.5157e-23
3.28602e-22
0
0.0235625
0.610157
0.781423
0.52401
1.50582e-20
0.771216
0.771194
0.983858
1
0.773459
0.99305
0.217516
-7.36747e-20
0.883402
1
1
1
1
1
1
0.957023
0.37671
-2.42955e-20
-5.54007e-20
-4.50847e-20
-3.41057e-20
-3.39333e-20
-3.40603e-20
-3.01585e-20
-2.46085e-20
-1.9979e-20
-1.60125e-20
-1.31354e-20
-1.13138e-20
-9.82312e-21
-8.21585e-21
-6.95514e-21
-6.03294e-21
-5.50429e-21
-5.35669e-21
-5.39268e-21
-5.4034e-21
-5.00452e-21
-3.21758e-21
3.63747e-21
7.50268e-20
3.03894e-19
5.16773e-18
1.77364e-16
3.14058e-15
1.19769e-14
1.34113e-13
2.06319e-11
2.70655e-11
3.16884e-29
5.73474e-22
6.55393e-21
8.67099e-21
5.04942e-21
-8.72939e-22
-2.59502e-21
-3.38379e-21
-3.87528e-21
-4.40339e-21
-5.36599e-21
0.771232
0.793239
0.999998
0.98162
1
1
1.47831e-20
0.190389
1
1
1
1
1
1
0.563707
-1.24919e-19
-1.86629e-20
-2.31407e-20
-2.22422e-20
-2.26887e-20
-2.2396e-20
-1.96743e-20
-1.5024e-20
-1.05114e-20
-7.57898e-21
-6.16658e-21
-5.29916e-21
-4.59649e-21
-4.10561e-21
-3.7751e-21
-3.54856e-21
-3.44797e-21
-3.37909e-21
-3.30296e-21
-3.22294e-21
-3.08363e-21
-2.85029e-21
-2.55267e-21
-2.24914e-21
-1.98138e-21
-1.7651e-21
-1.59695e-21
-1.4751e-21
-1.418e-21
-1.43812e-21
-1.52955e-21
-1.68393e-21
-1.8935e-21
-2.1466e-21
-2.43978e-21
-2.79041e-21
-3.23491e-21
-3.81503e-21
-4.55627e-21
-5.4205e-21
-6.2675e-21
-6.90033e-21
-7.25881e-21
-7.43104e-21
-7.4318e-21
0.999999
0.999995
0.999997
1
1
0.189828
-5.78142e-20
0.993948
1
1
1
1
1
0.231888
-7.87241e-20
-1.66849e-20
-1.3082e-20
-1.16105e-20
-9.36386e-21
-7.45868e-21
-6.2978e-21
-5.33096e-21
-4.31769e-21
-3.41001e-21
-2.79955e-21
-2.48371e-21
-2.30651e-21
-2.19624e-21
-2.14172e-21
-2.08993e-21
-1.98956e-21
-1.83448e-21
-1.61648e-21
-1.37028e-21
-1.13736e-21
-9.22352e-22
-7.27542e-22
-5.64804e-22
-4.42135e-22
-3.57858e-22
-3.05135e-22
-2.76679e-22
-2.67933e-22
-2.78054e-22
-3.07083e-22
-3.54233e-22
-4.1906e-22
-5.02438e-22
-6.07613e-22
-7.43973e-22
-9.31906e-22
-1.20481e-21
-1.60311e-21
-2.15085e-21
-2.81195e-21
-3.47364e-21
-4.01538e-21
-4.41133e-21
-4.76108e-21
-5.45e-21
0.999999
0.99915
0.999994
1
0.74848
6.04576e-36
0.803917
1
1
1
1
1
0.278972
-1.17255e-20
-1.46667e-20
-7.76891e-21
-5.57303e-21
-4.5106e-21
-3.44304e-21
-2.57112e-21
-2.0142e-21
-1.68744e-21
-1.49059e-21
-1.37075e-21
-1.30974e-21
-1.28328e-21
-1.24045e-21
-1.15433e-21
-1.02877e-21
-8.68103e-22
-6.87727e-22
-5.14077e-22
-3.63761e-22
-2.47366e-22
-1.65306e-22
-1.09561e-22
-7.25152e-23
-4.90057e-23
-3.50979e-23
-2.76947e-23
-2.46169e-23
-2.45455e-23
-2.68603e-23
-3.14792e-23
-3.86494e-23
-4.88985e-23
-6.33999e-23
-8.48784e-23
-1.19697e-22
-1.82697e-22
-3.07126e-22
-5.60698e-22
-1.05953e-21
-1.95657e-21
-3.41439e-21
-5.68389e-21
-9.31024e-21
-1.52526e-20
-2.51874e-20
-4.2706e-20
1
1
1
1
0.261005
0.0883674
1
1
1
1
1
0.703648
2.94876e-20
-8.30345e-21
-5.67518e-21
-4.12011e-21
-2.9376e-21
-1.98357e-21
-1.31664e-21
-9.34535e-22
-7.46186e-22
-6.63396e-22
-6.32504e-22
-6.16686e-22
-5.89515e-22
-5.34833e-22
-4.4693e-22
-3.40207e-22
-2.37573e-22
-1.53119e-22
-9.16341e-23
-5.15246e-23
-2.75574e-23
-1.42831e-23
-7.35259e-24
-3.8466e-24
-2.12073e-24
-1.32803e-24
-1.04089e-24
-1.05485e-24
-1.29286e-24
-1.75872e-24
-2.52088e-24
-3.72017e-24
-5.60793e-24
-8.6587e-24
-1.3893e-23
-2.37912e-23
-4.48713e-23
-9.48699e-23
-2.21567e-22
-5.47448e-22
-1.36022e-21
-3.25395e-21
-7.29435e-21
-1.52304e-20
-2.98645e-20
-5.5531e-20
-9.86692e-20
-1.68967e-19
1
1
1
0.97419
0.0267799
0.938359
1
1
1
1
1
5.6714e-19
-1.18347e-20
-4.99334e-21
-2.92724e-21
-1.84116e-21
-1.07527e-21
-6.19215e-22
-3.86902e-22
-2.8513e-22
-2.47008e-22
-2.32425e-22
-2.17338e-22
-1.89525e-22
-1.49254e-22
-1.04613e-22
-6.46015e-23
-3.51889e-23
-1.71491e-23
-7.6073e-24
-3.12516e-24
-1.2127e-24
-4.55532e-25
-1.73266e-25
-7.43337e-26
-4.46194e-26
-4.35692e-26
-5.94817e-26
-9.29601e-26
-1.52248e-25
-2.5368e-25
-4.25109e-25
-7.12606e-25
-1.19267e-24
-1.99468e-24
-3.34737e-24
-5.68853e-24
-9.95786e-24
-1.84684e-23
-3.76406e-23
-8.66239e-23
-2.23e-22
-6.1139e-22
-1.67538e-21
-4.35938e-21
-1.04947e-20
-2.32735e-20
-4.7801e-20
-9.14708e-20
-1.64059e-19
1
1
0.856657
0.170707
-1.57064e-22
0.999919
1
1
1
1
0.317811
-2.54977e-20
-6.32656e-21
-3.08443e-21
-1.50043e-21
-6.91286e-22
-3.08689e-22
-1.55331e-22
-9.6724e-23
-7.36696e-23
-6.14877e-23
-4.99608e-23
-3.65682e-23
-2.31331e-23
-1.24234e-23
-5.64057e-24
-2.17294e-24
-7.20216e-25
-2.10624e-25
-5.62367e-26
-1.44991e-26
-4.213e-27
-2.0024e-27
-1.85746e-27
-2.41726e-27
-3.53211e-27
-5.47663e-27
-8.8767e-27
-1.48725e-26
-2.54425e-26
-4.39443e-26
-7.60116e-26
-1.31041e-25
-2.24734e-25
-3.83527e-25
-6.52394e-25
-1.10882e-24
-1.88997e-24
-3.25175e-24
-5.72852e-24
-1.06829e-23
-2.23939e-23
-5.56578e-23
-1.59704e-22
-4.80041e-22
-1.3909e-21
-3.73593e-21
-9.18916e-21
-2.06293e-20
-4.23123e-20
0.999999
0.992065
-1.60924e-22
0.0271228
-2.38214e-20
1
1
1
1
1
-4.23303e-19
-1.72205e-20
-3.68489e-21
-1.3182e-21
-5.16602e-22
-1.81434e-22
-6.64229e-23
-3.05816e-23
-1.764e-23
-1.11357e-23
-6.71037e-24
-3.52473e-24
-1.52606e-24
-5.28972e-25
-1.46043e-25
-3.26175e-26
-6.08083e-27
-1.00403e-27
-1.78342e-28
-6.09622e-29
-4.97221e-29
-5.64676e-29
-7.09701e-29
-9.48812e-29
-1.33551e-28
-1.96676e-28
-3.02233e-28
-4.84041e-28
-8.0328e-28
-1.36458e-27
-2.34025e-27
-4.00822e-27
-6.81811e-27
-1.15109e-26
-1.93338e-26
-3.23981e-26
-5.42457e-26
-9.06635e-26
-1.50868e-25
-2.49318e-25
-4.09284e-25
-6.77037e-25
-1.21063e-24
-2.77694e-24
-8.89028e-24
-3.29889e-23
-1.18368e-22
-3.8521e-22
-1.12088e-21
-2.90219e-21
0.999999
0.945356
-5.86886e-25
0.00320959
0.0200021
1
1
1
1
0.531748
-1.44501e-21
-3.10338e-21
-1.44239e-21
-4.66526e-22
-1.32911e-22
-3.45109e-23
-1.00162e-23
-3.57043e-24
-1.34646e-24
-4.49609e-25
-1.17796e-25
-2.2645e-26
-3.16116e-27
-3.34322e-28
-2.94787e-29
-3.104e-30
-9.83759e-31
-7.27319e-31
-6.58477e-31
-6.52438e-31
-6.9746e-31
-7.98416e-31
-9.71679e-31
-1.24858e-30
-1.68205e-30
-2.35831e-30
-3.41928e-30
-5.09729e-30
-7.77015e-30
-1.20451e-29
-1.88764e-29
-2.97301e-29
-4.68274e-29
-7.34821e-29
-1.14543e-28
-1.7696e-28
-2.70351e-28
-4.0733e-28
-6.03619e-28
-8.77266e-28
-1.24758e-27
-1.7452e-27
-2.64106e-27
-6.956e-27
-3.74934e-26
-2.17035e-25
-1.05607e-24
-4.30079e-24
-1.52701e-23
-5.00564e-23
0.999955
0.889442
0.126633
0.218661
0.00785314
1
1
1
1
0.0849854
-1.94265e-20
-2.18002e-21
-4.90517e-22
-1.23615e-22
-2.45354e-23
-4.07302e-24
-6.7618e-25
-9.76807e-26
-7.91205e-27
-1.86213e-28
-1.98847e-30
-4.18681e-32
-1.2731e-32
-7.17633e-33
-4.38338e-33
-2.83381e-33
-1.9473e-33
-1.43151e-33
-1.12781e-33
-9.51784e-34
-8.57909e-34
-8.20922e-34
-8.2701e-34
-8.70744e-34
-9.51656e-34
-1.07281e-33
-1.24032e-33
-1.46257e-33
-1.75094e-33
-2.11799e-33
-2.57584e-33
-3.13471e-33
-3.80158e-33
-4.57835e-33
-5.46109e-33
-6.4372e-33
-7.48174e-33
-8.55376e-33
-9.5946e-33
-1.05304e-32
-1.1283e-32
-1.19481e-32
-3.55774e-32
-1.28004e-30
-2.56578e-29
-2.83059e-28
-2.08531e-27
-1.16068e-26
-5.35829e-26
-2.20794e-25
0.995712
0.86097
1
0.513004
0.328066
1
1
1
1
-2.38722e-19
-3.85859e-21
-9.85831e-22
-1.86565e-22
-2.68531e-23
-2.56752e-24
-1.43505e-25
-2.6613e-27
-2.47836e-29
-1.16934e-32
-1.14689e-34
-2.34255e-35
-4.29827e-36
-6.29639e-37
-7.87542e-38
-1.01508e-38
-1.58245e-39
-3.20232e-40
-8.02148e-41
-2.4122e-41
-8.88506e-42
-3.87082e-42
-1.90172e-42
-1.02591e-42
-5.98414e-43
-3.73301e-43
-2.46357e-43
-1.70176e-43
-1.21988e-43
-9.00948e-44
-6.81286e-44
-5.24212e-44
-4.08203e-44
-3.19973e-44
-2.51671e-44
-1.99544e-44
-1.67682e-44
-1.87813e-44
-3.92948e-44
-1.25634e-43
-4.27636e-43
-1.37258e-42
-4.05961e-42
-1.12597e-41
-1.44957e-36
-6.39688e-34
-2.6192e-32
-4.17379e-31
-3.95743e-30
-2.9196e-29
-2.11525e-28
0.973654
1
1
0.0529674
0.759954
1
1
1
0.807925
1.82902e-20
-1.02498e-21
-4.1147e-22
-5.8306e-23
-3.52093e-24
-5.03999e-26
-2.20872e-28
-1.51973e-30
-5.81752e-36
-3.00227e-37
-8.10619e-39
-4.975e-41
-7.96443e-46
-3.04758e-53
-1.89071e-55
-8.31199e-58
-2.03321e-59
-4.96028e-61
-6.35661e-62
-5.31195e-62
-5.46215e-62
-6.19834e-62
-7.89669e-62
-1.10171e-61
-1.61114e-61
-2.49241e-61
-4.09151e-61
-6.96409e-61
-1.23708e-60
-1.25655e-59
-2.83752e-56
-3.54591e-54
-9.94063e-53
-1.37167e-51
-1.21615e-50
-7.89642e-50
-4.05082e-49
-1.72274e-48
-6.27051e-48
-1.99652e-47
-5.64629e-47
-1.43418e-46
-3.29767e-46
-6.91038e-46
-1.32769e-45
-2.35316e-45
-5.54814e-39
-2.34648e-36
-9.31042e-35
-1.92742e-33
-5.3442e-32
0.90722
1
1
0.0233458
0.969566
1
1
1
0.33216
-3.22101e-21
-9.20292e-22
-1.99172e-22
-1.28232e-23
-8.61762e-26
-9.59243e-29
-4.51805e-31
-8.07187e-37
-1.23418e-38
-7.92776e-41
-2.89622e-44
-2.2421e-48
-1.44583e-52
-3.28674e-57
-6.2292e-62
-8.78814e-65
-8.34966e-69
-3.40975e-69
-3.99645e-69
-4.88422e-69
-6.1141e-69
-7.9228e-69
-1.07136e-68
-1.52109e-68
-2.28028e-68
-3.65458e-68
-6.47372e-68
-1.19203e-67
-2.27835e-67
-4.53908e-67
-9.15931e-67
-1.86859e-66
-3.83853e-66
-7.92015e-66
-1.6384e-65
-3.38953e-65
-6.99247e-65
-1.43492e-64
-2.91845e-64
-5.85665e-64
-1.15536e-63
-2.23036e-63
-4.1982e-63
-7.69191e-63
-1.37216e-62
-2.3905e-62
-4.09172e-62
-1.10285e-61
-1.25555e-40
-2.67083e-38
-4.97289e-36
0.930433
1
0.955882
-1.66302e-21
1
1
1
1
0.0940528
-1.07519e-21
-4.62975e-22
-6.28435e-23
-1.03869e-24
-1.02206e-28
-5.63119e-31
-5.38094e-35
-4.29835e-37
-1.89722e-39
-4.1605e-42
-4.18087e-45
-1.67215e-48
-1.97764e-52
-4.59665e-57
-1.20555e-62
-4.29512e-69
-9.2915e-71
-4.96211e-72
-6.33667e-73
-5.38881e-73
-6.84851e-73
-9.12494e-73
-1.25534e-72
-1.78589e-72
-2.62857e-72
-4.01476e-72
-6.37026e-72
-1.05296e-71
-1.81242e-71
-3.26927e-71
-6.39701e-71
-1.31722e-70
-2.81588e-70
-6.20808e-70
-1.41623e-69
-3.34515e-69
-8.18006e-69
-2.0597e-68
-5.29887e-68
-1.38313e-67
-3.61306e-67
-9.39215e-67
-2.39304e-66
-5.95679e-66
-1.44065e-65
-3.3872e-65
-7.71419e-65
-1.68844e-64
-3.49622e-64
-1.49455e-43
-1.16255e-40
0.931239
1
0.82334
0.0505925
1
1
1
1
0.00856099
-9.61113e-22
-2.17369e-22
-9.94569e-24
-2.59479e-27
-3.04453e-30
-6.13144e-33
-6.71909e-35
-5.30269e-37
-2.31441e-39
-5.09892e-42
-5.14145e-45
-2.08662e-48
-2.52489e-52
-6.11613e-57
-1.76171e-62
-5.44583e-69
-5.5545e-71
-2.75159e-72
-1.23404e-73
-5.36537e-75
-6.14184e-76
-6.02626e-76
-8.77538e-76
-1.32582e-75
-2.07048e-75
-3.4333e-75
-6.59411e-75
-1.68829e-74
-5.93238e-74
-2.48284e-73
-1.07792e-72
-4.56609e-72
-1.85263e-71
-7.17511e-71
-2.65614e-70
-9.42676e-70
-3.22036e-69
-1.06373e-68
-3.41052e-68
-1.06734e-67
-3.24271e-67
-9.65716e-67
-2.77211e-66
-7.8057e-66
-2.12921e-65
-5.72303e-65
-1.50302e-64
-3.85475e-64
-9.49007e-64
-5.25095e-63
-2.52547e-45
0.942253
1
0.122293
0.152106
1
1
1
1
4.73447e-20
-1.29835e-21
-1.28215e-22
-8.52456e-25
-1.44359e-27
-1.28672e-30
-6.81125e-33
-7.86923e-35
-6.11819e-37
-2.6491e-39
-5.81563e-42
-5.88254e-45
-2.4293e-48
-3.02344e-52
-7.67929e-57
-2.44169e-62
-7.734e-69
-3.28041e-71
-1.62557e-72
-7.31847e-74
-2.98773e-75
-1.10717e-76
-4.29773e-78
-9.68228e-79
-1.97127e-78
-7.26097e-78
-3.70082e-77
-2.13687e-76
-1.27416e-75
-7.59112e-75
-4.41776e-74
-2.45282e-73
-1.27683e-72
-6.18292e-72
-2.7914e-71
-1.18292e-70
-4.7433e-70
-1.81016e-69
-6.60053e-69
-2.30893e-68
-7.79466e-68
-2.54402e-67
-8.10514e-67
-2.49649e-66
-7.61462e-66
-2.25974e-65
-6.76482e-65
-1.99758e-64
-5.92217e-64
-1.71746e-63
-4.78963e-63
-1.65803e-50
0.999207
0.985819
0.0807159
0.280409
1
1
1
1
5.93236e-20
-1.49916e-21
-7.72581e-23
-4.55227e-25
-1.06866e-27
-1.32935e-30
-8.41523e-33
-8.56272e-35
-6.51476e-37
-2.80127e-39
-6.14345e-42
-6.24111e-45
-2.6239e-48
-3.36263e-52
-8.99233e-57
-3.18316e-62
-1.12386e-68
-1.9251e-71
-9.48483e-73
-4.24969e-74
-1.73361e-75
-6.45846e-77
-2.19829e-78
-8.20467e-80
-8.52865e-80
-5.05136e-79
-3.10229e-78
-1.92491e-77
-1.20256e-76
-7.50359e-76
-4.65119e-75
-2.86663e-74
-1.74541e-73
-1.0266e-72
-5.67438e-72
-2.91205e-71
-1.38745e-70
-6.17761e-70
-2.58695e-69
-1.02569e-68
-3.86924e-68
-1.39302e-67
-4.81039e-67
-1.60216e-66
-5.21246e-66
-1.65716e-65
-5.33879e-65
-1.71201e-64
-5.6601e-64
-1.85758e-63
-6.08594e-63
-1.9514e-62
0.998305
0.966871
0.925306
0.288234
1
1
1
1
1.24671e-22
-1.62944e-21
-4.155e-23
-3.40132e-25
-9.19267e-28
-1.87114e-30
-1.06045e-32
-8.72028e-35
-6.46988e-37
-2.74231e-39
-5.98428e-42
-6.09716e-45
-2.61093e-48
-3.45426e-52
-9.79619e-57
-3.89631e-62
-1.5866e-68
-1.113e-71
-5.44208e-73
-2.43069e-74
-9.91848e-76
-3.69549e-77
-1.25528e-78
-3.99741e-80
-6.99953e-81
-3.60746e-80
-2.23898e-79
-1.39826e-78
-8.72973e-78
-5.46933e-77
-3.45201e-76
-2.18413e-75
-1.36874e-74
-8.46478e-74
-5.20541e-73
-3.15465e-72
-1.83796e-71
-1.00754e-70
-5.13407e-70
-2.43431e-69
-1.0803e-68
-4.51193e-68
-1.78208e-67
-6.68657e-67
-2.39598e-66
-8.26524e-66
-2.77053e-65
-9.18714e-65
-3.12278e-64
-1.05876e-63
-3.72494e-63
-1.30014e-62
0.998204
0.968183
0.419205
0.078849
1
1
1
1
3.50167e-22
-1.54789e-21
-3.02291e-23
-2.73208e-25
-9.14624e-28
-3.27357e-30
-1.42506e-32
-8.23213e-35
-5.89711e-37
-2.46555e-39
-5.35062e-42
-5.46313e-45
-2.38389e-48
-3.26738e-52
-9.88815e-57
-4.44942e-62
-2.12203e-68
-6.34048e-72
-3.07527e-73
-1.36588e-74
-5.54793e-76
-2.06135e-77
-7.00601e-79
-2.1884e-80
-9.60241e-82
-2.06462e-81
-1.26533e-80
-7.84018e-80
-4.89992e-79
-3.09396e-78
-1.95769e-77
-1.22974e-76
-7.67131e-76
-4.79689e-75
-2.9888e-74
-1.8383e-73
-1.12161e-72
-6.8396e-72
-4.13852e-71
-2.41731e-70
-1.31979e-69
-6.66043e-69
-3.10842e-68
-1.34877e-67
-5.48949e-67
-2.11433e-66
-7.76518e-66
-2.73485e-65
-9.22979e-65
-2.96613e-64
-8.99512e-64
-2.60756e-63
0.754178
0.921179
0.193791
0.0337805
1
1
1
0.806819
-2.93704e-22
-1.26704e-21
-2.66531e-23
-2.32146e-25
-1.03437e-27
-6.05425e-30
-2.12256e-32
-7.31708e-35
-4.93913e-37
-2.03037e-39
-4.37977e-42
-4.48049e-45
-1.9928e-48
-2.83725e-52
-9.21689e-57
-4.71815e-62
-2.65435e-68
-3.54798e-72
-1.70351e-73
-7.50539e-75
-3.03201e-76
-1.12328e-77
-3.81491e-79
-1.18864e-80
-3.54716e-82
-9.76721e-83
-5.44559e-82
-3.35197e-81
-2.08567e-80
-1.30852e-79
-8.18899e-79
-5.07712e-78
-3.1407e-77
-1.94676e-76
-1.19609e-75
-7.24505e-75
-4.37803e-74
-2.66313e-73
-1.61544e-72
-9.72315e-72
-5.86731e-71
-3.49468e-70
-1.96351e-69
-1.00727e-68
-4.68586e-68
-1.99019e-67
-7.77613e-67
-2.80409e-66
-9.28501e-66
-2.78331e-65
-7.34116e-65
-1.57988e-64
0.872011
0.534751
0.744894
0.0239111
1
1
1
0.610134
-2.76259e-23
-1.04111e-21
-2.30485e-23
-2.06963e-25
-1.28768e-27
-1.04155e-29
-3.33382e-32
-6.25584e-35
-3.79275e-37
-1.52754e-39
-3.26923e-42
-3.3495e-45
-1.51897e-48
-2.25293e-52
-7.89615e-57
-4.61998e-62
-3.07945e-68
-1.94397e-72
-9.22435e-74
-4.02976e-75
-1.61741e-76
-5.96556e-78
-2.01959e-79
-6.2785e-81
-1.80061e-82
-7.56949e-84
-1.73842e-83
-1.05838e-82
-6.51205e-82
-4.02134e-81
-2.47312e-80
-1.51135e-79
-9.17138e-79
-5.53547e-78
-3.30354e-77
-1.94763e-76
-1.13798e-75
-6.6169e-75
-3.81846e-74
-2.18508e-73
-1.2494e-72
-7.11078e-72
-3.9771e-71
-2.17559e-70
-1.12264e-69
-5.20707e-69
-2.13359e-68
-7.71536e-68
-2.46202e-67
-6.84509e-67
-1.5981e-66
-2.84639e-66
0.875177
0.701965
0.642578
0.370194
1
1
1
0.536309
-8.75232e-24
-9.25772e-22
-1.97768e-23
-1.92821e-25
-1.69546e-27
-1.60513e-29
-5.09644e-32
-5.33632e-35
-2.63854e-37
-1.04097e-39
-2.20963e-42
-2.26632e-45
-1.04801e-48
-1.62502e-52
-6.18286e-57
-4.1517e-62
-3.29063e-68
-1.04108e-72
-4.87694e-74
-2.10994e-75
-8.40402e-77
-3.08065e-78
-1.038e-79
-3.21664e-81
-9.18377e-83
-2.48453e-84
-4.52674e-85
-2.38522e-84
-1.44442e-83
-8.74677e-83
-5.27645e-82
-3.15488e-81
-1.8671e-80
-1.09161e-79
-6.29667e-79
-3.57777e-78
-2.00306e-77
-1.1047e-76
-5.99786e-76
-3.20041e-75
-1.6778e-74
-8.6054e-74
-4.28255e-73
-2.05365e-72
-9.3704e-72
-4.02878e-71
-1.60096e-70
-5.62838e-70
-1.69163e-69
-4.2684e-69
-8.81008e-69
-1.40972e-68
0.540378
0.9996
0.557135
0.609724
1
1
1
0.555534
-1.30602e-23
-9.3539e-22
-1.80381e-23
-1.87808e-25
-2.25698e-27
-2.24762e-29
-7.25018e-32
-4.86684e-35
-1.66034e-37
-6.40589e-40
-1.34798e-42
-1.38376e-45
-6.51619e-49
-1.05934e-52
-4.40058e-57
-3.40189e-62
-3.2145e-68
-5.42729e-73
-2.50607e-74
-1.073e-75
-4.23666e-77
-1.54257e-78
-5.16958e-80
-1.59525e-81
-4.54012e-83
-1.19426e-84
-3.52405e-86
-3.78197e-86
-2.21325e-85
-1.31331e-84
-7.73247e-84
-4.50267e-83
-2.5902e-82
-1.46754e-81
-8.1792e-81
-4.47592e-80
-2.40542e-79
-1.26817e-78
-6.56359e-78
-3.32534e-77
-1.64644e-76
-7.93004e-76
-3.68653e-75
-1.63687e-74
-6.85796e-74
-2.67307e-73
-9.52675e-73
-3.03098e-72
-8.42172e-72
-1.98765e-71
-3.8379e-71
-5.81873e-71
0.676026
0.997447
0.317162
0.737377
1
1
1
0.383513
-2.55846e-22
-1.05207e-21
-1.94368e-23
-1.93161e-25
-2.86994e-27
-2.88536e-29
-9.43004e-32
-4.94094e-35
-9.52637e-38
-3.57514e-40
-7.44441e-43
-7.6411e-46
-3.65529e-49
-6.24424e-53
-2.84081e-57
-2.53014e-62
-2.85504e-68
-2.74183e-73
-1.24522e-74
-5.27416e-76
-2.06347e-77
-7.45513e-79
-2.48391e-80
-7.62918e-82
-2.16229e-83
-5.66516e-85
-1.37943e-86
-7.01414e-88
-2.29803e-87
-1.32549e-86
-7.59695e-86
-4.29997e-85
-2.3993e-84
-1.31645e-83
-7.08889e-83
-3.74445e-82
-1.93817e-81
-9.82803e-81
-4.87344e-80
-2.36121e-79
-1.11384e-78
-5.08949e-78
-2.23373e-77
-9.32052e-77
-3.65531e-76
-1.32827e-75
-4.40275e-75
-1.30466e-74
-3.37793e-74
-7.43973e-74
-1.34914e-73
-1.93954e-73
1
1
0.147395
0.823914
1
1
1
0.346002
-1.09614e-21
-1.19899e-21
-2.53287e-23
-2.14823e-25
-3.31625e-27
-3.32602e-29
-1.09796e-31
-5.31351e-35
-5.0094e-38
-1.81099e-40
-3.72476e-43
-3.82467e-46
-1.85396e-49
-3.33094e-53
-1.66197e-57
-1.7028e-62
-2.29437e-68
-1.33952e-73
-5.96242e-75
-2.49698e-76
-9.67027e-78
-3.46311e-79
-1.14593e-80
-3.49975e-82
-9.87314e-84
-2.57615e-85
-6.22047e-87
-1.41847e-88
-1.87035e-89
-8.90379e-89
-4.95017e-88
-2.71405e-87
-1.46487e-86
-7.76925e-86
-4.03878e-85
-2.05661e-84
-1.02461e-83
-4.99107e-83
-2.37293e-82
-1.09924e-81
-4.94121e-81
-2.14245e-80
-8.89235e-80
-3.49601e-79
-1.28758e-78
-4.38347e-78
-1.35966e-77
-3.77404e-77
-9.18401e-77
-1.91028e-76
-3.29482e-76
-4.55987e-76
1
0.964958
0.125143
0.939678
1
1
1
0.244368
-1.35049e-21
-1.25943e-21
-3.56557e-23
-2.65131e-25
-3.45159e-27
-3.34767e-29
-1.11479e-31
-5.55369e-35
-2.43709e-38
-8.31422e-41
-1.68411e-43
-1.73152e-46
-8.48202e-50
-1.60216e-53
-8.76381e-58
-1.02953e-62
-1.65567e-68
-6.31494e-74
-2.73968e-75
-1.13452e-76
-4.34781e-78
-1.54188e-79
-5.05942e-81
-1.5348e-82
-4.30419e-84
-1.11741e-85
-2.68593e-87
-5.98057e-89
-1.30441e-90
-4.21093e-91
-2.14349e-90
-1.13695e-89
-5.93284e-89
-3.0349e-88
-1.52145e-87
-7.45966e-87
-3.57303e-86
-1.67091e-85
-7.60446e-85
-3.36323e-84
-1.43903e-83
-5.92163e-83
-2.32665e-82
-8.64158e-82
-3.00122e-81
-9.62987e-81
-2.81423e-80
-7.37312e-80
-1.6985e-79
-3.36204e-79
-5.56501e-79
-7.47673e-79
1
1
-1.69273e-21
0.995303
1
1
1
0.146178
-8.67994e-22
-1.1805e-21
-4.76823e-23
-3.64445e-25
-3.33894e-27
-2.91618e-29
-9.73169e-32
-5.30007e-35
-1.13697e-38
-3.47883e-41
-6.89809e-44
-7.08488e-47
-3.48981e-50
-6.90872e-54
-4.12906e-58
-5.53439e-63
-1.06136e-68
-2.85771e-74
-1.19885e-75
-4.90983e-77
-1.86255e-78
-6.54264e-80
-2.12815e-81
-6.40681e-83
-1.78472e-84
-4.60473e-86
-1.10092e-87
-2.43836e-89
-5.00063e-91
-1.06551e-92
-6.44722e-93
-3.22924e-92
-1.63008e-91
-8.06511e-91
-3.90858e-90
-1.84947e-89
-8.54194e-89
-3.83999e-88
-1.67855e-87
-7.1059e-87
-2.9045e-86
-1.13833e-85
-4.25152e-85
-1.49819e-84
-4.93555e-84
-1.50107e-83
-4.16349e-83
-1.03663e-82
-2.27824e-82
-4.32376e-82
-6.91433e-82
-9.07277e-82
0.181472
0.16106
5.28996e-19
1
1
1
1
0.053879
-9.80629e-22
-1.03656e-21
-5.90332e-23
-5.54075e-25
-3.35202e-27
-2.25415e-29
-7.25865e-32
-4.45442e-35
-5.42856e-39
-1.33215e-41
-2.57052e-44
-2.63005e-47
-1.29433e-50
-2.66831e-54
-1.73134e-58
-2.63102e-63
-6.00491e-69
-1.23699e-74
-4.96315e-76
-2.00988e-77
-7.54874e-79
-2.62727e-80
-8.47106e-82
-2.52982e-83
-6.99738e-85
-1.79373e-86
-4.26271e-88
-9.38676e-90
-1.91329e-91
-3.6025e-93
-7.56448e-95
-6.73217e-95
-3.24238e-94
-1.55482e-93
-7.29595e-93
-3.34401e-92
-1.49318e-91
-6.48403e-91
-2.72988e-90
-1.11113e-89
-4.35172e-89
-1.63104e-88
-5.81077e-88
-1.95121e-87
-6.12127e-87
-1.77448e-86
-4.69589e-86
-1.11902e-85
-2.36163e-85
-4.32756e-85
-6.73307e-85
-8.67663e-85
7.12983e-08
8.35874e-08
0.604857
1
1
1
1
0.00869219
-1.15309e-21
-9.15795e-22
-7.07217e-23
-8.83862e-25
-4.19341e-27
-1.72638e-29
-4.65641e-32
-3.22964e-35
-2.85536e-39
-4.64203e-42
-8.67891e-45
-8.81556e-48
-4.31662e-51
-9.18555e-55
-6.42781e-59
-1.09972e-63
-2.97826e-69
-5.10408e-75
-1.93517e-76
-7.74454e-78
-2.8786e-79
-9.92347e-81
-3.17122e-82
-9.39238e-84
-2.57762e-85
-6.56106e-87
-1.54895e-88
-3.39026e-90
-6.86849e-92
-1.28473e-93
-2.21369e-95
-4.70359e-97
-5.75205e-97
-2.63548e-96
-1.19375e-95
-5.28664e-95
-2.28185e-94
-9.56408e-94
-3.88185e-93
-1.5188e-92
-5.70448e-92
-2.0462e-91
-6.96189e-91
-2.23016e-90
-6.67046e-90
-1.84523e-89
-4.67092e-89
-1.06765e-88
-2.17111e-88
-3.85812e-88
-5.86178e-88
-7.44122e-88
6.423e-07
8.81901e-08
0.999485
1
1
1
1
1.06272e-19
-1.51157e-21
-8.10549e-22
-7.9094e-23
-1.26645e-24
-6.13567e-27
-1.59137e-29
-2.75281e-32
-2.01016e-35
-1.68411e-39
-1.4686e-42
-2.64527e-45
-2.65485e-48
-1.28904e-51
-2.80221e-55
-2.09886e-59
-4.0119e-64
-1.28396e-69
-1.99264e-75
-7.05979e-77
-2.79024e-78
-1.02598e-79
-3.50282e-81
-1.10911e-82
-3.257e-84
-8.86695e-86
-2.24036e-87
-5.25276e-89
-1.14178e-90
-2.29841e-92
-4.27175e-94
-7.30743e-96
-1.14847e-97
-2.68102e-99
-4.66235e-99
-2.03875e-98
-8.76586e-98
-3.67703e-97
-1.49727e-96
-5.90095e-96
-2.23887e-95
-8.14155e-95
-2.82338e-94
-9.27237e-94
-2.86628e-93
-8.27221e-93
-2.20879e-92
-5.40405e-92
-1.1973e-91
-2.36921e-91
-4.11479e-91
-6.14991e-91
-7.72899e-91
0.371266
0.793266
1
1
1
1
0.89728
-3.85897e-20
-1.21139e-21
-6.95216e-22
-7.56402e-23
-1.38672e-24
-7.69025e-27
-1.66844e-29
-1.77059e-32
-1.07487e-35
-1.01746e-39
-4.17182e-43
-7.22259e-46
-7.13387e-49
-3.43432e-52
-7.54904e-56
-6.00579e-60
-1.273e-64
-4.78316e-70
-7.30124e-76
-2.40264e-77
-9.36689e-79
-3.40284e-80
-1.14873e-81
-3.60093e-83
-1.0472e-84
-2.82619e-86
-7.08078e-88
-1.64733e-89
-3.5547e-91
-7.10556e-93
-1.31179e-94
-2.2286e-96
-3.47198e-98
-4.95104e-100
-1.13381e-101
-2.14718e-101
-9.08025e-101
-3.75967e-100
-1.51363e-99
-5.89788e-99
-2.21431e-98
-7.9601e-98
-2.72966e-97
-8.85934e-97
-2.70506e-96
-7.71166e-96
-2.03496e-95
-4.92136e-95
-1.078e-94
-2.11319e-94
-3.64253e-94
-5.41717e-94
-6.78391e-94
1
1
1
1
1
1
1
1
1
1
1
1
1
1
1
1
1
1
1
1
1
1
1
1
1
1
1
1
1
1
1
1
1
1
1
1
1
1
1
1
1
1
1
1
1
1
1
1
1
1
1
1
1
1
1
1
1
1
1
1
1
1
1
1
1
1
1
1
1
1
1
1
1
1
1
1
1
1
1
1
1
1
1
1
1
1
1
1
1
1
1
1
1
1
1
1
1
1
1
1
1
1
1
1
1
1
1
1
1
1
1
1
1
1
1
1
1
1
1
1
1
1
1
1
1
1
1
1
1
1
1
1
1
1
1
1
1
1
1
1
1
1
1
1
1
1
1
1
1
1
1
1
1
1
1
1
1
1
1
1
1
1
1
1
1
1
1
1
1
1
1
1
1
1
1
1
1
1
1
1
1
1
1
1
1
1
1
1
1
1
1
1
1
1
1
1
1
1
1
1
1
1
1
1
1
1
1
1
1
1
1
1
1
1
1
1
1
1
1
1
1
1
1
1
1
1
1
1
1
1
1
1
1
1
1
1
1
1
1
1
1
1
1
1
1
1
1
1
1
1
1
1
0.999971
0.994848
0.976439
0.940559
0.882643
0.793921
0.65851
0.43408
-3.60035e-34
0.107073
0.100046
0.0902998
0.0789899
0.066276
0.0522352
0.0369599
0.0210398
0.00425628
-9.09606e-23
-1.04663e-22
-1.20656e-22
-1.82072e-22
-2.35797e-22
-2.50441e-22
-2.42212e-22
-2.55354e-22
-4.89931e-23
-5.87898e-23
-3.90314e-34
-1.83909e-35
-3.53763e-36
-3.26121e-35
-1.28502e-33
-6.35778e-32
-3.63755e-30
-2.1711e-28
-9.85372e-27
-1.98205e-25
-4.89839e-24
-1.0147e-23
-1.01068e-23
-7.44468e-24
-5.51572e-24
-4.24604e-24
-2.22603e-24
-4.05098e-25
-3.13698e-26
-4.20716e-27
-2.38195e-34
-2.87e-35
-1.84813e-37
-1.75109e-38
-3.5202e-38
-5.65439e-38
-7.42662e-38
-8.14603e-38
-7.79369e-38
-6.99451e-38
-8.03215e-38
-7.60771e-38
-1.07474e-37
-1.48667e-37
-1.63056e-37
-1.41784e-37
-8.94024e-38
-3.38418e-38
-1.21401e-38
-5.57493e-39
-4.3172e-34
-4.8599e-35
-2.88223e-37
-1.46018e-40
-2.94506e-40
-6.57379e-40
-1.09819e-39
-1.45626e-39
-1.63749e-39
-1.6595e-39
-1.67218e-39
-1.71525e-39
-1.61966e-39
-1.50892e-39
-1.31154e-39
-9.5769e-40
-5.42941e-40
-2.29291e-40
-8.10951e-41
-3.07146e-41
-2.07517e-34
-4.81974e-36
-4.65056e-38
-9.87795e-41
-4.61468e-42
-1.08846e-41
-2.01052e-41
-2.89489e-41
-3.41954e-41
-3.50937e-41
-3.30522e-41
-2.91773e-41
-2.36556e-41
-1.78815e-41
-1.22226e-41
-7.21347e-42
-3.57328e-42
-1.47778e-42
-5.26623e-43
-1.73491e-43
-6.44258e-35
-3.05318e-37
-2.8513e-39
-2.23408e-41
-2.41968e-43
-1.97021e-43
-3.70688e-43
-5.34712e-43
-6.18758e-43
-6.05937e-43
-5.23967e-43
-4.08351e-43
-2.87497e-43
-1.83097e-43
-1.03941e-43
-5.16824e-44
-2.22793e-44
-8.3245e-45
-2.72717e-45
-8.00323e-46
-1.32475e-35
-6.42476e-38
-7.31e-40
-7.03365e-42
-5.29195e-44
-3.57825e-45
-5.93525e-45
-8.17037e-45
-8.88411e-45
-8.07606e-45
-6.37329e-45
-4.44297e-45
-2.74827e-45
-1.5077e-45
-7.29526e-46
-3.09422e-46
-1.14634e-46
-3.71226e-47
-1.05689e-47
-2.67077e-48
-6.45879e-37
-8.86916e-39
-9.2595e-41
-8.04665e-43
-5.03493e-45
-6.94757e-47
-7.26146e-47
-9.22284e-47
-9.20954e-47
-7.68534e-47
-5.53432e-47
-3.46838e-47
-1.89053e-47
-8.95107e-48
-3.67892e-48
-1.31271e-48
-4.07108e-49
-1.10051e-49
-2.60654e-50
-5.44708e-51
-6.68345e-40
-1.7415e-40
-1.81408e-42
-1.37008e-44
-6.9601e-47
-6.49251e-49
-5.79038e-49
-6.64437e-49
-6.03422e-49
-4.6212e-49
-3.04071e-49
-1.70656e-49
-8.10058e-50
-3.24858e-50
-1.10561e-50
-3.21434e-51
-8.03717e-52
-1.74009e-52
-3.28539e-53
-5.45024e-54
-3.48521e-45
-3.69317e-44
-4.88633e-46
-3.41126e-48
-1.43544e-50
-1.7317e-51
-2.3631e-51
-2.42944e-51
-2.0134e-51
-1.42588e-51
-8.55992e-52
-4.23193e-52
-1.69798e-52
-5.54827e-53
-1.49661e-53
-3.38674e-54
-6.52329e-55
-1.08201e-55
-1.56001e-56
-1.97067e-57
-4.91236e-51