/*--------------------------------*- C++ -*----------------------------------*\
| =========                 |                                                 |
| \\      /  F ield         | OpenFOAM: The Open Source CFD Toolbox           |
|  \\    /   O peration     | Version:  v1912                                 |
|   \\  /    A nd           | Website:  www.openfoam.com                      |
|    \\/     M anipulation  |                                                 |
\*---------------------------------------------------------------------------*/
FoamFile
{
    version     2.0;
    format      ascii;
    class       volScalarField;
    location    "54";
    object      epsilon;
}
// * * * * * * * * * * * * * * * * * * * * * * * * * * * * * * * * * * * * * //

dimensions      [0 2 -3 0 0 0 0];


internalField   nonuniform List<scalar> 
20320
(
4.44151e-05
0.000214373
0.000220227
0.000226017
0.000231698
0.000237223
0.000242534
0.00024756
0.000252219
0.000256418
0.000260039
0.000262956
0.000265043
0.000266151
0.000266107
0.000264661
0.000261352
0.000255003
0.000242135
0.000208945
4.40132e-05
4.39292e-05
4.46794e-05
4.64671e-05
4.98101e-05
5.53695e-05
6.39765e-05
7.66991e-05
9.48844e-05
0.000120268
0.000155034
0.000201823
0.000263781
0.000344566
0.000448154
0.000577687
0.000732419
0.000898589
0.00103381
0.00119676
4.44257e-05
4.49224e-05
4.6137e-05
4.81901e-05
5.15203e-05
5.67433e-05
6.47576e-05
7.69044e-05
9.51995e-05
0.000122552
0.000163036
0.000222197
0.000307192
0.000426659
0.000590061
0.000805483
0.00107314
0.00136886
0.00161116
0.00189757
4.50126e-05
4.65175e-05
4.88129e-05
5.1959e-05
5.64251e-05
6.28532e-05
7.21831e-05
8.58356e-05
0.000106006
0.000136127
0.000181434
0.000249495
0.000350605
0.000497697
0.000705436
0.000987446
0.001348
0.0017592
0.00211516
0.00259038
4.57396e-05
4.85851e-05
5.23376e-05
5.6983e-05
6.30135e-05
7.11097e-05
8.22663e-05
9.79816e-05
0.000120576
0.000153737
0.000203327
0.000278412
0.000392183
0.000562022
0.00080784
0.0011479
0.00158914
0.00210122
0.00256529
0.00328678
4.65834e-05
5.11112e-05
5.67273e-05
6.33495e-05
7.14822e-05
8.18335e-05
9.54452e-05
0.00011388
0.000139548
0.00017629
0.000230303
0.000311537
0.000435411
0.000623719
0.000902699
0.0012963
0.00181281
0.00241604
0.00297781
0.00398758
4.75154e-05
5.40377e-05
6.19222e-05
7.10232e-05
8.18452e-05
9.51088e-05
0.000111888
0.000133797
0.000163317
0.000204415
0.000263505
0.000351063
0.000484012
0.000687877
0.000995659
0.00143893
0.00202833
0.00271923
0.00337299
0.00470616
4.85004e-05
5.72812e-05
6.78144e-05
7.99053e-05
9.40513e-05
0.000110968
0.000131741
0.000158015
0.000192328
0.000238759
0.000303902
0.000398602
0.000540822
0.000759026
0.00109266
0.00158234
0.00224335
0.00302187
0.00376677
0.00545631
4.94954e-05
6.07257e-05
7.4226e-05
8.97862e-05
0.000107902
0.000129277
0.000154992
0.000186698
0.000226969
0.000279984
0.000352511
0.00045571
0.000608341
0.000841217
0.00119962
0.00173385
0.00246607
0.00333359
0.00417024
0.00624156
5.04508e-05
6.42168e-05
8.08934e-05
0.000100315
0.000123006
0.000149673
0.000181392
0.000219808
0.000267507
0.000328756
0.000410501
0.000524207
0.000689348
0.000938742
0.00132296
0.00190233
0.00270806
0.00367048
0.00460662
0.00708129
5.1312e-05
6.75645e-05
8.74657e-05
0.000110984
0.000138744
0.000171508
0.000210383
0.000257019
0.000314007
0.000385699
0.000479222
0.000606374
0.000787356
0.00105689
0.00147055
0.00209887
0.0029839
0.00405
0.00509323
0.00799604
5.20243e-05
7.05541e-05
9.35206e-05
0.000121147
0.000154269
0.000193819
0.000241028
0.000297622
0.000366231
0.000451308
0.000560202
0.000705094
0.000907014
0.00120271
0.00165283
0.00233861
0.00331485
0.00450108
0.00566629
0.00902369
5.2539e-05
7.29688e-05
9.86063e-05
0.000130068
0.000168557
0.000215353
0.000271997
0.00034045
0.000423511
0.000525835
0.000655091
0.000823984
0.0010546
0.00138611
0.00188483
0.00264373
0.00373253
0.00506619
0.00637488
0.0102139
5.28201e-05
7.46183e-05
0.000102299
0.000137006
0.000180494
0.000234632
0.000301558
0.000383784
0.000484559
0.000609011
0.000765411
0.000967321
0.0012384
0.00162108
0.00218882
0.00304872
0.00428887
0.00581891
0.00730883
0.0116577
5.28501e-05
7.53697e-05
0.000104274
0.00014133
0.000189023
0.000250094
0.000327672
0.000425308
0.000547251
0.000699671
0.000892079
0.00113968
0.00146881
0.00192708
0.0025983
0.00360905
0.0050727
0.00689179
0.0086323
0.0135147
5.26336e-05
7.51731e-05
0.000104363
0.000142632
0.000193316
0.000260298
0.000348158
0.000462167
0.000608441
0.000795238
0.0010346
0.00134501
0.00175789
0.00233008
0.00316307
0.00441555
0.00624361
0.00854435
0.0106898
0.0161279
5.2196e-05
7.40713e-05
0.000102594
0.000140809
0.000192926
0.000264156
0.000360968
0.000491142
0.00066387
0.000891146
0.00118978
0.0015847
0.00211718
0.00286171
0.00395384
0.00561573
0.00809702
0.0113233
0.0142992
0.0204931
5.15797e-05
7.21922e-05
9.9187e-05
0.000136091
0.000187895
0.000261156
0.00036452
0.000509021
0.000708316
0.000980365
0.00135014
0.00185426
0.00255244
0.0035529
0.00505967
0.00743496
0.0111784
0.0164557
0.0216512
0.0294471
5.08367e-05
6.97246e-05
9.4508e-05
0.000129004
0.000178765
0.000251511
0.000358069
0.000513178
0.000736215
0.00105357
0.0015027
0.00213931
0.00305478
0.00441784
0.00656445
0.0101649
0.0164148
0.0267471
0.0397444
0.0548965
5.00213e-05
6.68845e-05
8.90035e-05
0.00012027
0.00016649
0.000236175
0.000341972
0.000502243
0.000742725
0.00110022
0.00162897
0.00241214
0.00358911
0.00542457
0.00847972
0.0140258
0.0249656
0.0475452
0.0909092
0.17648
1.11883
3.17981
4.80964
6.55828
9.04546
13.0211
18.7885
32.1302
54.6895
86.9698
121.822
157.016
199.357
244.526
286.935
306.712
305.052
274.668
232.434
189.922
154.257
127.855
108.014
94.4296
85.6412
78.2254
72.0344
67.8749
65.4042
63.6823
65.0666
70.5525
70.5856
73.1178
68.7695
62.0475
54.5543
47.0404
40.2827
35.5971
32.2462
30.1804
29.0607
28.1636
27.4945
27.2698
27.6787
28.9205
31.1261
34.8913
39.0339
43.2427
47.0954
53.0865
63.81
92.9538
105.827
116.047
60.7024
32.294
2.32186
1.55
2.06136
2.90557
4.30302
6.75547
11.237
20.1077
35.7087
57.7864
83.3797
111.866
145.816
182.029
213.71
223.706
215.146
183.679
145.591
111.973
86.914
69.313
57.4359
49.2261
43.3585
38.9036
35.5626
33.0941
31.3225
30.305
30.3551
31.696
29.9397
25.346
22.4036
20.2408
18.4477
16.7624
15.0046
13.5622
12.4952
11.6798
11.0715
10.6712
10.4832
10.5186
10.792
11.315
12.1603
13.3518
14.9587
17.0815
20.3047
25.147
34.8109
46.6169
46.736
51.3459
40.4759
25.0724
3.87085
2.17273
2.66277
3.83969
6.10405
10.4024
18.8422
35.441
64.4009
103.727
145.109
193.227
255.49
330.913
397.794
376.293
282.286
197.522
141.497
105.863
82.4489
66.6858
55.7506
47.7301
41.5922
37.2509
34.1023
31.6237
29.6784
28.2955
26.9149
25.0659
23.071
21.0928
19.3599
17.8637
16.5374
15.3327
14.2308
13.2659
12.4787
11.8724
11.4295
11.1457
11.0213
11.0741
11.3211
11.7903
12.5078
13.468
14.6367
16.2399
19.2629
23.8888
27.2759
27.4858
25.4167
26.3508
24.2781
17.1812
5.73513
3.12467
3.83253
5.70621
9.65447
17.5119
33.4561
64.855
118.404
185.848
243.068
311.573
417.559
458.393
359.217
270.674
200.521
150.244
114.92
90.1363
72.6185
59.978
50.6834
43.7141
38.3772
34.287
31.1322
28.6734
26.722
25.1202
23.6727
22.2759
20.9659
19.7592
18.6494
17.6103
16.6312
15.7257
14.9081
14.1849
13.5696
13.0823
12.7274
12.4941
12.3814
12.4089
12.592
12.9541
13.5118
14.2131
14.9156
15.5541
16.2768
17.2641
18.2451
18.6769
18.7236
19.5683
18.7402
15.7848
7.80891
4.32983
5.5046
8.49074
15.1515
28.9017
57.6653
116.323
216.733
327.593
369.09
348.299
304.374
259.125
211.892
168.913
133.705
106.636
86.2963
71.0213
59.468
50.5983
43.7224
38.3412
34.0657
30.6674
28.0041
25.9371
24.3314
23.0793
22.0889
21.2798
20.6034
19.9854
19.3557
18.6846
17.9933
17.3285
16.7212
16.1694
15.6617
15.2239
14.8866
14.6362
14.4643
14.3992
14.4621
14.6712
15.0561
15.5717
16.0477
16.3459
16.553
16.879
17.6028
18.8728
19.7964
19.6772
18.0401
16.6345
9.93901
5.75859
7.71464
12.2989
22.9034
45.7225
95.5605
206.528
420.028
527.17
315.489
230.753
184.212
151.423
125.118
103.352
85.7077
71.8024
60.9438
52.4154
45.6478
40.2067
35.7905
32.1923
29.2592
26.906
25.0968
23.788
22.913
22.4082
22.1996
22.1793
22.2276
22.1869
21.9771
21.607
21.1509
20.683
20.2335
19.7886
19.3115
18.8301
18.4089
18.0293
17.6886
17.439
17.3081
17.3062
17.4931
17.8706
18.2219
18.4534
18.6187
18.8274
19.2059
19.8155
20.2427
20.086
19.6589
19.2473
11.9981
7.35628
10.479
17.2938
33.1872
69.2589
152.452
359.334
886.67
469.269
247.356
162.248
120.044
94.5159
77.2133
64.5971
55.0737
47.8058
42.1899
37.7646
34.21
31.3084
28.9236
26.984
25.4626
24.3688
23.7228
23.5167
23.7089
24.2658
25.0802
25.9835
26.789
27.2335
27.3139
27.1152
26.8132
26.4998
26.1639
25.7451
25.1773
24.5424
23.9429
23.2394
22.5171
21.9869
21.5724
21.247
21.1345
21.2622
21.4923
21.7016
21.9688
22.2963
22.678
23.0954
23.4653
23.7235
23.8553
23.8497
13.9619
9.05079
13.7081
23.7061
46.6025
101.593
236.325
592.136
857.885
370.893
191.379
118.072
82.9097
63.1557
50.922
42.9024
37.4489
33.6273
30.8624
28.7974
27.2313
26.0571
25.2362
24.7634
24.655
24.9882
25.7816
26.9545
28.4525
30.3449
32.3003
34.1528
35.6878
36.2803
36.0767
35.5118
35.0843
34.796
34.502
34.0204
33.1515
32.0252
30.6177
29.3677
28.2465
27.1321
26.3013
25.6761
25.4095
25.4975
25.7242
26.0111
26.4878
27.1367
27.8184
28.5343
29.2671
29.9338
30.4148
30.6164
15.8087
10.789
17.2319
31.6464
64.6791
147.836
365.162
1028.16
646.417
282.195
144.273
86.5629
59.1948
44.6385
36.4044
31.6568
28.893
27.2369
26.2298
25.7006
25.5702
25.828
26.5081
27.6012
29.0342
31.1594
33.7855
36.5588
39.2959
42.381
44.6481
46.0781
45.5755
43.9876
42.2118
40.4957
39.1905
38.3223
37.6471
36.8827
35.7826
34.5597
33.5068
32.222
30.9671
30.1227
29.6003
29.3558
29.5809
30.1235
30.7266
31.2986
32.0435
33.1798
34.5921
35.9588
37.3293
38.6022
39.4533
39.8739
17.4743
12.5875
21.0004
41.2014
89.9055
219.32
584.768
1091.06
455.662
204.862
105.161
62.7253
43.1126
33.6774
29.2681
27.4028
26.8198
26.8755
27.3213
28.1321
29.3389
31.1082
33.5552
36.5431
39.3329
41.5787
43.7729
46.0188
47.7231
48.9547
49.0642
48.0711
46.8625
44.3924
42.305
40.5151
38.9166
37.6503
36.6467
35.7285
34.7618
33.9885
33.4256
32.6443
31.9602
31.7524
31.8762
32.3136
33.1681
34.2659
35.3702
36.4165
37.5731
39.1427
41.41
44.2745
46.8892
48.9841
49.8731
48.9933
19.4516
14.5894
25.3363
53.1377
125.7
333.982
995.064
700.116
302.252
139.864
73.1422
44.7184
32.752
28.4944
27.7539
28.4705
29.2836
29.6919
30.2386
30.8235
31.8246
33.2468
35.2936
37.8714
40.2308
42.5402
44.7329
45.7939
46.0555
46.6093
46.0327
44.421
42.8679
40.569
38.5777
37.031
35.6674
34.5017
33.5616
32.8148
32.2504
31.9992
31.9394
31.8148
31.8494
32.2736
33.0059
34.0332
35.373
36.8741
38.3581
39.7762
41.2307
42.9271
45.068
47.5283
49.9684
51.3856
51.0989
49.4878
22.9555
17.1922
31.1735
69.7524
177.576
516.756
951.271
415.804
186.669
89.6772
48.8523
32.5522
27.8272
28.4764
30.684
31.57
31.7244
31.425
31.1219
30.9963
31.5153
32.5516
33.9485
35.5639
36.9602
38.6353
40.4474
41.0179
40.66
40.4742
39.6163
38.0805
36.5325
34.6542
33.023
31.8485
30.9138
30.133
29.5391
29.1735
29.0741
29.277
29.6559
30.0811
30.675
31.5559
32.6905
34.0607
35.6382
37.2993
38.9073
40.4081
41.835
43.2858
44.8447
46.4239
47.7025
47.8919
46.7727
45.0202
28.4725
21.1864
40.366
95.5444
253.911
833.993
500.632
233.535
109.874
55.2491
32.8301
26.4545
28.0869
32.494
34.1269
34.0073
32.8108
31.4158
30.1273
29.2916
29.1753
29.6825
30.5286
31.4498
32.1625
33.0592
34.074
34.2276
33.6384
33.0134
32.0525
30.7671
29.4655
28.0871
26.9464
26.1991
25.7037
25.3584
25.178
25.2127
25.497
26.0242
26.7064
27.4797
28.3994
29.5188
30.8228
32.2861
33.8603
35.4432
36.9259
38.2458
39.3939
40.4116
41.3429
42.1176
42.4527
41.934
40.6628
39.1678
35.3066
27.429
55.7676
135.582
347.589
534.955
273.76
132.276
64.259
34.1961
24.453
25.9014
32.7107
37.024
36.6619
34.3012
31.3712
28.871
26.9474
25.7162
25.2198
25.307
25.7088
26.1522
26.4296
26.7391
27.0411
26.8284
26.1547
25.3927
24.5003
23.5201
22.5811
21.7067
21.06
20.7173
20.5916
20.6082
20.7689
21.1065
21.6389
22.3495
23.1865
24.117
25.1591
26.3305
27.6175
28.99
30.3947
31.7486
32.9659
33.9884
34.7997
35.4315
35.9234
36.2222
36.1357
35.5106
34.518
33.4826
42.6175
35.8355
79.466
195.657
492.177
339.441
163.37
78.4186
38.3688
22.9146
22.2193
29.8424
38.6387
39.1363
35.6637
31.2664
27.2728
24.2437
22.1326
20.8281
20.2086
20.0702
20.1716
20.288
20.276
20.2068
20.0565
19.6293
18.9786
18.2883
17.5961
16.9463
16.3916
15.961
15.7251
15.7058
15.8517
16.1185
16.5029
17.0197
17.6746
18.4536
19.328
20.2783
21.3045
22.4056
23.5656
24.7535
25.9221
27.0083
27.9504
28.7082
29.2778
29.6955
29.9991
30.1525
30.0482
29.6463
29.0735
28.5041
48.1277
43.9085
107.269
263.493
552.345
230.459
104.943
48.7577
24.1057
18.3284
24.4468
36.7369
41.7353
38.0978
31.9833
26.2073
21.7513
18.6698
16.6729
15.4826
14.8769
14.6343
14.5473
14.4499
14.2541
13.9817
13.6328
13.168
12.641
12.1438
11.7173
11.3879
11.1729
11.0844
11.1428
11.3459
11.6654
12.0779
12.5792
13.1735
13.8605
14.6309
15.4685
16.3597
17.2969
18.2715
19.2666
20.2559
21.2037
22.0671
22.8085
23.4084
23.8756
24.2454
24.5455
24.7514
24.8057
24.7006
24.5056
24.3041
49.1495
47.8172
124.417
310.726
431.389
163.053
71.8706
31.8846
16.7848
18.1054
29.9493
42.8409
41.3047
34.327
26.6749
20.4246
16.0278
13.1881
11.445
10.4292
9.87734
9.5814
9.37871
9.15961
8.87948
8.55271
8.19911
7.83576
7.50436
7.24725
7.08457
7.02306
7.0621
7.20047
7.43824
7.76818
8.17615
8.65093
9.18899
9.7902
10.4528
11.1704
11.9333
12.7311
13.5548
14.3942
15.2351
16.0584
16.8406
17.5567
18.1875
18.7278
19.1906
19.6014
19.9741
20.29
20.5166
20.6504
20.7235
20.7701
43.2744
46.4559
116.05
288.577
303.147
123.046
52.3999
21.8176
13.5942
20.6781
37.696
44.6696
38.2168
29.0468
20.8418
14.8046
10.8472
8.42555
6.9923
6.15633
5.66544
5.34943
5.09668
4.84638
4.58301
4.32246
4.08782
3.90061
3.78069
3.73968
3.77922
3.89534
4.08226
4.33546
4.65168
5.02605
5.45256
5.92651
6.44546
7.00841
7.61338
8.25596
8.92965
9.6268
10.3395
11.0591
11.7756
12.4767
13.1489
13.7793
14.3598
14.8909
15.3824
15.8477
16.2896
16.6928
17.0376
17.3206
17.5551
17.7495
34.8517
40.4308
97.629
237.404
279.659
101.115
39.5195
15.378
12.9255
25.2438
44.4979
43.3291
33.545
23.2861
15.2646
9.87672
6.5846
4.67461
3.57936
2.9309
2.5267
2.2459
2.02395
1.83476
1.67455
1.5525
1.47798
1.45657
1.48971
1.57581
1.71201
1.89535
2.12347
2.39475
2.70797
3.06158
3.45354
3.88201
4.34567
4.84326
5.37288
5.93135
6.51396
7.1151
7.72881
8.34888
8.96867
9.58121
10.1791
10.756
11.3085
11.8373
12.3469
12.8412
13.3168
13.762
14.1645
14.5217
14.8392
15.1118
30.4958
34.4893
81.5877
216.699
231.72
81.9831
29.2243
11.1879
13.8721
31.5939
47.2031
40.1613
28.255
17.7426
10.3875
5.90319
3.39492
2.05594
1.32202
0.899127
0.640986
0.475353
0.367088
0.300292
0.266937
0.262205
0.283048
0.32806
0.397899
0.494227
0.619169
0.774793
0.962784
1.18432
1.44001
1.72983
2.05319
2.40929
2.79706
3.21519
3.66179
4.13417
4.62879
5.14149
5.66795
6.20377
6.74477
7.2866
7.82521
8.3569
8.87937
9.39179
9.89424
10.3852
10.8593
11.3079
11.724
12.1063
12.4579
12.7652
29.9293
32.1822
78.9199
220.092
175.793
64.3998
20.6832
8.71202
15.9687
39.5437
46.5991
35.5913
22.88
12.7904
6.41795
3.02384
1.35815
0.573976
0.221705
0.0751308
0.0229905
0.00795268
0.00405031
0.00345837
0.00461454
0.00802976
0.0155453
0.0302035
0.0555447
0.0958437
0.155496
0.238746
0.349222
0.489723
0.6621
0.867243
1.10535
1.37601
1.67834
2.01097
2.37203
2.75915
3.16943
3.59963
4.04636
4.50639
4.97663
5.45408
5.93578
6.41893
6.90104
7.37979
7.85273
8.31626
8.76507
9.19326
9.59704
9.97686
10.3346
10.6511
30.9327
33.1806
87.7943
254.988
141.606
49.4706
14.0533
7.56851
18.9288
45.2243
44.7001
30.586
17.8232
8.60284
3.5576
1.2506
0.331033
0.0510358
0.00340688
0.000455816
0.0002713
0.000252602
0.000258139
0.000274904
0.000312126
0.00041399
0.000700034
0.00149027
0.00361011
0.0088495
0.0205129
0.0433456
0.0827936
0.144146
0.231799
0.348893
0.49743
0.67831
0.891454
1.13598
1.41038
1.71262
2.04023
2.39049
2.76056
3.1476
3.54898
3.96207
4.38418
4.81262
5.24454
5.67686
6.10618
6.52854
6.9395
7.33518
7.71395
8.07712
8.42568
8.73617
30.9278
35.5283
100.91
276.077
113.676
36.7408
9.37208
7.34011
22.4774
50.6332
40.4778
25.0698
13.1891
5.42982
1.72245
0.3561
0.0283463
0.000620485
0.000177573
0.000163513
0.000163366
0.000163205
0.000163024
0.000162382
0.000162063
0.000165045
0.000173403
0.000197627
0.000278214
0.000531814
0.00129235
0.00346759
0.00915514
0.0221701
0.0477719
0.091663
0.159034
0.253852
0.37858
0.534226
0.720597
0.936623
1.18052
1.45
1.74256
2.05561
2.3865
2.73256
3.09112
3.45938
3.83431
4.21263
4.59087
4.96549
5.3331
5.69121
6.03926
6.37877
6.70912
7.0033
29.3767
36.2077
101.407
218.799
89.1385
26.9178
6.4872
7.64721
26.3626
52.5342
35.8797
19.7225
9.24095
3.20307
0.67948
0.0543874
0.000744633
0.000136326
0.000124375
0.00012208
0.00012087
0.000120213
0.00012027
0.000119999
0.000118184
0.000115263
0.000112533
0.000112293
0.000114944
0.000120282
0.000139687
0.00021386
0.000472249
0.00132506
0.00390914
0.0107567
0.0261623
0.0556272
0.104722
0.17801
0.278533
0.407787
0.565852
0.751674
0.963469
1.19899
1.45574
1.73098
2.0219
2.32562
2.63905
2.95905
3.28245
3.60633
3.92825
4.24668
4.56138
4.87304
5.17858
5.44862
26.3993
35.9346
104.833
188.38
71.6479
19.3384
4.86432
8.21375
30.3625
51.5833
32.791
15.5548
6.3075
1.71831
0.201741
0.00393111
0.000141483
0.000106731
0.000101324
9.78956e-05
9.57807e-05
9.46736e-05
9.39295e-05
9.27486e-05
9.12634e-05
9.04517e-05
9.01674e-05
8.93186e-05
8.71835e-05
8.5179e-05
8.5369e-05
8.72199e-05
9.12316e-05
0.000108161
0.000177449
0.000442876
0.00139207
0.004388
0.0123449
0.0298352
0.0622411
0.114549
0.190544
0.292432
0.420827
0.574974
0.753204
0.953239
1.17239
1.40772
1.65621
1.9149
2.18105
2.4523
2.72697
3.00402
3.28307
3.56327
3.83825
4.07727
21.2893
33.0143
93.4038
169.993
61.4406
14.1933
4.05371
8.86983
34.3194
50.4831
29.7651
12.5616
4.21246
0.823448
0.0422058
0.000357915
0.000101391
9.09628e-05
8.5887e-05
8.25681e-05
8.01819e-05
7.84068e-05
7.70822e-05
7.6009e-05
7.51771e-05
7.45618e-05
7.37946e-05
7.29891e-05
7.25124e-05
7.23467e-05
7.18983e-05
7.08878e-05
7.03238e-05
7.0773e-05
7.17025e-05
7.42758e-05
8.7103e-05
0.000143945
0.000386369
0.00133223
0.0044529
0.0128124
0.0309553
0.0639299
0.116163
0.190729
0.288961
0.410664
0.554399
0.717869
0.898546
1.09342
1.30005
1.51663
1.74187
1.97481
2.21478
2.45901
2.69769
2.89946
20.7495
28.2024
83.9331
176.62
55.8835
11.4081
3.7162
9.50339
38.0861
49.1258
26.0867
10.0833
2.73413
0.351048
0.00648644
0.000132421
9.13457e-05
8.231e-05
7.61912e-05
7.23327e-05
6.97022e-05
6.77401e-05
6.63372e-05
6.5245e-05
6.43113e-05
6.36103e-05
6.31834e-05
6.2983e-05
6.267e-05
6.21071e-05
6.16908e-05
6.1737e-05
6.20473e-05
6.19882e-05
6.15466e-05
6.13731e-05
6.16522e-05
6.21507e-05
6.37482e-05
7.16041e-05
0.000108343
0.00028408
0.00105256
0.0037928
0.0114469
0.0284362
0.0595906
0.108952
0.178919
0.269979
0.38105
0.510168
0.655215
0.814518
0.986919
1.17144
1.36693
1.5687
1.76456
1.92177
22.3601
27.7604
87.7996
203.694
53.1604
9.96391
3.60293
10.0538
41.5128
46.5926
22.343
7.89027
1.70167
0.133673
0.000992882
9.46562e-05
8.15963e-05
7.46638e-05
6.91215e-05
6.51831e-05
6.25546e-05
6.06921e-05
5.92508e-05
5.80302e-05
5.70347e-05
5.64008e-05
5.60786e-05
5.57864e-05
5.53757e-05
5.5101e-05
5.51687e-05
5.53476e-05
5.5358e-05
5.52707e-05
5.53585e-05
5.55867e-05
5.56288e-05
5.55862e-05
5.5718e-05
5.5928e-05
5.61339e-05
5.69446e-05
6.08105e-05
7.85055e-05
0.000171139
0.000657348
0.00270159
0.00913788
0.0245088
0.053787
0.100585
0.166191
0.250095
0.351039
0.46778
0.599093
0.742994
0.894107
1.038
1.13516
19.4914
27.9179
86.7807
207.152
50.3004
9.04714
3.5884
10.4977
44.3692
42.8783
18.7966
5.97006
1.00296
0.0450049
0.000249886
8.34295e-05
7.48228e-05
6.85285e-05
6.37757e-05
6.02484e-05
5.77072e-05
5.58177e-05
5.42608e-05
5.29614e-05
5.2007e-05
5.14115e-05
5.10388e-05
5.0691e-05
5.03999e-05
5.03227e-05
5.0388e-05
5.04399e-05
5.05288e-05
5.07007e-05
5.08728e-05
5.0959e-05
5.10319e-05
5.1216e-05
5.13895e-05
5.14691e-05
5.16052e-05
5.19127e-05
5.21304e-05
5.22531e-05
5.28391e-05
5.48342e-05
6.30076e-05
0.000111692
0.000440766
0.00224538
0.00888609
0.0255117
0.0564066
0.103323
0.166076
0.243473
0.333017
0.428684
0.514431
0.545124
15.9947
25.8258
85.8991
202.114
47.137
8.35998
3.62115
10.8404
46.024
38.6281
15.4653
4.34022
0.552577
0.0130931
0.000125764
7.73204e-05
7.05428e-05
6.4634e-05
6.00112e-05
5.6615e-05
5.41035e-05
5.21885e-05
5.05998e-05
4.93361e-05
4.84451e-05
4.78632e-05
4.74584e-05
4.71058e-05
4.68628e-05
4.67989e-05
4.68311e-05
4.69072e-05
4.70651e-05
4.72565e-05
4.73914e-05
4.74828e-05
4.76322e-05
4.78562e-05
4.80375e-05
4.8147e-05
4.8307e-05
4.85629e-05
4.87804e-05
4.89392e-05
4.92515e-05
4.97542e-05
5.02714e-05
5.11003e-05
5.35191e-05
6.38292e-05
0.000140503
0.000749288
0.00397137
0.0139302
0.0341882
0.0657263
0.10696
0.152654
0.189289
0.182971
14.9243
24.9289
90.3651
175.838
43.4389
7.77013
3.68179
11.1105
46.2037
34.0704
12.4164
3.00685
0.278788
0.0033054
8.92807e-05
7.19246e-05
6.65762e-05
6.14071e-05
5.70447e-05
5.37072e-05
5.12639e-05
4.94207e-05
4.79263e-05
4.67616e-05
4.59156e-05
4.53142e-05
4.48676e-05
4.45129e-05
4.42851e-05
4.4203e-05
4.42152e-05
4.42962e-05
4.44439e-05
4.46051e-05
4.47432e-05
4.48824e-05
4.5057e-05
4.52539e-05
4.54333e-05
4.55902e-05
4.57552e-05
4.59522e-05
4.61639e-05
4.63814e-05
4.66545e-05
4.70241e-05
4.75027e-05
4.81781e-05
4.92385e-05
5.08751e-05
5.37886e-05
6.18289e-05
0.000103478
0.000396015
0.00196876
0.00690825
0.0164514
0.0288004
0.0374803
0.0298619
12.2079
25.6334
104.895
164.39
39.7747
7.18854
3.76589
11.3318
45.7284
29.8988
9.91922
1.97672
0.12461
0.000794406
7.46953e-05
6.71447e-05
6.30384e-05
5.84659e-05
5.4559e-05
5.14846e-05
4.91604e-05
4.73943e-05
4.59945e-05
4.48967e-05
4.40609e-05
4.34349e-05
4.29645e-05
4.26252e-05
4.24177e-05
4.23184e-05
4.22998e-05
4.23516e-05
4.24662e-05
4.26049e-05
4.27422e-05
4.28902e-05
4.30634e-05
4.32469e-05
4.34204e-05
4.35826e-05
4.37458e-05
4.39257e-05
4.41184e-05
4.43245e-05
4.4578e-05
4.49013e-05
4.5314e-05
4.589e-05
4.6741e-05
4.8002e-05
4.9896e-05
5.27695e-05
5.73375e-05
6.57264e-05
8.62791e-05
0.000156545
0.000385681
0.000836782
0.00107819
0.000531583
12.1669
26.5709
124.4
154.055
35.1935
6.54455
3.87926
11.6112
44.3124
26.5949
8.13409
1.24609
0.0472208
0.000242382
6.9245e-05
6.43056e-05
6.05494e-05
5.62711e-05
5.26603e-05
4.98228e-05
4.76198e-05
4.5916e-05
4.45636e-05
4.3494e-05
4.26661e-05
4.20345e-05
4.15613e-05
4.12357e-05
4.1039e-05
4.09301e-05
4.08895e-05
4.09139e-05
4.09957e-05
4.11083e-05
4.12293e-05
4.13617e-05
4.15164e-05
4.16838e-05
4.1847e-05
4.20015e-05
4.21564e-05
4.23227e-05
4.24967e-05
4.26834e-05
4.2911e-05
4.31933e-05
4.35453e-05
4.40283e-05
4.47185e-05
4.57095e-05
4.71447e-05
4.92169e-05
5.22471e-05
5.66618e-05
6.29981e-05
7.18398e-05
8.3366e-05
9.58351e-05
0.000103872
9.94831e-05
20.2911
32.9098
153.284
149.386
30.8301
5.89357
4.03679
12.0036
42.8528
23.8727
6.8546
0.770189
0.0146687
0.000121359
6.69267e-05
6.24599e-05
5.85705e-05
5.44459e-05
5.10192e-05
4.83655e-05
4.63038e-05
4.46996e-05
4.34185e-05
4.23984e-05
4.16058e-05
4.09913e-05
4.0526e-05
4.02018e-05
3.99972e-05
3.98772e-05
3.98233e-05
3.98291e-05
3.9885e-05
3.99723e-05
4.00737e-05
4.01859e-05
4.03156e-05
4.04606e-05
4.06078e-05
4.07488e-05
4.0889e-05
4.10366e-05
4.11904e-05
4.13568e-05
4.15565e-05
4.17985e-05
4.20967e-05
4.24969e-05
4.30519e-05
4.38252e-05
4.49072e-05
4.64162e-05
4.85308e-05
5.14785e-05
5.55205e-05
6.0823e-05
6.72843e-05
7.40372e-05
7.89602e-05
7.78959e-05
43.6174
54.333
206.227
140.788
26.0528
5.22913
4.26275
12.6542
41.942
20.8764
5.59069
0.465222
0.00382456
8.35003e-05
6.40355e-05
6.051e-05
5.65961e-05
5.26528e-05
4.94816e-05
4.70295e-05
4.5107e-05
4.36167e-05
4.24346e-05
4.14936e-05
4.07637e-05
4.01932e-05
3.97555e-05
3.94429e-05
3.92329e-05
3.91021e-05
3.9034e-05
3.90191e-05
3.90497e-05
3.91122e-05
3.91937e-05
3.92872e-05
3.93935e-05
3.95128e-05
3.96369e-05
3.97585e-05
3.98795e-05
4.00041e-05
4.01337e-05
4.02756e-05
4.04442e-05
4.06467e-05
4.08955e-05
4.12197e-05
4.16577e-05
4.22548e-05
4.30647e-05
4.41594e-05
4.56346e-05
4.76105e-05
5.02051e-05
5.34953e-05
5.74315e-05
6.16059e-05
6.51408e-05
6.57072e-05
101.7
123.115
445.616
126.664
20.4035
4.54277
4.5925
13.6495
40.9755
17.2704
4.08543
0.252429
0.000922584
6.9675e-05
6.0961e-05
5.81694e-05
5.46812e-05
5.11586e-05
4.8251e-05
4.59628e-05
4.4156e-05
4.27572e-05
4.16595e-05
4.07886e-05
4.01111e-05
3.95845e-05
3.91808e-05
3.88899e-05
3.86891e-05
3.85569e-05
3.84796e-05
3.84485e-05
3.84571e-05
3.84959e-05
3.85551e-05
3.86278e-05
3.87109e-05
3.88031e-05
3.89001e-05
3.89975e-05
3.90946e-05
3.91934e-05
3.9297e-05
3.94098e-05
3.95415e-05
3.97012e-05
3.98979e-05
4.01503e-05
4.04865e-05
4.0934e-05
4.15286e-05
4.2313e-05
4.33353e-05
4.46563e-05
4.63269e-05
4.83828e-05
5.08165e-05
5.35129e-05
5.63087e-05
5.79844e-05
272.744
350.141
534.843
88.2336
13.2574
3.90514
5.08557
15.0867
38.0466
13.394
2.61376
0.107928
0.000270572
6.46252e-05
5.88079e-05
5.60455e-05
5.28709e-05
4.97437e-05
4.7119e-05
4.50331e-05
4.33857e-05
4.20984e-05
4.10835e-05
4.02775e-05
3.96455e-05
3.91526e-05
3.87741e-05
3.84957e-05
3.83001e-05
3.81684e-05
3.80866e-05
3.80474e-05
3.80426e-05
3.80637e-05
3.81043e-05
3.81583e-05
3.82212e-05
3.82902e-05
3.83625e-05
3.84359e-05
3.85088e-05
3.85827e-05
3.86602e-05
3.87432e-05
3.88386e-05
3.89545e-05
3.90972e-05
3.92803e-05
3.95221e-05
3.98422e-05
4.02637e-05
4.08084e-05
4.15037e-05
4.23763e-05
4.34444e-05
4.47241e-05
4.62349e-05
4.80213e-05
5.03312e-05
5.273e-05
572.231
833.079
309.869
44.4828
7.36661
3.52904
5.83644
17.0303
32.5364
10.4883
1.56416
0.0364026
0.000143952
6.31128e-05
5.73955e-05
5.43426e-05
5.13158e-05
4.8488e-05
4.61157e-05
4.42166e-05
4.27152e-05
4.1538e-05
4.06086e-05
3.98703e-05
3.92891e-05
3.88357e-05
3.84865e-05
3.82245e-05
3.80357e-05
3.79058e-05
3.78214e-05
3.77748e-05
3.77585e-05
3.77661e-05
3.7792e-05
3.78304e-05
3.78771e-05
3.79289e-05
3.7983e-05
3.80374e-05
3.80909e-05
3.81441e-05
3.81983e-05
3.82546e-05
3.83182e-05
3.8395e-05
3.84897e-05
3.86116e-05
3.87726e-05
3.89853e-05
3.92644e-05
3.96244e-05
4.0079e-05
4.06377e-05
4.13068e-05
4.20918e-05
4.302e-05
4.42067e-05
4.61307e-05
4.8964e-05
384.953
522.412
95.0177
14.9483
4.03418
3.55219
7.00398
19.6308
26.9336
8.25762
0.911557
0.0127417
0.000126153
6.34453e-05
5.66817e-05
5.30106e-05
5.00127e-05
4.74265e-05
4.52884e-05
4.35719e-05
4.2204e-05
4.11202e-05
4.02585e-05
3.95727e-05
3.90339e-05
3.86152e-05
3.82929e-05
3.80508e-05
3.78755e-05
3.77521e-05
3.76697e-05
3.762e-05
3.75961e-05
3.75926e-05
3.76045e-05
3.76273e-05
3.76574e-05
3.76921e-05
3.7729e-05
3.77662e-05
3.78025e-05
3.78379e-05
3.78721e-05
3.7906e-05
3.79428e-05
3.79863e-05
3.80404e-05
3.81114e-05
3.82066e-05
3.83343e-05
3.85042e-05
3.87244e-05
3.90017e-05
3.93404e-05
3.97406e-05
4.02019e-05
4.07512e-05
4.1525e-05
4.3114e-05
4.61702e-05
69.0881
68.1479
14.9433
4.57666
2.85957
4.03203
8.84141
23.637
20.7256
5.59548
0.484365
0.00585277
0.000123014
6.3539e-05
5.60896e-05
5.18132e-05
4.86946e-05
4.6243e-05
4.42926e-05
4.27485e-05
4.15292e-05
4.05701e-05
3.98136e-05
3.92174e-05
3.87526e-05
3.83943e-05
3.812e-05
3.7914e-05
3.77644e-05
3.76597e-05
3.75898e-05
3.75467e-05
3.75243e-05
3.75173e-05
3.75212e-05
3.75325e-05
3.75484e-05
3.75666e-05
3.75854e-05
3.76032e-05
3.76192e-05
3.76334e-05
3.76457e-05
3.76567e-05
3.76681e-05
3.76824e-05
3.77022e-05
3.77314e-05
3.77746e-05
3.78372e-05
3.79245e-05
3.80415e-05
3.8192e-05
3.83774e-05
3.8596e-05
3.88465e-05
3.91508e-05
3.96371e-05
4.09299e-05
4.40566e-05
4.91833e-05
6.38826e-05
8.31236e-05
0.000110671
0.000152262
0.00021669
0.000317736
0.000476644
0.000725108
0.0011109
0.0017077
0.00263263
0.00408708
0.00646324
0.0106351
0.0187934
0.0369426
0.0828212
0.21894
0.959705
4.83407e-05
6.08679e-05
7.71923e-05
0.000100805
0.000137081
0.000194563
0.000287279
0.000438061
0.00068299
0.00107941
0.0017199
0.00275724
0.00445988
0.00735645
0.0126477
0.0234798
0.0490876
0.118007
0.321449
1.26028
4.75206e-05
5.79095e-05
7.13925e-05
9.10777e-05
0.000121747
0.000171212
0.000252802
0.000389258
0.00061842
0.00100345
0.00165097
0.00274308
0.00460484
0.00787238
0.0139642
0.0265146
0.0557795
0.130439
0.325538
0.812677
4.67511e-05
5.51194e-05
6.59592e-05
8.19435e-05
0.000107139
0.000148288
0.000217231
0.000334927
0.000537753
0.00088906
0.00150004
0.0025666
0.00444225
0.00780639
0.0141056
0.0268074
0.0549015
0.120876
0.270932
0.573063
4.60537e-05
5.25827e-05
6.10661e-05
7.37379e-05
9.39238e-05
0.000127155
0.000183306
0.000280297
0.000450183
0.000750591
0.00128586
0.00224455
0.00396996
0.00710859
0.0129625
0.0243961
0.0481093
0.0990524
0.203869
0.399829
4.54426e-05
5.03533e-05
5.68132e-05
6.66509e-05
8.25038e-05
0.000108721
0.000153094
0.000229938
0.000365267
0.000606729
0.00104224
0.00183336
0.00327603
0.00591838
0.0108091
0.020061
0.0380985
0.0738027
0.14197
0.26033
4.49256e-05
4.8457e-05
5.32363e-05
6.07403e-05
7.30205e-05
9.33915e-05
0.000127743
0.000186871
0.000290434
0.000474561
0.000806137
0.00140836
0.00250641
0.00451081
0.00817511
0.0149062
0.0273623
0.0503724
0.0914544
0.158929
4.4505e-05
4.68977e-05
5.03232e-05
5.59679e-05
6.54174e-05
8.11568e-05
0.000107512
0.000152298
0.000229578
0.000364911
0.000604946
0.00103416
0.00180393
0.00318317
0.00564672
0.0100286
0.0177762
0.0312861
0.0540343
0.0897944
4.41795e-05
4.56633e-05
4.80284e-05
5.22326e-05
5.95128e-05
7.17299e-05
9.20239e-05
0.000125928
0.000183185
0.0002811
0.000450364
0.000744508
0.00125514
0.00213671
0.00364675
0.00621017
0.010513
0.0176045
0.0289018
0.0458804
4.39457e-05
4.47301e-05
4.62838e-05
4.94008e-05
5.50695e-05
6.46956e-05
8.05716e-05
0.000106607
0.000149497
0.000220826
0.000340462
0.000541417
0.000876168
0.00142499
0.00230801
0.00370541
0.00588587
0.00923049
0.0142128
0.0212594
4.37995e-05
4.40565e-05
4.49797e-05
4.72744e-05
5.17499e-05
5.94809e-05
7.21788e-05
9.26412e-05
0.000125508
0.000178639
0.000265267
0.000406847
0.000634562
0.0009889
0.00151763
0.00228196
0.00336761
0.00489496
0.00701333
0.00981809
4.39158e-05
4.36159e-05
4.41982e-05
4.6158e-05
5.01442e-05
5.69789e-05
6.79429e-05
8.49872e-05
0.000111217
0.000151878
0.000216184
0.00032094
0.000490822