/*--------------------------------*- C++ -*----------------------------------*\
| =========                 |                                                 |
| \\      /  F ield         | OpenFOAM: The Open Source CFD Toolbox           |
|  \\    /   O peration     | Version:  v1912                                 |
|   \\  /    A nd           | Website:  www.openfoam.com                      |
|    \\/     M anipulation  |                                                 |
\*---------------------------------------------------------------------------*/
FoamFile
{
    version     2.0;
    format      ascii;
    class       volScalarField;
    location    "54";
    object      k;
}
// * * * * * * * * * * * * * * * * * * * * * * * * * * * * * * * * * * * * * //

dimensions      [0 2 -2 0 0 0 0];


internalField   nonuniform List<scalar> 
20320
(
0.00413934
0.00425436
0.00433146
0.00440705
0.00448059
0.00455154
0.00461923
0.00468282
0.00474139
0.00479387
0.0048389
0.00487502
0.00490078
0.00491443
0.00491389
0.00489607
0.00485517
0.00477622
0.00461417
0.00418226
0.00415079
0.00414937
0.004195
0.00429235
0.00446141
0.0047227
0.00509487
0.00559469
0.00623561
0.00703047
0.00799112
0.00912602
0.0104405
0.0119359
0.0136053
0.015412
0.0172482
0.0188186
0.0194419
0.0179458
0.00417751
0.00421749
0.00430407
0.00444409
0.00466271
0.00499156
0.00547048
0.00614875
0.00708527
0.00834207
0.00997649
0.0120333
0.0145328
0.0174578
0.020739
0.0242284
0.0276315
0.0303475
0.031066
0.0273376
0.00421526
0.00432032
0.00447508
0.00468164
0.00496604
0.00536093
0.00590963
0.00667034
0.00772112
0.00916442
0.0111231
0.0137219
0.0170554
0.0211461
0.0259013
0.0310688
0.0361569
0.0402338
0.0413525
0.0357669
0.00426157
0.0044515
0.00469516
0.00498894
0.00535853
0.00583666
0.00646721
0.00731022
0.00844916
0.0100011
0.0121245
0.0150149
0.0188718
0.0238242
0.0298252
0.0365498
0.0432989
0.0487899
0.0504523
0.0434505
0.00431474
0.00460865
0.00496166
0.00536488
0.00584287
0.00642747
0.00716208
0.00810652
0.00934496
0.0109987
0.0132405
0.0163059
0.0204807
0.026027
0.0330199
0.0411381
0.0494844
0.0563708
0.0585823
0.0505065
0.00437275
0.00478663
0.00526716
0.00580049
0.00640929
0.00712367
0.00798561
0.00905378
0.0104115
0.0121809
0.0145402
0.0177443
0.0221354
0.0280931
0.0358523
0.0451793
0.0550369
0.0633009
0.0660549
0.0571546
0.00443323
0.00497913
0.00560201
0.00628392
0.00704514
0.00791314
0.00892751
0.0101447
0.0116461
0.0135535
0.0160468
0.0193903
0.0239606
0.0302281
0.0385878
0.0489521
0.0602201
0.0698388
0.0731381
0.0635966
0.0044935
0.0051784
0.00595377
0.00679905
0.00773218
0.00877748
0.00997127
0.0113666
0.013042
0.0151176
0.0177733
0.0212781
0.0260298
0.0325655
0.0414241
0.0526922
0.0652724
0.0762099
0.0800389
0.0699389
0.00455058
0.0053753
0.00630705
0.00732515
0.00844609
0.00969123
0.0110932
0.0127008
0.014588
0.0168724
0.0197325
0.023439
0.0284033
0.0352125
0.0445293
0.0566233
0.0704566
0.0827166
0.0871026
0.07637
0.00460139
0.00555961
0.00664397
0.00783727
0.00915652
0.0106214
0.0122614
0.0141204
0.016267
0.0188143
0.0219381
0.0259088
0.0311469
0.038278
0.0480715
0.0609781
0.0760553
0.0896591
0.0945932
0.0831191
0.00464295
0.00572066
0.00694523
0.00830745
0.00982822
0.0115283
0.0134355
0.01559
0.0180541
0.0209351
0.0244047
0.0287308
0.0343402
0.0418907
0.0522455
0.066032
0.0824287
0.0974775
0.102986
0.0904966
0.00467272
0.00584837
0.00719188
0.0087071
0.0104233
0.0123667
0.0145676
0.0170645
0.0199147
0.0232195
0.0271452
0.0319566
0.0380848
0.046217
0.0573044
0.0721474
0.0900608
0.106761
0.112882
0.0989084
0.00468888
0.00593437
0.0073673
0.00900962
0.0109044
0.0130892
0.0156027
0.0184878
0.0218005
0.0256385
0.0301644
0.0356402
0.0425033
0.0514731
0.0635919
0.0798396
0.0996793
0.118453
0.125299
0.109034
0.00469059
0.0059731
0.00745942
0.00919372
0.0112381
0.0136489
0.0164817
0.0197929
0.0236461
0.0281425
0.0334474
0.0398269
0.0477332
0.0579318
0.0715787
0.0898649
0.112426
0.134119
0.141966
0.122013
0.00467812
0.00596266
0.00746254
0.00924643
0.0114
0.0140053
0.0171455
0.0209038
0.0253658
0.0306512
0.036944
0.0445318
0.0539049
0.0659131
0.0818907
0.103338
0.13016
0.156556
0.166224
0.140125
0.00465283
0.00590517
0.00737824
0.00916516
0.0113774
0.014129
0.017541
0.0217396
0.0268533
0.0330452
0.0405465
0.049703
0.061093
0.0757334
0.0952913
0.121846
0.155918
0.190996
0.205179
0.16938
0.00461697
0.00580644
0.00721533
0.00895849
0.0111728
0.0140068
0.0176284
0.0222226
0.0279864
0.0351596
0.0440659
0.0551698
0.0692266
0.087576
0.112532
0.147399
0.194449
0.247421
0.275035
0.22494
0.00457334
0.00567511
0.0069885
0.00864513
0.0108034
0.0136455
0.0173893
0.0222913
0.0286406
0.0367928
0.0472208
0.0605921
0.0779707
0.10126
0.133951
0.181874
0.252057
0.343899
0.416339
0.357449
0.00452494
0.00552141
0.00671619
0.00825127
0.0103001
0.0130725
0.0168335
0.021914
0.0287118
0.0377311
0.0496517
0.0654361
0.0866084
0.11592
0.158722
0.225315
0.33326
0.503369
0.714626
0.776062
0.732216
1.02046
1.34449
1.65304
2.04805
2.61142
3.33462
4.76911
6.80407
9.27799
11.6086
13.7321
16.0786
18.4111
20.4996
21.4417
21.3902
19.9732
17.884
15.6381
13.6063
11.9994
10.7145
9.78386
9.16189
8.62603
8.16094
7.83753
7.64417
7.50451
7.59421
8.0122
8.01803
8.23157
7.92479
7.4097
6.80685
6.17342
5.56565
5.11852
4.78963
4.57464
4.45933
4.36662
4.29555
4.26851
4.30605
4.42781
4.64329
5.00226
5.39385
5.78284
6.11829
6.60187
7.41827
9.46031
10.4501
11.3446
7.55387
4.84331
1.19528
2.73919
3.7029
4.67741
5.9366
7.75898
10.5089
14.9685
21.3664
28.8194
35.9616
42.811
50.2422
57.6387
63.7502
65.4541
63.5055
56.7715
48.3531
40.5001
34.245
29.56
26.1833
23.73
21.9249
20.4503
19.2782
18.3956
17.7435
17.305
17.2512
17.6997
17.0694
15.4321
14.2152
13.1007
12.0348
11.1008
10.4372
9.89135
9.4385
9.12316
8.8717
8.6764
8.54252
8.50425
8.60407
8.88717
9.35394
10.0108
10.7059
11.3029
11.9178
12.807
13.9345
15.3109
13.498
11.5341
8.58761
8.21239
1.68566
3.89093
5.16005
6.58571
8.57244
11.5461
16.2067
23.5564
33.9593
45.6915
55.9803
66.0013
77.6324
90.5581
101.214
97.625
81.8262
65.7628
53.7141
45.1381
38.9177
34.3765
30.9846
28.323
26.1761
24.5661
23.3186
22.2925
21.4754
20.8977
20.3691
19.6976
18.9465
18.1112
17.2354
16.3236
15.4252
14.6255
13.9683
13.423
12.9787
12.6423
12.3913
12.2087
12.0922
12.0749
12.1966
12.4988
12.9907
13.6133
14.1666
14.529
14.9747
15.6413
15.3305
13.8173
11.4401
10.026
9.48322
9.65187
2.19705
5.20812
6.80129
8.7434
11.701
16.2971
23.6495
35.1318
50.9273
67.623
79.6515
91.1525
106.832
112.112
96.6894
81.5729
68.1856
57.5142
49.2422
42.9148
38.0766
34.3227
31.3677
29.0016
27.0872
25.551
24.3059
23.3028
22.5138
21.909
21.4251
21.0171
20.6384
20.214
19.6916
19.0665
18.3962
17.7683
17.234
16.7846
16.4046
16.1058
15.8896
15.7328
15.6263
15.6032
15.7
15.9542
16.3883
16.9197
17.3049
17.2958
16.8759
16.2362
15.4101
14.3007
13.1431
12.9986
13.4693
13.9452
2.70623
6.66703
8.73134
11.337
15.6016
22.4588
33.623
51.2946
75.2295
97.7371
105.186
100.128
90.8055
81.4171
71.6505
62.3845
54.2954
47.6492
42.3312
38.103
34.7316
32.007
29.7906
27.9755
26.4786
25.2648
24.312
23.5971
23.0997
22.8077
22.6933
22.7008
22.7484
22.7204
22.5392
22.2
21.7677
21.3327
20.9504
20.6173
20.3058
20.0333
19.8291
19.6684
19.5317
19.4565
19.4822
19.6365
19.9635
20.4083
20.7343
20.6821
20.2363
19.5707
18.9497
18.6664
18.5526
18.6048
18.6264
19.135
3.18732
8.21467
10.9513
14.4126
20.3513
30.2404
46.708
74.1574
113.967
132.489
97.2796
80.0123
68.9429
60.4838
53.4692
47.5258
42.5703
38.5424
35.2997
32.683
30.5612
28.8276
27.4105
26.2628
25.3549
24.6837
24.2587
24.0795
24.1305
24.4003
24.8504
25.3916
25.9112
26.2597
26.373
26.276
26.0581
25.8099
25.5749
25.3441
25.0771
24.7938
24.5511
24.3207
24.0873
23.9027
23.8086
23.819
24.0009
24.3623
24.6537
24.6969
24.4766
24.0981
23.7222
23.5451
23.5912
23.7782
24.2257
24.8446
3.62454
9.7792
13.4221
18.0024
25.9483
39.7155
63.2953
105.448
180.581
123.656
84.1865
65.3471
54.2896
46.77
41.3097
37.1832
34.0121
31.5711
29.6812
28.2044
27.0513
26.164
25.512
25.0846
24.8856
24.9337
25.2429
25.801
26.5759
27.5536
28.6587
29.7646
30.7321
31.3646
31.6695
31.7222
31.6679
31.5902
31.493
31.3342
31.0572
30.7221
30.4102
30.002
29.5442
29.2044
28.944
28.7441
28.7178
28.9013
29.1385
29.2638
29.3046
29.2855
29.2681
29.3443
29.6028
30.0781
30.6932
31.3099
4.02242
11.2931
16.0378
22.1221
32.4305
50.9478
83.7302
144.42
181.117
107.295
71.8848
54.0106
43.9369
37.5922
33.3784
30.5227
28.5753
27.2417
26.3274
25.7162
25.3543
25.2238
25.3325
25.6879
26.2967
27.2045
28.4016
29.8055
31.3663
33.1324
34.877
36.4953
37.8524
38.545
38.6854
38.567
38.5105
38.5296
38.5382
38.4179
38.0266
37.4523
36.6826
35.9859
35.3287
34.6385
34.1365
33.7625
33.6581
33.8373
34.0996
34.3381
34.6413
35.0227
35.4263
35.9226
36.568
37.3321
38.0992
38.7459
4.38287
12.7306
18.6599
26.6646
39.9972
64.4274
109.42
200.968
151.32
90.2333
60.0385
44.5451
36.0905
31.2031
28.3559
26.771
25.9643
25.6127
25.5492
25.7353
26.1689
26.8762
27.8896
29.1895
30.7079
32.6636
34.9035
37.1793
39.366
41.7251
43.5624
44.8765
45.0413
44.4733
43.7132
42.9437
42.4047
42.1268
41.9588
41.7159
41.2234
40.6222
40.1379
39.4562
38.7359
38.2739
38.0306
37.9716
38.2669
38.807
39.3687
39.848
40.3968
41.2005
42.2144
43.2565
44.3973
45.5872
46.5885
47.3822
4.70037
14.0928
21.2284
31.4901
48.9346
81.4842
144.207
209.373
120.667
73.2277
48.8641
36.4053
30.0608
27.0099
25.806
25.6182
25.9678
26.5942
27.4093
28.4232
29.7044
31.3628
33.4494
35.8463
38.098
40.058
42.0155
43.9445
45.4867
46.7371
47.3303
47.22
46.9228
45.7846
44.8118
43.9776
43.2442
42.721
42.3617
42.0402
41.6538
41.379
41.2525
40.9314
40.6307
40.6596
40.9229
41.4064
42.2038
43.1786
44.1254
44.9741
45.8487
46.9863
48.6138
50.6819
52.6561
54.3972
55.4619
55.5073
5.06673
15.4369
23.8655
36.7173
59.6187
104.01
196.047
157.186
92.6118
57.1481
38.7231
29.7172
25.9652
25.1317
25.7368
26.9472
28.1106
28.9873
29.9232
30.8665
32.0817
33.586
35.4946
37.713
39.7592
41.7369
43.6351
44.8355
45.5018
46.2974
46.3953
45.8075
45.2097
44.0819
43.1039
42.3808
41.7611
41.2755
40.9441
40.7355
40.6352
40.751
41.0045
41.178
41.4366
41.9784
42.7446
43.7224
44.9289
46.2389
47.4973
48.653
49.7847
51.0624
52.6639
54.5335
56.4839
57.8775
58.2553
57.8567
5.68118
17.0349
26.9436
42.9036
72.7416
134.108
190.566
113.299
68.1943
43.0651
30.2777
25.0025
24.2074
25.747
27.9014
29.1966
30.0009
30.4875
30.9449
31.4923
32.4441
33.7275
35.2443
36.8913
38.374
39.982
41.6342
42.4719
42.6754
42.9503
42.7734
42.1094
41.4064
40.4463
39.6256
39.1034
38.7432
38.4988
38.3957
38.459
38.7154
39.2016
39.8205
40.4527
41.1936
42.1485
43.2906
44.6008
46.0545
47.5459
48.9566
50.2387
51.4259
52.6147
53.9043
55.2757
56.5575
57.2101
57.042
56.4851
6.58222
19.3797
31.1172
51.049
89.1663
177.86
128.895
79.4416
48.9183
31.921
24.2079
22.7456
24.9432
28.4042
30.2072
30.9277
30.9499
30.7704
30.5985
30.6725
31.1961
32.1232
33.2606
34.4272
35.4301
36.5146
37.637
38.141
38.0965
37.9981
37.6491
37.0398
36.4014
35.6908
35.1434
34.8902
34.8368
34.9114
35.1246
35.5131
36.1047
36.897
37.8125
38.786
39.8615
41.0872
42.4484
43.9196
45.458
46.9748
48.3765
49.6143
50.6932
51.6689
52.6097
53.5083
54.1975
54.3594
54.0195
53.518
7.62369
22.7449
37.1827
62.1302
107.399
137.497
89.8484
56.0238
34.9983
24.0377
20.8713
23.0207
27.8477
31.204
31.9157
31.3517
30.2864
29.3363
28.6508
28.3589
28.534
29.1003
29.8686
30.6402
31.2662
31.8817
32.4611
32.6325
32.4272
32.1352
31.733
31.248
30.7918
30.3867
30.17
30.2178
30.4661
30.8513
31.371
32.0506
32.9046
33.9166
35.034
36.2185
37.4834
38.8447
40.288
41.7843
43.2852
44.7177
46.0084
47.1136
48.032
48.809
49.5045
50.1119
50.5024
50.5324
50.2943
49.9921
8.6698
26.8236
45.461
77.102
132.979
105.349
65.98
40.5421
25.4557
19.2483
20.1701
25.486
31.3111
32.6515
31.608
29.7249
27.8033
26.2928
25.274
24.7513
24.6906
24.972
25.4182
25.8537
26.1656
26.4077
26.5652
26.4786
26.1869
25.8532
25.5174
25.2203
25.0172
24.9379
25.052
25.3879
25.9005
26.5436
27.3082
28.2046
29.2353
30.3827
31.6126
32.9
34.2422
35.6375
37.0693
38.5075
39.9078
41.2127
42.3684
43.3448
44.1484
44.8252
45.4282
45.9497
46.3057
46.4409
46.4305
46.3727
9.43032
30.5252
54.5705
93.6731
145.43
84.8359
50.8072
30.1492
19.2032
17.1368
21.638
29.3776
33.2344
32.3329
29.5986
26.58
24.0176
22.1478
20.933
20.2697
20.0418
20.0985
20.2744
20.4272
20.479
20.4487
20.3402
20.1175
19.8316
19.5785
19.4058
19.3457
19.4217
19.6489
20.0512
20.6285
21.3489
22.1813
23.115
24.15
25.2819
26.4962
27.7705
29.0861
30.4333
31.8023
33.1752
34.5249
35.816
37.0071
38.0638
38.9721
39.7478
40.4342
41.071
41.6484
42.1129
42.4402
42.6696
42.8328
9.5931
32.5633
60.8285
105.51
130.402
70.3833
40.4725
22.8956
15.4366
17.1393
24.7642
32.7688
33.2915
30.3657
26.3366
22.5444
19.5648
17.4798
16.1467
15.3809
15.0119
14.8755
14.8248
14.7528
14.6134
14.422
14.2027
13.9769
13.7954
13.7138
13.7621
13.9532
14.2891
14.7683
15.3898
16.1427
17.005
17.9569
18.9885
20.0948
21.2697
22.5013
23.7742
25.0738
26.3881
27.7048
29.0077
30.2753
31.4823
32.6026
33.6178
34.5256
35.3452
36.11
36.8428
37.5308
38.1375
38.6463
39.0702
39.4032
8.84144
32.3391
60.0639
105.217
108.194
59.8114
32.8042
17.6208
13.5752
18.6629
28.9459
34.0055
31.8413
27.2741
22.344
18.1077
14.9269
12.7504
11.3557
10.5075
10.0124
9.71203
9.48737
9.26757
9.03309
8.80553
8.61926
8.5087
8.50777
8.63927
8.90986
9.31542
9.84657
10.494
11.2495
12.1015
13.0361
14.0413
15.1086
16.2324
17.406
18.6199
19.8628
21.1227
22.3883
23.648
24.8888
26.0956
27.2519
28.3431
29.3612
30.3092
31.2025
32.061
32.893
33.6834
34.4062
35.0477
35.6069
36.0569
7.68229
29.8668
54.8238
94.7867
102.914
52.0988
26.5218
13.7522
13.1559
21.2581
32.537
33.6027
29.324
23.5426
18.0556
13.6429
10.453
8.30777
6.92454
6.03684
5.45966
5.0575
4.74643
4.48932
4.28298
4.14761
4.10619
4.17563
4.36372
4.67008
5.08926
5.6136
6.23516
6.94667
7.74137
8.61167
9.54918
10.5461
11.596
12.6929
13.8303
15.0006
16.1943
17.4016
18.6127
19.8181
21.0078
22.172
23.3007
24.3858
25.4241
26.4183
27.3769
28.308
29.2099
30.0681
30.8641
31.5875
32.2314
32.7562
7.05782
26.9992
49.1833
88.175
89.2817
44.3655
20.9136
11.0666
13.7537
24.6799
34.1286
32.1155
26.1841
19.5544
13.7899
9.43158
6.42388
4.47795
3.2305
2.41987
1.87957
1.51132
1.2626
1.11158
1.05091
1.0767
1.18473
1.3707
1.63452
1.97745
2.40108
2.90619
3.4921
4.15669
4.89637
5.70634
6.58081
7.51391
8.49954
9.53166
10.6036
11.7081
12.8368
13.9814
15.1333
16.2848
17.4285
18.5572
19.6647
20.7457
21.7978
22.8209
23.8171
24.7862
25.7219
26.6119
27.4441
28.2111
28.9041
29.474
6.99855
25.557
47.2438
87.5853
73.6203
36.8793
15.9635
9.43944
15.0604
28.7197
34.0698
29.7229
22.6925
15.5653
9.77301
5.75161
3.18814
1.64348
0.770213
0.319369
0.122906
0.0558986
0.0362792
0.0333448
0.0411654
0.0637758
0.11138
0.197681
0.334452
0.533436
0.804067
1.15351
1.5858
2.10203
2.7005
3.37731
4.12737
4.94463
5.82258
6.75416
7.73201
8.74841
9.7953
10.8647
11.9488
13.0406
14.1338
15.2227
16.3018
17.3666
18.4135
19.4398
20.4428
21.4179
22.358
23.2536
24.0971
24.8839
25.6038
26.1991
7.18241
25.612
48.8307
92.7228
62.9463
30.1219
11.8762
8.69477
16.8448
31.5074
33.2783
26.8597
19.0773
11.7441
6.3175
2.91094
1.02597
0.218303
0.0290184
0.0144762
0.0136403
0.0134467
0.0131968
0.0127816
0.0122085
0.0119361
0.0130516
0.017995
0.0325121
0.0677566
0.141223
0.272871
0.479695
0.773004
1.15789
1.63437
2.19933
2.84727
3.57103
4.3625
5.21311
6.11416
7.05684
8.03268
9.03374
10.0526
11.0829
12.1187
13.1543
14.1846
15.2046
16.2093
17.1938
18.152
19.0771
19.9626
20.8038
21.5971
22.3303
22.9372
7.20786
26.2327
51.5304
93.9834
53.7838
23.9627
8.79097
8.58238
18.887
34.0476
31.277
23.4909
15.4227
8.37519
3.61395
1.05281
0.126468
0.0126933
0.0108234
0.0109467
0.0109902
0.0109679
0.0109151
0.0107907
0.0105856
0.0103535
0.0100096
0.00956355
0.00945157
0.0106907
0.0157873
0.0310714
0.0697628
0.152334
0.301085
0.533436
0.859329
1.28139
1.79663
2.39834
3.0778
3.8255
4.63149
5.48593
6.37963
7.30414
8.25172
9.21517
10.1879
11.1636
12.1361
13.0991
14.0466
14.9727
15.8717
16.7387
17.5704
18.3628
19.0996
19.7067
6.99175
26.3427
51.6534
81.7724
45.4041
18.7257
6.75584
8.84559
20.9927
35.0289
28.9192
19.9606
11.9372
5.59666
1.71342
0.21
0.0118671
0.00918764
0.00914133
0.00904789
0.00898849
0.00895671
0.00895959
0.00894415
0.00884826
0.00868669
0.00850848
0.0084004
0.00832111
0.00810343
0.00785222
0.00801226
0.00962218
0.0157709
0.0344409
0.0814973
0.179612
0.351394
0.612677
0.970041
1.42245
1.9639
2.58533
3.27614
4.02558
4.82325
5.6595
6.52515
7.4118
8.31168
9.21718
10.1214
11.0178
11.9009
12.766
13.6092
14.4268
15.212
15.9427
16.5384
6.53575
26.0081
52.2647
74.2276
38.5503
14.2781
5.55668
9.28321
23.0133
34.6185
27.1052
16.8775
8.97684
3.42401
0.616348
0.0246213
0.00846464
0.00820396
0.00795192
0.00776848
0.00765427
0.00759485
0.00755614
0.00749435
0.00741483
0.00737027
0.00735434
0.00730821
0.00718772
0.00706101
0.00702723
0.00701309
0.00690792
0.00683099
0.00716025
0.00906054
0.0163166
0.0386357
0.0943023
0.207145
0.398468
0.680943
1.05806
1.52619
2.077
2.69964
3.38262
4.11469
4.88495
5.68321
6.50024
7.32785
8.15898
8.98807
9.81086
10.6233
11.4201
12.1898
12.9022
13.4717
5.68006
24.4213
48.2646
68.0664
33.6944
10.9443
4.94221
9.76225
24.8827
33.9905
25.1959
14.3566
6.57152
1.87997
0.156322
0.00898723
0.0077621
0.00737009
0.00708758
0.00689844
0.00676183
0.00666022
0.00658468
0.00652349
0.00647608
0.00644178
0.00639934
0.00635443
0.00632773
0.00631906
0.00629486
0.00623647
0.00619911
0.00620821
0.00620329
0.00614944
0.0061546
0.00652361
0.00845796
0.0161392
0.0403939
0.100899
0.221631
0.422453
0.713919
1.09731
1.56657
2.11167
2.72051
3.38043
4.07994
4.80733
5.55384
6.31326
7.08021
7.84922
8.61265
9.35266
10.0289
10.5515
5.60358
21.924
44.5737
67.5321
30.4938
8.9075
4.68209
10.1929
26.5513
33.2005
22.8505
12.0839
4.66009
0.91549
0.0323931
0.00778945
0.00734395
0.00686608
0.00651334
0.00628543
0.00612829
0.0060107
0.00592653
0.00586105
0.00580521
0.00576371
0.00573905
0.00572842
0.00571117
0.00567878
0.00565558
0.00566098
0.00568289
0.00568234
0.00565779
0.00564816
0.00566109
0.00566658
0.00565739
0.00569413
0.00598135
0.00752936
0.0142845
0.037083
0.0960297
0.21607
0.417534
0.71048
1.09429
1.56032
2.09541
2.68527
3.31689
3.98027
4.6673
5.36995
6.07687
6.76239
7.37537
7.814
5.91582
21.168
44.4956
71.9942
28.4429
7.70791
4.59167
10.5296
27.9583
31.8829
20.3426
9.94969
3.17119
0.394723
0.0107246
0.00718846
0.00680538
0.00640769
0.00607817
0.00583886
0.00567673
0.00556113
0.00547146
0.00539536
0.00533328
0.00529415
0.00527509
0.00525834
0.00523414
0.00521859
0.00522521
0.00523933
0.00524293
0.00524034
0.0052491
0.00526707
0.00527329
0.00527407
0.00528582
0.00530095
0.00530769
0.00531771
0.00536497
0.00553541
0.00645721
0.0112732
0.0302686
0.0852959
0.205479
0.414594
0.720832
1.11655
1.58602
2.11262
2.68202
3.281
3.89244
4.48441
4.99076
5.2656
5.42578
20.8179
43.4776
71.4019
26.3937
6.88463
4.57322
10.7591
29.0173
29.9691
17.8186
7.96596
2.04956
0.15063
0.00757305
0.00681741
0.00640398
0.00602958
0.00573888
0.00551907
0.00535856
0.0052383
0.00513872
0.00505527
0.004994
0.00495623
0.00493332
0.00491228
0.00489497
0.00489184
0.0048985
0.00490454
0.00491309
0.00492718
0.00494154
0.00495044
0.00495848
0.004974
0.00498917
0.00499842
0.00501144
0.00503581
0.00505421
0.0050643
0.00509275
0.00515255
0.00527228
0.00587418
0.00978636
0.0295593
0.0953097
0.242892
0.487952
0.821341
1.22313
1.67194
2.14286
2.59605
2.94947
3.00498
4.77849
19.5711
42.3765
69.002
24.1905
6.25013
4.58835
10.8909
29.4937
27.7083
15.3132
6.16516
1.24107
0.0517003
0.00695813
0.00651523
0.00613703
0.00577931
0.00549198
0.0052765
0.00511496
0.00499067
0.00488692
0.00480403
0.00474566
0.00470796
0.0046823
0.00466028
0.00464566
0.00464331
0.00464776
0.00465534
0.00466853
0.00468405
0.00469597
0.00470513
0.00471826
0.00473653
0.00475216
0.00476316
0.00477769
0.00479887
0.00481776
0.004833
0.00485882
0.00489767
0.00493713
0.00499147
0.00510354
0.00535201
0.00661338
0.0153294
0.0555573
0.162843
0.351047
0.605531
0.89704
1.18063
1.37261
1.28822
4.58171
18.6737
42.3378
61.6961
21.7045
5.72441
4.62494
10.9497
29.3177
25.2462
12.9026
4.57774
0.688867
0.0180632
0.00652683
0.00620308
0.00588621
0.00556778
0.00529279
0.0050781
0.00491853
0.00479697
0.00469781
0.00462024
0.00456396
0.00452429
0.00449525
0.00447257
0.00445866
0.00445494
0.00445792
0.00446577
0.0044783
0.00449187
0.00450399
0.00451633
0.00453119
0.00454769
0.00456314
0.0045772
0.00459199
0.00460911
0.00462745
0.00464642
0.00466946
0.00469944
0.00473724
0.00478888
0.00486678
0.00498114
0.00515766
0.00548278
0.00645302
0.0116188
0.0349476
0.0968897
0.198851
0.312433
0.378782
0.300318
4.02491
18.2655
44.1603
56.5511
19.1475
5.26548
4.68344
10.9545
28.8305
22.922
10.8107
3.24685
0.339684
0.00881977
0.00615855
0.00591141
0.00565937
0.00537295
0.005123
0.0049227
0.00476913
0.00465126
0.00455728
0.00448334
0.00442707
0.00438517
0.00435405
0.00433205
0.00431931
0.00431427
0.00431499
0.00432073
0.00433096
0.00434297
0.004355
0.00436792
0.00438267
0.00439824
0.00441323
0.00442757
0.00444212
0.00445796
0.00447485
0.00449287
0.0045144
0.00454101
0.00457413
0.0046189
0.004683
0.00477547
0.0049106
0.00510839
0.00540142
0.00585372
0.00662606
0.00839249
0.0128633
0.0203492
0.0236808
0.0146706
4.0248
17.9932
46.9404
51.2152
16.2965
4.84926
4.77169
10.9811
27.905
20.9877
9.21206
2.21555
0.143964
0.00685373
0.00596616
0.00572898
0.00549446
0.00522343
0.00498992
0.00480325
0.00465643
0.00454176
0.00445019
0.00437753
0.0043213
0.00427858
0.00424693
0.00422563
0.00421347
0.00420763
0.0042067
0.00421045
0.00421834
0.00422848
0.00423932
0.00425108
0.00426449
0.00427888
0.00429309
0.0043068
0.00432065
0.00433542
0.00435087
0.00436738
0.00438693
0.00441052
0.00443923
0.00447738
0.00453028
0.00460435
0.00470914
0.00485696
0.00506717
0.00536251
0.00576503
0.00628552
0.0068947
0.0074665
0.00774636
0.00734373
5.6769
20.0824
52.3534
47.1869
13.6523
4.51451
4.89939
11.0665
26.9024
19.2998
8.00492
1.48004
0.0524551
0.0064395
0.00585909
0.0056046
0.00536006
0.00509645
0.00487296
0.00469695
0.00455848
0.00444975
0.00436243
0.00429268
0.0042385
0.00419668
0.00416534
0.00414395
0.0041311
0.00412435
0.00412239
0.00412475
0.00413075
0.00413905
0.00414845
0.0041587
0.00417028
0.00418302
0.00419601
0.00420867
0.00422137
0.0042347
0.00424858
0.00426349
0.00428091
0.00430147
0.00432621
0.00435836
0.00440164
0.00446048
0.00454101
0.00465103
0.00480179
0.00500636
0.00527691
0.00561377
0.00599236
0.00633671
0.00650768
0.00626925
9.49127
26.954
61.9107
42.3268
11.0988
4.26773
5.0801
11.2979
26.1342
17.3802
6.80308
0.966155
0.0186847
0.00605736
0.00568659
0.00547352
0.00522559
0.00497121
0.00476244
0.00459844
0.00446837
0.0043667
0.00428566
0.00422102
0.00417092
0.00413197
0.00410238
0.00408167
0.00406832
0.0040607
0.00405763
0.00405843
0.00406256
0.00406905
0.00407696
0.0040858
0.00409564
0.00410648
0.00411774
0.00412891
0.00414012
0.00415168
0.0041637
0.00417671
0.00419174
0.00420931
0.00423034
0.00425691
0.00429173
0.00433799
0.00439941
0.00448084
0.00458847
0.0047296
0.00490992
0.00512927
0.00537315
0.00559629
0.00572263
0.00560094
16.7489
42.8663
91.8869
35.6989
8.60066
4.10951
5.33176
11.7147
25.4066
15.0234
5.32726
0.574045
0.00883221
0.00575645
0.0054924
0.00531782
0.0050942
0.00486465
0.00467175
0.00451772
0.00439479
0.00429889
0.00422332
0.00416328
0.00411666
0.00408063
0.00405332
0.00403406
0.00402128
0.00401347
0.00400966
0.00400923
0.00401171
0.00401641
0.00402266
0.00402993
0.00403802
0.00404683
0.00405605
0.00406539
0.00407477
0.00408435
0.00409436
0.00410514
0.00411736
0.00413169
0.0041488
0.00417002
0.00419738
0.00423281
0.00427883
0.00433836
0.0044146
0.00451136
0.00463121
0.00477398
0.00493231
0.00508304
0.00519049
0.00515572
32.4789
78.967
96.6458
24.4615
6.14641
4.05433
5.68142
12.3488
23.9734
12.3965
3.75583
0.276083
0.0064981
0.00559524
0.0053503
0.00517447
0.00496863
0.00476284
0.00458738
0.00444612
0.00433348
0.00424489
0.00417482
0.00411913
0.00407557
0.00404182
0.00401621
0.00399777
0.0039853
0.00397746
0.00397326
0.00397218
0.00397362
0.00397699
0.00398182
0.00398767
0.00399422
0.00400127
0.00400862
0.00401611
0.00402364
0.00403131
0.0040393
0.00404778
0.00405722
0.00406823
0.00408126
0.0040973
0.00411767
0.00414375
0.0041772
0.00421952
0.00427257
0.00433807
0.00441691
0.00450905
0.00461181
0.00471632
0.00481331
0.00484196
53.6704
133.846
59.8776
13.1609
4.50146
4.13884
6.17173
13.1959
21.4245
10.2179
2.48857
0.107387
0.00606271
0.0055442
0.00525362
0.00505711
0.0048589
0.00467116
0.00451145
0.00438213
0.00427902
0.00419774
0.0041334
0.00408232
0.00404224
0.00401121
0.00398761
0.00397027
0.00395823
0.00395046
0.00394602
0.00394434
0.0039449
0.00394723
0.00395092
0.00395558
0.00396087
0.00396659
0.00397254
0.00397856
0.00398456
0.00399062
0.0039968
0.0040032
0.00401019
0.00401821
0.00402759
0.00403901
0.00405332
0.00407144
0.00409442
0.00412327
0.00415893
0.00420201
0.00425283
0.0043113
0.00437717
0.00444987
0.00453774
0.00461117
41.4162
78.8414
20.7518
5.87581
3.8436
4.37109
6.87888
14.2911
18.546
8.36399
1.58839
0.0430038
0.00606918
0.00557216
0.00520068
0.00496292
0.00476495
0.00459191
0.0044471
0.00432968
0.00423544
0.00416043
0.00410069
0.00405321
0.00401605
0.00398743
0.0039657
0.00394975
0.00393862
0.00393128
0.00392692
0.00392496
0.00392492
0.00392638
0.00392901
0.00393246
0.00393648
0.00394088
0.00394549
0.00395017
0.00395483
0.00395947
0.00396408
0.00396873
0.00397363
0.00397907
0.00398534
0.00399288
0.00400222
0.00401397
0.00402881
0.00404732
0.00406997
0.00409704
0.00412849
0.00416414
0.00420488
0.00425459
0.0043328
0.00443648
13.2349
13.1933
5.6066
3.93597
3.80814
4.75927
7.91779
15.9794
15.1905
6.1116
0.921965
0.0218483
0.00607015
0.00557709
0.00515491
0.00487698
0.00466968
0.00450433
0.00437125
0.00426496
0.00418053
0.00411391
0.00406134
0.00402002
0.00398801
0.00396361
0.00394524
0.00393181
0.00392249
0.00391643
0.00391292
0.00391139
0.00391139
0.00391254
0.00391453
0.00391708
0.00392
0.00392314
0.00392635
0.00392954
0.00393264
0.00393565
0.00393856
0.00394142
0.00394435
0.00394753
0.00395114
0.00395547
0.00396085
0.00396767
0.00397629
0.00398709
0.00400031
0.00401604
0.00403415
0.00405452
0.00407834
0.00411124
0.00417925
0.00430211
0.00447464
0.00535574
0.00641802
0.00780684
0.00970276
0.0123334
0.0160003
0.0211015
0.0281431
0.0377938
0.0509775
0.0690223
0.0940271
0.129793
0.184001
0.273001
0.430818
0.72069
1.23757
2.23207
0.00442347
0.00518586
0.00610881
0.00733552
0.00904522
0.0114717
0.0149376
0.019889
0.0269232
0.0368618
0.0508755
0.0706767
0.0989638
0.14056
0.205259
0.314672
0.516559
0.902523
1.59037
2.88639
0.00437307
0.00501546
0.00579722
0.00685392
0.00835545
0.0105294
0.0137002
0.0183346
0.0250849
0.0348827
0.0490968
0.0697657
0.100079
0.145568
0.21707
0.337792
0.556752
0.958304
1.62838
2.43826
0.00432526
0.0048512
0.00549616
0.00638409
0.00766955
0.00956306
0.0123721
0.0165522
0.0227608
0.0319664
0.0456307
0.0659696
0.0964239
0.14272
0.215386
0.335406
0.543826
0.905314
1.46735
2.14426
0.00428148
0.00469867
0.0052166
0.00594519
0.00701998
0.00862697
0.0110419
0.0146811
0.0201574
0.0283918
0.040802
0.0595702
0.0880711
0.13171
0.199731
0.308985
0.489681
0.785971
1.22966
1.79716
0.00424275
0.00456195
0.00496645
0.00555132
0.00643182
0.00776586
0.009789
0.0128598
0.0175103
0.0245449
0.0352109
0.051444
0.0762332
0.114237
0.172934
0.264754
0.410011
0.636819
0.968673
1.3986
0.00420972
0.00444361
0.00475037
0.00521079
0.00592072
0.0070101
0.0086721
0.0112006
0.0150308
0.0208151
0.0295558
0.0427967
0.0629044
0.0934979
0.140127
0.211339
0.319957
0.482911
0.715604
1.01871
0.00418267
0.0043448
0.00457022
0.00492679
0.00549335
0.00637467
0.00772449
0.00977469
0.0128654
0.0174981
0.0244218
0.0347551
0.0501651
0.0731337
0.107337
0.158148
0.233119
0.341779
0.493184
0.690309
0.00416162
0.00426558
0.00442548
0.00469822
0.00514888
0.00586124
0.00695537
0.00860966
0.0110827
0.0147486
0.0201459
0.0280354
0.0394796
0.0559634
0.0795714
0.113216
0.160823
0.227186
0.316937
0.432268
0.00414644
0.00420507
0.00431364
0.00452088
0.00488143
0.00546209
0.00635616
0.00769919
0.00968534
0.0125926
0.0168104
0.0228566
0.0313806
0.043171
0.0591962
0.0807125
0.10937
0.14716
0.195971
0.256525
0.00413689
0.00416104
0.00422899
0.00438534
0.0046766
0.00515607
0.00589703
0.00700206
0.00861567
0.0109459
0.014286
0.0190221
0.0255748
0.0343216
0.0455452
0.0595704
0.0768982
0.0982077
0.123923
0.152084
0.0041357
0.00412937
0.00416763
0.00428847
0.0045277
0.00492415
0.00553027
0.00641366
0.00766619
0.00942292
0.0118889
0.0153638
0.0200688
0.0260039
0.0328772
0.0402367
0.0478321
0.0561592
0.0681775
0.0913032
0.00788737
0.00451568
0.00490281
0.00533926
0.00581507
0.00632401
0.00691742
0.00768479
0.00880544
0.0107643
0.0143223
0.020635
0.0314449
0.0479358
0.0703558
0.101885
0.15339
0.257231
0.369221
0.562263
0.0588533
0.0492511
0.0510658
0.0535621
0.0589016
0.0689308
0.085867
0.113727
0.164554
0.230531
0.262315
0.274746
0.325419
0.389241
0.491049
0.673837
0.99254
1.19189
1.55187
2.05314
0.0127525
0.0165937
0.0228897
0.0352491
0.053366
0.0771144
0.10481
0.132387
0.157787
0.209974
0.458559
0.446468
0.405707
0.36203
0.31941
0.290688
0.271788
0.190441
0.311164
0.36248
0.00975485
0.0100906
0.00545673
0.00539684
0.00525945
0.00501966
0.00488485
0.00484816
0.00487156
0.00573806
0.0100405
0.0184154
0.0256818
0.02809
0.0253099
0.0205078
0.0154712
0.0120617
0.00963343
0.00881695
0.00691312
0.0106475
0.00503491
0.00408492
0.00394085
0.00391094
0.00391292
0.00391041
0.00393878
0.00413983
0.00492624
0.0051628
0.0050317
0.00526925
0.0059165
0.00663218
0.00728246
0.00778025
0.00675735
0.00649103
0.00683398
0.0103401
0.00503141
0.00396705
0.00374601
0.00371168
0.00373517
0.00377452
0.00382749
0.0039126
0.00404949
0.00421586
0.00443414
0.00472081
0.00509789
0.00549962
0.00580539
0.00584343
0.00564117
0.0056307
0.00741168
0.0102255
0.00486614
0.00392721
0.00373215
0.00370121
0.00372578
0.00376848
0.00381691
0.00387382
0.00395609
0.00408639
0.00425948
0.00445972
0.00468671
0.00491078
0.00508019
0.00515789
0.00518188
0.00523986
0.00814339
0.00981184
0.00476195
0.00393219
0.00377
0.00374584
0.00376717
0.00380551
0.00385219
0.00390696
0.00397795
0.00407586
0.00419983
0.00434246
0.00449801
0.00465103
0.00477992
0.00487298