/*--------------------------------*- C++ -*----------------------------------*\
| =========                 |                                                 |
| \\      /  F ield         | OpenFOAM: The Open Source CFD Toolbox           |
|  \\    /   O peration     | Version:  v1912                                 |
|   \\  /    A nd           | Website:  www.openfoam.com                      |
|    \\/     M anipulation  |                                                 |
\*---------------------------------------------------------------------------*/
FoamFile
{
    version     2.0;
    format      ascii;
    class       volScalarField;
    location    "54";
    object      nut;
}
// * * * * * * * * * * * * * * * * * * * * * * * * * * * * * * * * * * * * * //

dimensions      [0 2 -1 0 0 0 0];


internalField   nonuniform List<scalar> 
20320
(
0.0347196
0.00759872
0.00766727
0.00773388
0.00779814
0.00785964
0.00791787
0.00797219
0.00802189
0.00806616
0.00810395
0.00813415
0.0081556
0.00816696
0.00816651
0.00815169
0.00811757
0.00805131
0.00791355
0.00753412
0.0352307
0.0352738
0.0354485
0.035685
0.0359641
0.0362536
0.0365165
0.0367286
0.0368813
0.0369879
0.0370707
0.0371393
0.0371912
0.0372118
0.0371731
0.0370055
0.036557
0.0354696
0.0329065
0.0242191
0.0353544
0.0356359
0.036137
0.0368851
0.0379788
0.0395185
0.0415912
0.0442451
0.0474592
0.0511059
0.0549431
0.0586504
0.0618774
0.0642895
0.0656027
0.0655895
0.0640318
0.0605521
0.0539106
0.035446
0.0355268
0.0361126
0.036924
0.0379646
0.0393361
0.0411525
0.0435438
0.0466521
0.0506144
0.0555273
0.0613728
0.0679214
0.0746703
0.0808607
0.0855909
0.0879786
0.0872839
0.0828153
0.0727618
0.0444471
0.0357347
0.0367074
0.0379079
0.0393109
0.0410109
0.0431164
0.0457567
0.0490862
0.0532855
0.0585545
0.0650695
0.0728786
0.0817297
0.0908922
0.0991021
0.104739
0.106178
0.10196
0.0893034
0.0516965
0.0359684
0.0374002
0.0390574
0.0408902
0.042983
0.0454351
0.0483689
0.0519354
0.0563214
0.0617582
0.0685097
0.0768105
0.0867031
0.0977463
0.108705
0.117496
0.12157
0.118371
0.103724
0.0575743
0.0362174
0.0381598
0.0403226
0.0426355
0.045172
0.0480207
0.051295
0.0551389
0.0597361
0.0653265
0.0722096
0.0807188
0.0911091
0.10326
0.116189
0.127668
0.134404
0.132622
0.116423
0.0624709
0.0364702
0.0389526
0.0416494
0.0444762
0.047496
0.0507858
0.0544478
0.0586164
0.0634685
0.0692443
0.0762577
0.0848926
0.09554
0.108345
0.122647
0.136297
0.145489
0.145265
0.127809
0.0667131
0.0367153
0.039743
0.0429805
0.0463372
0.0498674
0.0536366
0.0577343
0.0622825
0.0674472
0.0734639
0.0806505
0.089417
0.100239
0.113462
0.128738
0.14412
0.155488
0.156803
0.138256
0.070532
0.036941
0.0404948
0.044257
0.0481406
0.0521949
0.056475
0.061057
0.0660477
0.0715981
0.0779331
0.0853676
0.0943231
0.105328
0.118875
0.134892
0.151687
0.164979
0.167766
0.148225
0.0741269
0.0371366
0.041173
0.0454214
0.0498092
0.0543863
0.0592004
0.0643148
0.0698188
0.0758438
0.0825983
0.0903869
0.0996316
0.110892
0.124771
0.141429
0.159443
0.174468
0.178639
0.158114
0.0777624
0.0372928
0.0417457
0.0464204
0.0512702
0.0563523
0.0617126
0.0674037
0.0734974
0.0801015
0.0874019
0.0956852
0.105364
0.117013
0.131316
0.148632
0.1678
0.184474
0.189991
0.16846
0.0816815
0.0374026
0.0421867
0.0472087
0.052459
0.0580107
0.0639149
0.0702191
0.0769798
0.0842801
0.0922778
0.101235
0.111544
0.123782
0.138691
0.1568
0.177202
0.195574
0.202482
0.179894
0.0862022
0.0374612
0.0424763
0.0477514
0.0533233
0.05929
0.0657171
0.072656
0.0801545
0.0882734
0.0971411
0.106989
0.118182
0.131289
0.147095
0.166279
0.188175
0.208502
0.217016
0.193325
0.0917811
0.0374672
0.0426034
0.0480262
0.0538258
0.0601334
0.0670399
0.0746119
0.0829011
0.0919549
0.101876
0.112866
0.12526
0.139611
0.156739
0.177469
0.201386
0.224253
0.234903
0.210129
0.0991401
0.0374215
0.0425657
0.0480253
0.0539477
0.0605037
0.0678196
0.0759919
0.0850931
0.0951744
0.106327
0.11873
0.132696
0.148767
0.167809
0.190811
0.217661
0.244209
0.258167
0.232627
0.109571
0.0373284
0.0423699
0.0477557
0.05369
0.0603865
0.0680146
0.0767156
0.0866037
0.0977586
0.110283
0.124361
0.140301
0.15866
0.180382
0.206695
0.237935
0.270216
0.289946
0.264971
0.125996
0.0371943
0.0420312
0.0472389
0.0530742
0.0597927
0.0676112
0.0767267
0.0873167
0.0995195
0.113486
0.12944
0.147732
0.168979
0.194281
0.225253
0.262998
0.304422
0.334811
0.31444
0.154644
0.0370281
0.0415725
0.0465095
0.0521412
0.05876
0.0666287
0.0760049
0.0871456
0.100277
0.115639
0.133548
0.154455
0.179113
0.208885
0.246002
0.292876
0.348343
0.397949
0.392519
0.209472
0.0368395
0.041022
0.0456123
0.050948
0.0573508
0.065122
0.074576
0.0860545
0.0998929
0.116457
0.136206
0.159762
0.188094
0.222943
0.267384
0.325759
0.400375
0.479633
0.505583
0.307142
0.0431278
0.0294734
0.0338258
0.0374989
0.0417341
0.0471356
0.0532653
0.0637095
0.0761861
0.0890802
0.099558
0.108086
0.11671
0.124761
0.131811
0.134905
0.134989
0.130716
0.123843
0.115886
0.108014
0.101355
0.0956535
0.0912336
0.0882124
0.0856085
0.0832113
0.0814501
0.0804077
0.0795917
0.0797718
0.0818906
0.0819712
0.0834035
0.0821905
0.0796379
0.0764374
0.072916
0.0692079
0.0662395
0.0640278
0.0624067
0.061585
0.060932
0.0603997
0.0601331
0.0602914
0.0610119
0.0623404
0.0645443
0.0670806
0.0696003
0.0715358
0.0738911
0.0776173
0.0866535
0.092873
0.0998122
0.084601
0.0653741
0.055379
0.435668
0.598648
0.677675
0.737131
0.80204
0.884519
1.00285
1.15062
1.29357
1.39592
1.47454
1.55803
1.6426
1.71151
1.72361
1.68707
1.57923
1.4453
1.31838
1.21436
1.13458
1.07426
1.02954
0.997796
0.967502
0.940552
0.920283
0.904614
0.889347
0.882366
0.889554
0.875849
0.84564
0.811764
0.763139
0.70661
0.66163
0.653411
0.649268
0.641661
0.641353
0.639809
0.634907
0.626501
0.618811
0.617372
0.628223
0.647571
0.675518
0.689595
0.673131
0.62956
0.587018
0.50201
0.452587
0.350857
0.233185
0.16398
0.242095
0.0660661
0.62711
0.899946
1.0166
1.08351
1.15339
1.25458
1.40914
1.61164
1.81143
1.94366
2.02899
2.12303
2.2304
2.31775
2.2795
2.1347
1.97055
1.83515
1.73214
1.6533
1.5949
1.54984
1.51261
1.48266
1.45807
1.43504
1.41432
1.39857
1.38907
1.38737
1.3931
1.40034
1.3996
1.38097
1.34246
1.2949
1.25557
1.23396
1.22238
1.21488
1.21159
1.20906
1.20357
1.19404
1.18496
1.18259
1.19249
1.21431
1.23842
1.23404
1.16985
1.04771
0.921705
0.775485
0.625146
0.46343
0.343323
0.333379
0.487993
0.0757497
0.781269
1.08627
1.20574
1.27632
1.36499
1.50457
1.71277
1.97142
2.2145
2.34911
2.40005
2.45997
2.46781
2.3423
2.21252
2.08673
1.98151
1.89899
1.8389
1.79685
1.76772
1.7472
1.73167
1.72067
1.71367
1.70787
1.70443
1.70714
1.71975
1.74518
1.78464
1.82845
1.86114
1.87127
1.85787
1.83137
1.80686
1.79306
1.78748
1.78487
1.78451
1.78538
1.78299
1.77494
1.76577
1.76176
1.76842
1.78896
1.81275
1.80691
1.73093
1.57474
1.37426
1.17141
0.985486
0.83032
0.777111
0.871276
1.10879
0.0844077
0.923925
1.24646
1.36237
1.44585
1.5707
1.76441
2.03574
2.35014
2.62438
2.69791
2.59062
2.43815
2.30231
2.18055
2.07364
1.98436
1.91623
1.86884
1.83981
1.82561
1.82221
1.82683
1.8371
1.85232
1.87326
1.8996
1.93214
1.97373
2.02853
2.09828
2.1795
2.26051
2.32467
2.36216
2.37391
2.37006
2.3636
2.36244
2.36598
2.36943
2.37258
2.37712
2.37875
2.3737
2.36611
2.36204
2.3654
2.38233
2.40725
2.41108
2.35518
2.22652
2.04226
1.83598
1.6616
1.56482
1.58318
1.73087
1.98102
0.0919922
1.05465
1.39912
1.52006
1.62752
1.80006
2.05469
2.39647
2.78306
2.99674
2.69961
2.49694
2.32222
2.17434
2.05651
1.96691
1.90299
1.86201
1.84016
1.83412
1.84146
1.86021
1.88933
1.92829
1.97745
2.03804
2.11036
2.19371
2.28715
2.39126
2.50359
2.61623
2.71846
2.79721
2.84834
2.87585
2.88935
2.89869
2.90938
2.92133
2.93078
2.93818
2.94684
2.95268
2.95207
2.9486
2.94757
2.95045
2.96369
2.98911
3.00201
2.97475
2.89598
2.776
2.63706
2.51791
2.47442
2.53343
2.6868
2.88627
0.0985455
1.17001
1.54725
1.6866
1.82595
2.04968
2.36512
2.78496
3.30998
2.93259
2.57872
2.36874
2.20972
2.08292
1.98909
1.92629
1.89045
1.87647
1.8793
1.8958
1.92515
1.96784
2.02526
2.0987
2.18895
2.29606
2.41743
2.54765
2.68106
2.81582
2.94731
3.06865
3.173
3.25103
3.30478
3.34008
3.36613
3.38927
3.41169
3.4323
3.44792
3.4612
3.47618
3.48593
3.48878
3.4912
3.49511
3.49979
3.512
3.53566
3.55545
3.55151
3.5181
3.46191
3.39961
3.35556
3.36109
3.43214
3.5542
3.69933
0.104297
1.26819
1.6887
1.85796
2.03115
2.29947
2.66992
3.17011
3.44136
2.79354
2.43009
2.22359
2.09554
2.01385
1.9691
1.95437
1.96238
1.98617
2.02129
2.06681
2.1246
2.19755
2.28863
2.39821
2.52429
2.66557
2.8159
2.96623
3.11206
3.25584
3.38934
3.50987
3.61334
3.68559
3.73345
3.76965
3.8044
3.83973
3.8742
3.90454
3.92569
3.94193
3.9554
3.96861
3.97679
3.97995
3.98752
3.9956
4.01259
4.04143
4.06816
4.07977
4.07742
4.06803
4.06035
4.07015
4.11211
4.19031
4.29526
4.41307
0.109361
1.35195
1.81857
2.02204
2.22607
2.52699
2.95088
3.53536
3.18804
2.59673
2.24862
2.06306
1.98036
1.96303
1.98781
2.03753
2.09992
2.16769
2.23976
2.3193
2.41036
2.51703
2.64087
2.77823
2.92303
3.08164
3.24526
3.40293
3.54926
3.69715
3.82527
3.93357
4.0062
4.0468
4.07413
4.09856
4.12942
4.16781
4.2088
4.24642
4.27424
4.29733
4.32731
4.34832
4.36083
4.37678
4.39757
4.42045
4.45531
4.49943
4.53973
4.56595
4.58348
4.60441
4.63646
4.68317
4.75233
4.84524
4.95127
5.06739
0.11379
1.42003
1.9313
2.1661
2.39711
2.72465
3.2006
3.61606
2.87593
2.35576
2.04346
1.90164
1.88642
1.94962
2.0478
2.15548
2.26286
2.36842
2.47478
2.58455
2.70671
2.84576
3.00096
3.16466
3.32116
3.47336
3.62957
3.77673
3.90196
4.0158
4.10919
4.17456
4.22849
4.24984
4.27205
4.29624
4.32477
4.36271
4.40712
4.45202
4.4921
4.53389
4.5821
4.61901
4.64882
4.6859
4.72833
4.77521
4.8331
4.89686
4.95429
4.99884
5.03523
5.07615
5.13636
5.2215
5.3219
5.43676
5.55092
5.65987
0.118779
1.47003
2.02321
2.2834
2.54491
2.91521
3.47626
3.17616
2.55391
2.10156
1.84508
1.77735
1.85263
1.99492
2.14797
2.29548
2.42861
2.54695
2.66499
2.78187
2.91067
3.05358
3.21271
3.37997
3.53638
3.68539
3.83078
3.95075
4.04594
4.13889
4.20847
4.25136
4.29115
4.31092
4.33451
4.36533
4.40064
4.44414
4.49554
4.55113
4.60799
4.67068
4.73782
4.79671
4.85188
4.91413
4.9821
5.0553
5.13596
5.21839
5.29325
5.35597
5.41021
5.46654
5.5386
5.6314
5.74641
5.86706
5.97727
6.08769
0.126542
1.51912
2.09589
2.37504
2.68178
3.13232
3.43582
2.77847
2.24216
1.86128
1.6889
1.72834
1.89527
2.09513
2.2834
2.43014
2.55339
2.66202
2.76921
2.87966
3.00602
3.14513
3.29306
3.44414
3.58578
3.72381
3.85703
3.95796
4.03117
4.10201
4.15639
4.19081
4.22376
4.24858
4.27934
4.32097
4.37
4.42685
4.49169
4.56299
4.63984
4.72416
4.81222
4.89601
4.9787
5.06672
5.1595
5.25622
5.35637
5.45468
5.54414
5.6215
5.6894
5.75588
5.83147
5.92339
6.03506
6.15071
6.26094
6.37827
0.13695
1.59543
2.15887
2.45477
2.81814
3.41377
2.98675
2.43212
1.96016
1.65985
1.60651
1.7601
1.99362
2.23462
2.4064
2.53143
2.62751
2.71245
2.79694
2.89066
3.00211
3.12882
3.26133
3.39178
3.51267
3.62981
3.74153
3.82516
3.88308
3.93618
3.98007
4.01321
4.04729
4.08177
4.12504
4.1818
4.24936
4.32569
4.41006
4.50195
4.6013
4.70811
4.81835
4.92697
5.03547
5.14704
5.2613
5.37706
5.49253
5.60323
5.704
5.79258
5.87102
5.9456
6.02522
6.11817
6.22723
6.342
6.45871
6.58131
0.148155
1.69747
2.23122
2.5624
2.98658
3.18062
2.65396
2.13552
1.71555
1.52073
1.60328
1.84143
2.13369
2.36689
2.50055
2.57903
2.63152
2.68282
2.74157
2.81459
2.90553
3.0116
3.12313
3.23085
3.3289
3.4212
3.50707
3.57231
3.61835
3.66012
3.69908
3.73635
3.77892
3.82838
3.88987
3.96677
4.05681
4.15669
4.26467
4.38024
4.50319
4.63233
4.76416
4.89531
5.02605
5.1576
5.28945
5.42026
5.54783
5.6686
5.77898
5.87764
5.96662
6.05136
6.13979
6.23951
6.35228
6.47178
6.5953
6.71778
0.158735
1.80702
2.34066
2.7345
3.23361
2.94265
2.39826
1.88641
1.51996
1.45517
1.64788
1.9589
2.28358
2.45171
2.52121
2.54334
2.55098
2.56637
2.5975
2.64721
2.715
2.79637
2.88264
2.96517
3.03894
3.10603
3.16676
3.2146
3.25197
3.28927
3.33042
3.37808
3.43636
3.50674
3.59198
3.6935
3.80876
3.93401
4.06695
4.2066
4.35219
4.50209
4.65346
4.80401
4.9533
5.10152
5.24798
5.39132
5.52951
5.65987
5.78014
5.88993
5.99147
6.08972
6.19135
6.30208
6.42235
6.54747
6.67347
6.78986
0.166303
1.90991
2.49853
2.99711
3.44618
2.81066
2.2138
1.67784
1.3768
1.44204
1.72368
2.11432
2.38185
2.46964
2.46525
2.42622
2.3868
2.36465
2.36535
2.38832
2.42999
2.48428
2.54305
2.59893
2.64801
2.69162
2.73128
2.76612
2.80011
2.84083
2.89254
2.95779
3.03843
3.13477
3.24733
3.37552
3.51637
3.66626
3.82276
3.98452
4.15033
4.31855
4.48704
4.65414
4.81918
4.9818
5.1412
5.2961
5.44483
5.58555
5.71702
5.83955
5.95544
6.06891
6.18503
6.30723
6.4346
6.5628
6.68674
6.79387
0.168516
1.99579
2.67656
3.22443
3.54768
2.73434
2.05122
1.47967
1.2777
1.46023
1.84291
2.25582
2.41495
2.41754
2.34024
2.23957
2.14941
2.08512
2.05019
2.04153
2.05341
2.07854
2.10899
2.13851
2.16451
2.18871
2.2142
2.2438
2.28243
2.33551
2.40601
2.49497
2.60208
2.72609
2.86575
3.01908
3.18307
3.35461
3.53146
3.7121
3.89522
4.07932
4.26282
4.44445
4.62345
4.79916
4.97076
5.13709
5.29685
5.44884
5.59251
5.72849
5.85889
5.987
6.1162
6.24792
6.3803
6.50922
6.62933
6.7277
0.162576
2.02609
2.79786
3.45266
3.47533
2.61663
1.8483
1.28082
1.22005
1.51598
2.00042
2.32985
2.38765
2.30486
2.1559
1.9933
1.84869
1.73657
1.65978
1.61405
1.59252
1.58692
1.58945
1.59499
1.60238
1.61444
1.63565
1.67046
1.72307
1.79623
1.89052
2.00494
2.13753
2.28608
2.44849
2.62236
2.80503
2.99405
3.18743
3.38367
3.58146
3.77945
3.97639
4.17119
4.363
4.55106
4.73446
4.9122
5.08331
5.24699
5.40308
5.55229
5.69633
5.83753
5.97776
6.11709
6.25326
6.38261
6.49992
6.59224
0.152405
1.98567
2.77078
3.40603
3.40848
2.41591
1.6019
1.10685
1.20514
1.61115
2.1412
2.34537
2.30708
2.14217
1.92213
1.69606
1.49347
1.32882
1.20564
1.11908
1.06174
1.025
1.00179
0.988611
0.98591
0.997255
1.02672
1.07734
1.15041
1.24562
1.36159
1.49636
1.64775
1.81358
1.99175
2.18007
2.37635
2.57852
2.78485
2.99381
3.20406
3.41433
3.62344
3.83034
4.03411
4.23386
4.4287
4.61778
4.80032
4.97584
5.14433
5.3064
5.46328
5.61635
5.76635
5.91253
6.05272
6.18381
6.30072
6.39019
0.147009
1.90221
2.66841
3.22906
3.09602
2.16077
1.34696
0.985204
1.22727
1.7351
2.2208
2.31135
2.18385
1.9396
1.64761
1.3562
1.09398
0.87779
0.710467
0.586148
0.496035
0.432451
0.390846
0.370323
0.372364
0.397912
0.446297
0.515434
0.604299
0.712078
0.838005
0.98108
1.13996
1.31301
1.49839
1.69416
1.89833
2.10904
2.32451
2.54315
2.7635
2.98419
3.204
3.42178
3.63653
3.84728
4.05319
4.25347
4.44756
4.63506
4.81598
4.99069
5.15988
5.32411
5.48334
5.63653
5.78183
5.91657
6.03558
6.12482
0.147286
1.82661
2.54534
3.13691
2.77483
1.90074
1.10887
0.920485
1.27834
1.87727
2.24184
2.23399
2.02559
1.70481
1.33938
0.984606
0.673548
0.423526
0.240818
0.122183
0.0591347
0.0353615
0.0292463
0.0289353
0.0330506
0.0455881
0.0718222
0.116444
0.181246
0.267204
0.374205
0.501589
0.648096
0.812023
0.991303
1.1837
1.38704
1.59915
1.818
2.04165
2.26833
2.49646
2.72456
2.95134
3.1756
3.39634
3.61267
3.82386
4.02933
4.22871
4.42184
4.60875
4.78962
4.96444
5.13277
5.29361
5.44545
5.58582
5.709
5.79986
0.150094
1.77928
2.44434
3.03456
2.51827
1.65067
0.90327
0.898975
1.34913
1.97559
2.22975
2.12286
1.83776
1.44291
1.00966
0.609801
0.28618
0.08404
0.022245
0.041377
0.0617225
0.0644223
0.0607189
0.0534853
0.0429771
0.0309727
0.0219003
0.0195561
0.0263519
0.0466904
0.0875039
0.154601
0.250136
0.37308
0.520553
0.68905
0.875166
1.07565
1.28745
1.50779
1.7342
1.96451
2.19676
2.42928
2.66061
2.8895
3.11494
3.33606
3.55215
3.76266
3.9672
4.16548
4.35728
4.5423
4.71999
4.88951
5.04951
5.19731
5.3263
5.42002
0.151184
1.74322
2.3683
2.87949
2.29022
1.40658
0.74213
0.903142
1.42832
2.06053
2.17508
1.98103
1.62312
1.16264
0.682432
0.280134
0.050782
0.0233701
0.0593735
0.0659567
0.0665415
0.0663372
0.0657731
0.0645363
0.0622288
0.0584539
0.0520025
0.0416519
0.0288983
0.0193416
0.0173572
0.0250575
0.0478438
0.0942041
0.170784
0.279391
0.4179
0.582137
0.767367
0.969035
1.18313
1.40622
1.63535
1.86799
2.10206
2.33583
2.56785
2.79691
3.02201
3.2423
3.45709
3.66582
3.86803
4.06333
4.25118
4.43079
4.60069
4.75758
4.89356
4.99078
0.149765
1.72489
2.36794
2.75049
2.08145
1.17241
0.633205
0.920859
1.5045
2.1021
2.09782
1.81815
1.38782
0.880104
0.388862
0.0729762
0.0170213
0.0557279
0.0604684
0.060352
0.0601584
0.0600605
0.0600704
0.0599991
0.059621
0.0589198
0.0578982
0.0565573
0.0542148
0.0491339
0.0397258
0.0270161
0.0176449
0.0168934
0.0273092
0.055571
0.110978
0.199776
0.322602
0.47575
0.653793
0.851232
1.0631
1.28511
1.51377
1.74625
1.98022
2.21376
2.44529
2.6735
2.89728
3.1158
3.32841
3.53459
3.73382
3.92514
4.10661
4.27382
4.41729
4.51797
0.145627
1.69413
2.3451
2.63232
1.86678
0.948775
0.571282
0.944274
1.56986
2.09098
2.01648
1.64814
1.14983
0.614059
0.169473
0.0138787
0.045578
0.0567541
0.0561661
0.055482
0.0550519
0.0548343
0.0547067
0.0545009
0.0542186
0.0540497
0.053986
0.0538175
0.0533324
0.0526797
0.0520608
0.0507511
0.0470752
0.0388275
0.0260032
0.0166828
0.0172124
0.0306164
0.0648333
0.129438
0.229589
0.36431
0.528771
0.716857
0.922595
1.14079
1.36721
1.59851
1.83185
2.06498
2.29608
2.52376
2.74693
2.96485
3.1767
3.38109
3.5752
3.75309
3.90332
4.00607
0.136391
1.62584
2.24458
2.45288
1.66304
0.759511
0.542292
0.967002
1.62367
2.05973
1.91953
1.47673
0.922654
0.386284
0.0521086
0.0203102
0.0534812
0.0537433
0.0526395
0.0518718
0.051321
0.0509175
0.0506241
0.0503893
0.050209
0.0500885
0.0499446
0.0497894
0.0496965
0.0496739
0.0496016
0.0493797
0.0491812
0.0490126
0.0483006
0.0458212
0.0391389
0.0266087
0.0166637
0.0175966
0.0329784
0.0715133
0.142813
0.251244
0.394886
0.568177
0.764365
0.977254
1.20149
1.43266
1.66728
1.90222
2.13535
2.36522
2.59012
2.80782
3.01429
3.20149
3.35548
3.45583
0.136196
1.5339
2.13043
2.32393
1.49755
0.62595
0.530913
0.983925
1.6659
2.0194
1.80142
1.30333
0.714842
0.214873
0.0145593
0.0412383
0.053139
0.0515475
0.0501124
0.0491561
0.0484925
0.0480006
0.0476526
0.0473856
0.0471619
0.0470022
0.0469158
0.0468909
0.0468418
0.0467317
0.0466634
0.0467176
0.0468444
0.04688
0.0468092
0.046782
0.0467836
0.0464984
0.0451862
0.0407529
0.0297193
0.0179605
0.0174473
0.0326311
0.0725044
0.14776
0.263299
0.416977
0.602358
0.811594
1.03704
1.27205
1.5112
1.75052
1.98652
2.21546
2.43141
2.62363
2.77443
2.85949
0.140863
1.4527
2.02948
2.29012
1.36963
0.536644
0.526657
0.992514
1.69466
1.96355
1.66693
1.1292
0.531875
0.104902
0.0104257
0.049132
0.051083
0.0494921
0.0481033
0.0470722
0.0463639
0.0458603
0.0454732
0.045147
0.0448841
0.0447248
0.0446586
0.0446079
0.0445261
0.0444825
0.0445407
0.0446371
0.04469
0.0447164
0.0447949
0.0449169
0.0449889
0.0450368
0.0451307
0.045219
0.0451678
0.044693
0.0425989
0.0351271
0.0219272
0.0173997
0.0305216
0.0716561
0.155043
0.287615
0.464919
0.675139
0.905227
1.14427
1.38397
1.61719
1.83528
2.02425
2.15963
2.19827
0.135933
1.39712
1.96043
2.21499
1.24644
0.471512
0.524548
0.992443
1.70795
1.88517
1.52023
0.956622
0.376945
0.0453737
0.0206558
0.0501373
0.0493298
0.047747
0.0464775
0.0455017
0.0447826
0.0442436
0.0437992
0.0434283
0.0431597
0.0430017
0.0429162
0.0428428
0.042787
0.042798
0.0428589
0.0429206
0.0429944
0.0430948
0.0431997
0.0432822
0.0433608
0.0434759
0.0435938
0.0436879
0.0438
0.0439651
0.044102
0.0441742
0.0441765
0.0435748
0.0397052
0.0278045
0.0195559
0.035022
0.0920039
0.208127
0.379898
0.587614
0.810738
1.03331
1.24098
1.41492
1.52196
1.49084
0.128484
1.33481
1.8815
2.12016
1.1173
0.420548
0.52325
0.984751
1.70105
1.78879
1.36463
0.788168
0.250866
0.0183733
0.0346475
0.0494093
0.0480514
0.0465085
0.0452343
0.0442592
0.0435213
0.0429522
0.042478
0.0421007
0.0418393
0.0416779
0.0415765
0.0414946
0.0414486
0.0414632
0.0415141
0.0415821
0.0416776
0.0417854
0.0418788
0.0419614
0.0420634
0.0421915
0.0423101
0.0424094
0.0425274
0.0426791
0.0428239
0.0429556
0.0431404
0.0433903
0.0436386
0.0438809
0.0438003
0.0403885
0.028016
0.0282258
0.0699496
0.171326
0.324412
0.502083
0.677087
0.821793
0.895802
0.816277
0.126592
1.25892
1.78525
1.94825
0.976028
0.379556
0.522872
0.971207
1.67427
1.68367
1.2067
0.627237
0.153193
0.00888398
0.0429428
0.0481481
0.0468376
0.0454348
0.0441973
0.0432127
0.042472
0.0419052
0.0414438
0.0410849
0.0408288
0.0406546
0.0405339
0.0404456
0.0404012
0.0404087
0.0404516
0.0405199
0.0406123
0.040711
0.0408047
0.0409014
0.0410115
0.0411309
0.0412473
0.0413592
0.0414766
0.0416075
0.0417467
0.0418924
0.0420613
0.0422681
0.0425182
0.042841
0.0432933
0.043893
0.0445101
0.0437575
0.0362178
0.0306796
0.0558321
0.122301
0.21632
0.30504
0.344523
0.271825
0.11943
1.17138
1.67321
1.75085
0.829585
0.347118
0.524209
0.953083
1.63591
1.58158
1.06041
0.479978
0.0833374
0.0088128
0.0456989
0.0468396
0.0457271
0.0444392
0.0432937
0.0423616
0.0416394
0.0410826
0.0406394
0.0402931
0.0400333
0.0398452
0.0397117
0.0396245
0.0395845
0.0395847
0.0396153
0.0396723
0.0397528
0.0398435
0.0399359
0.0400344
0.0401432
0.0402573
0.0403703
0.0404819
0.0405963
0.0407189
0.0408489
0.0409871
0.0411454
0.0413322
0.0415554
0.041841
0.0422272
0.0427577
0.0434957
0.0445069
0.0457951
0.046921
0.0457981
0.0404936
0.0386117
0.0445373
0.04681
0.0364391
0.119826
1.09661
1.59411
1.53237
0.679152
0.323381
0.528247
0.934674
1.58155
1.49065
0.93896
0.354533
0.0395016
0.017442
0.046264
0.0459354
0.0448727
0.0436383
0.0425546
0.041676
0.040979
0.0404323
0.0399964
0.0396527
0.0393901
0.0391956
0.0390574
0.038972
0.0389338
0.0389292
0.0389506
0.0389967
0.0390649
0.0391455
0.039231
0.0393226
0.0394237
0.0395308
0.0396385
0.0397453
0.0398545
0.0399698
0.0400904
0.0402185
0.0403641
0.0405326
0.0407301
0.0409787
0.0413053
0.041742
0.0423345
0.0431377
0.0442295
0.045676
0.0474809
0.0494949
0.0513197
0.0523543
0.0519922
0.0487895
0.142942
1.10293
1.60929
1.34145
0.544103
0.311232
0.535169
0.918228
1.52001
1.40426
0.841346
0.255971
0.016882
0.0307523
0.046164
0.0452616
0.0441471
0.0429352
0.0418885
0.0410524
0.0403893
0.0398667
0.0394479
0.0391156
0.038861
0.0386691
0.0385309
0.0384438
0.0384011
0.038391
0.0384064
0.0384447
0.0385026
0.0385732
0.0386505
0.0387333
0.038824
0.0389217
0.0390218
0.0391216
0.0392231
0.0393292
0.0394397
0.0395573
0.0396894
0.0398397
0.0400137
0.0402282
0.0405023
0.0408584
0.0413268
0.0419442
0.0427594
0.0438188
0.0451387
0.046632
0.0480313
0.0488113
0.048271
0.0454108
0.18588
1.20344
1.67274
1.14527
0.425542
0.313478
0.544876
0.907832
1.46558
1.30225
0.745053
0.180583
0.00821552
0.0395477
0.0454491
0.0445603
0.0434238
0.042242
0.0412532
0.0404663
0.039838
0.0393457
0.0389546
0.0386452
0.038409
0.0382299
0.0380993
0.0380146
0.0379684
0.0379529
0.0379617
0.0379912
0.0380387
0.0380992
0.0381679
0.0382425
0.0383232
0.0384099
0.0384999
0.0385907
0.0386828
0.038778
0.0388769
0.0389824
0.0390998
0.039232
0.0393838
0.0395663
0.0397934
0.0400815
0.0404492
0.0409201
0.0415226
0.0422852
0.0432159
0.0442627
0.0452429
0.0457531
0.045246
0.0429687
0.248251
1.34327
1.70525
0.905523
0.326288
0.334582
0.557102
0.904868
1.41779
1.17619
0.625191
0.117489
0.00760984
0.042803
0.0445364
0.0437537
0.0427126
0.0416321
0.0407094
0.0399645
0.0393667
0.0388997
0.0385333
0.038245
0.0380248
0.0378593
0.0377391
0.0376608
0.0376168
0.0375993
0.0376034
0.0376256
0.0376638
0.0377142
0.0377734
0.0378388
0.0379093
0.0379844
0.0380627
0.0381425
0.0382236
0.0383068
0.0383934
0.0384852
0.0385857
0.0386986
0.0388273
0.038979
0.0391641
0.0393927
0.0396775
0.0400332
0.0404746
0.0410181
0.0416676
0.0423949
0.0430863
0.0434541
0.0430609
0.0412582
0.348088
1.60285
1.57175
0.610342
0.256463
0.378829
0.571238
0.909702
1.35952
1.03259
0.485724
0.0635603
0.0140454
0.0435991
0.043809
0.0429966
0.0420241
0.0410427
0.0401953
0.0395069
0.0389556
0.0385221
0.0381812
0.0379132
0.0377073
0.0375523
0.0374399
0.0373651
0.0373219
0.0373035
0.0373047
0.0373228
0.0373547
0.0373974
0.0374483
0.0375052
0.0375666
0.0376314
0.0376986
0.0377674
0.0378373
0.0379089
0.0379832
0.038061
0.0381449
0.0382381
0.038343
0.0384648
0.0386104
0.038787
0.0390031
0.0392662
0.0395853
0.039968
0.0404153
0.0409139
0.0414015
0.0416884
0.0414278
0.0400154
0.453045
1.93539
1.04134
0.350448
0.247561
0.436859
0.587365
0.920237
1.26969
0.895897
0.356335
0.0285109
0.0229804
0.0438332
0.0432794
0.0423552
0.0414064
0.0405002
0.0397215
0.0390865
0.0385788
0.0381793
0.0378652
0.0376189
0.0374295
0.0372873
0.0371843
0.0371144
0.0370726
0.0370538
0.037053
0.0370672
0.0370937
0.0371301
0.0371741
0.0372238
0.0372776
0.0373343
0.0373929
0.0374526
0.0375131
0.0375747
0.0376377
0.0377028
0.0377718
0.0378471
0.0379304
0.0380253
0.0381364
0.0382682
0.0384262
0.0386156
0.0388408
0.0391046
0.0394073
0.039743
0.0400828
0.0403134
0.0401729
0.039083
0.401028
1.07087
0.407896
0.207868
0.329582
0.484089
0.608041
0.936344
1.14934
0.762455
0.249098
0.0130626
0.0262787
0.0440443
0.0429457
0.0418172
0.0408582
0.0400137
0.0393015
0.0387211
0.0382547
0.0378847
0.0375924
0.0373632
0.0371877
0.037057
0.0369628
0.0368992
0.0368615
0.0368441
0.036843
0.0368549
0.0368775
0.0369084
0.036946
0.0369885
0.0370346
0.0370833
0.0371337
0.0371852
0.0372372
0.0372898
0.037343
0.037397
0.0374532
0.0375128
0.0375775
0.0376495
0.0377316
0.037827
0.0379391
0.0380709
0.0382245
0.0384011
0.0386002
0.0388192
0.0390489
0.0392327
0.0391887
0.0383669
0.228183
0.229879
0.189319
0.304647
0.456423
0.505591
0.638158
0.972231
1.00203
0.600779
0.157942
0.00734037
0.026958
0.0440573
0.0426385
0.0413146
0.0403029
0.0394872
0.038826
0.0382958
0.0378749
0.0375444
0.0372863
0.0370869
0.0369364
0.0368262
0.0367483
0.0366969
0.0366676
0.0366561
0.0366585
0.0366719
0.0366938
0.0367223
0.0367556
0.0367925
0.0368319
0.0368729
0.0369149
0.0369574
0.0369999
0.0370426
0.0370854
0.0371284
0.0371723
0.0372181
0.0372667
0.0373196
0.0373783
0.037445
0.0375215
0.0376095
0.0377101
0.0378237
0.0379493
0.0380863
0.0382356
0.0383783
0.0384059
0.037809
0.0366388
0.040411
0.0445986
0.0495632
0.055647
0.0631784
0.072516
0.0840763
0.0983069
0.115719
0.136958
0.162866
0.194686
0.234581
0.286511
0.356915
0.452171
0.564414
0.629589
0.467219
0.0364297
0.0397645
0.0435092
0.048042
0.0537161
0.0608753
0.0699039
0.0812709
0.0955168
0.113294
0.135443
0.16305
0.197639
0.241713
0.299803
0.379547
0.489226
0.621231
0.708155
0.594957
0.0362188
0.0390943
0.0423672
0.0464203
0.0516087
0.0582793
0.0668215
0.077723
0.0915762
0.109135
0.131405
0.159694
0.195757
0.242252
0.303689
0.387306
0.500141
0.633639
0.733079
0.658394
0.0360144
0.0384269
0.0412179
0.0447637
0.0494123
0.0555046
0.0634174
0.0736214
0.0867029
0.103442
0.124927
0.152606
0.188369
0.234833
0.295996
0.377685
0.484817
0.610241
0.715235
0.722094
0.0358233
0.0377876
0.0401068
0.0431403
0.0472214
0.0526774
0.0598628
0.0692056
0.0812311
0.0966549
0.116523
0.142289
0.175842
0.219631
0.276979
0.352205
0.448581
0.561294
0.667512
0.727008
0.0356512
0.0371977
0.0390737
0.0416129
0.045127
0.0499241
0.0563326
0.0647289
0.0755472
0.0893654
0.10706
0.129916
0.159655
0.198451
0.249008
0.314468
0.397123
0.494542
0.59484
0.676247
0.0355022
0.0366739
0.0381496
0.0402321
0.0432063
0.0473569
0.0529852
0.0604208
0.0700095
0.0821691
0.0975259
0.117044
0.142087
0.174418
0.21617
0.269672
0.336723
0.416661
0.503946
0.587673
0.0353786
0.0362268
0.0373551
0.039033
0.0415168
0.0450643
0.0499487
0.0564618
0.0648869
0.0755156
0.0887323
0.105121
0.125553
0.151223
0.183631
0.224454
0.275143
0.336032
0.405126
0.477618
0.0352815
0.0358617
0.0366999
0.0380335
0.0400921
0.0431044
0.0473132
0.0529775
0.0603451
0.0696436
0.0811056
0.095014
0.111763
0.131918
0.156261
0.185761
0.221416
0.263864
0.312798
0.36654
0.0352108
0.0355787
0.0361827
0.0372354
0.0389426
0.0415035
0.0451284
0.0500435
0.0564727
0.0646284
0.0747013
0.0868427
0.101153
0.11771
0.136645
0.15823
0.182907
0.211152
0.243191
0.278581
0.0351659
0.0353701
0.0357849
0.0366119
0.0380359
0.0402256
0.0433611
0.0476311
0.0532292
0.0603626
0.0692433
0.0800442
0.0927667
0.107207
0.123016
0.139958
0.158035
0.177331
0.197069
0.212023
0.0350525
0.0351855
0.0353685
0.0358592
0.036794
0.0382994
0.0405128
0.0435613
0.0475588
0.052616
0.0588443
0.0661936
0.0738517
0.080812
0.0863194
0.0874823
0.0813565
0.0662172
0.0490293
0.0390876
0.0110384
0.0213705
0.0163202
0.0137787
0.0123924
0.0116044
0.0110015
0.0103293
0.00939819
0.00816866
0.00775343
0.00872518
0.0112429
0.0154718
0.0213134
0.0289782
0.0392071
0.054248
0.0727861
0.0969214
0.0114618
0.0120122
0.0144324
0.0164692
0.0185658
0.0211216
0.0245695
0.0294247
0.0366857
0.0455866
0.0522831
0.0575923
0.0678872
0.0806425
0.0978424
0.121361
0.150503
0.162798
0.193895
0.226489
0.00710714
0.0102489
0.0107081
0.0133455
0.0174142
0.0224325
0.0277054
0.0323344
0.03601
0.0410988
0.0686864
0.0766695
0.0789185
0.0795197
0.0782184
0.0744436
0.0656647
0.0458868
0.0598876
0.0704584
0.0122076
0.0162515
0.0183581
0.0222323
0.0196933
0.0156528
0.012474
0.0103559
0.00914155
0.00883769
0.00853219
0.00877766
0.0115525
0.0136454
0.0139201
0.0132177
0.0122556
0.013339
0.0138811
0.0108344
0.0137783
0.0169043
0.01782
0.0288675
0.0342967
0.0352601
0.0350969
0.0347689
0.0346507
0.0353176
0.0352529
0.0329252
0.0292042
0.0278804
0.0296994
0.0331774
0.0375982
0.041913
0.0428243
0.0442457
0.0158026
0.0176052
0.0179778
0.0287259
0.0343451
0.0355408
0.0358124
0.0359872
0.036235
0.0366702
0.0374045
0.0381439
0.0390133
0.0401293
0.0416303
0.0432988
0.0445787
0.0448123
0.0441954
0.0442036
0.0165352
0.0183498
0.019212
0.0296888
0.0344023
0.0352585
0.035483
0.0356883
0.0359168
0.036197
0.0366187
0.0372685
0.0381072
0.0390726
0.0401188
0.0410901
0.0417642
0.042013
0.042032
0.0421991
0.0169446
0.0189527
0.0211327
0.0312297
0.0347124
0.0351834
0.0353254
0.0355038
0.0357218
0.0359809
0.0363221
0.0367931
0.0373842
0.0380552
0.0387635
0.0394293
0.0399581
0.0403098
0.0405447
0.0407641
0.0167582
0.0193069
0.0239166
0.0329986
0.0350308
0.0351902
0.0352652
0.0353977
0.0355737
0.0357927
0.0360692
0.036421
0.0368481
0.0373303
0.0378359
0.0383203
0.0387385
0.0390694
0.0393269
0.0395411
0.0152079
0.0195749
0.0276391
0.0344518
0.0352182
0.0352071
0.0352393
0.0353257
0.0354504
0.0356124
0.0358182
0.0360744
0.0363804
0.0367242
0.0370845
0.0374343
0.0377484
0.0380133
0.03823
0.0384084
0.0152372
0.0207975
0.0318955
0.0352245
0.0352648
0.0352076
0.0352166
0.0352647
0.0353415
0.0354467
0.0355831
0.035753
0.0359548
0.0361807
0.0364174
0.0366485
0.0368598
0.0370427
0.037196
0.0373229
0.0174849
0.0260913
0.0349196
0.0353313
0.0352224