/*--------------------------------*- C++ -*----------------------------------*\
| =========                 |                                                 |
| \\      /  F ield         | OpenFOAM: The Open Source CFD Toolbox           |
|  \\    /   O peration     | Version:  v1912                                 |
|   \\  /    A nd           | Website:  www.openfoam.com                      |
|    \\/     M anipulation  |                                                 |
\*---------------------------------------------------------------------------*/
FoamFile
{
    version     2.0;
    format      ascii;
    class       volScalarField;
    location    "54";
    object      p;
}
// * * * * * * * * * * * * * * * * * * * * * * * * * * * * * * * * * * * * * //

dimensions      [1 -1 -2 0 0 0 0];


internalField   nonuniform List<scalar> 
20320
(
418441
428694
428720
428772
428843
428931
429033
429148
429272
429402
429535
429669
429800
429924
430040
430144
430233
430307
430362
430395
398517
408430
408464
408517
408589
408678
408782
408897
409021
409152
409286
409419
409550
409675
409789
409892
409979
410049
410099
410130
379192
388793
388828
388883
388955
389044
389147
389263
389387
389517
389651
389784
389914
390037
390150
390252
390338
390406
390456
390488
360466
369768
369803
369857
369929
370017
370119
370234
370357
370486
370619
370750
370878
370999
371111
371210
371295
371364
371414
371450
342327
351338
351371
351424
351495
351582
351683
351795
351917
352044
352175
352304
352430
352548
352657
352755
352838
352905
352957
352996
324762
333487
333520
333571
333640
333725
333823
333933
334052
334177
334304
334430
334553
334669
334775
334869
334949
335015
335067
335108
307758
316203
316234
316284
316350
316432
316526
316632
316747
316867
316990
317112
317230
317342
317444
317534
317611
317674
317725
317768
291301
299474
299503
299550
299613
299690
299780
299880
299988
300102
300218
300334
300446
300552
300647
300732
300803
300863
300911
300955
275382
283286
283314
283357
283415
283486
283569
283661
283761
283866
283973
284079
284182
284278
284364
284440
284504
284557
284602
284645
259988
267630
267655
267693
267745
267808
267882
267964
268053
268145
268239
268331
268419
268501
268574
268637
268690
268733
268772
268812
245110
252493
252514
252547
252591
252645
252707
252775
252848
252923
252999
253072
253140
253201
253254
253297
253331
253360
253389
253424
230737
237867
237883
237910
237944
237986
238033
238084
238137
238190
238241
238287
238326
238357
238380
238393
238400
238406
238418
238443
216857
223740
223752
223769
223793
223820
223850
223880
223908
223932
223950
223960
223959
223948
223925
223894
223858
223827
223812
223818
203463
210102
210107
210116
210127
210138
210146
210151
210150
210138
210115
210076
210021
209949
209862
209762
209660
209569
209509
209481
190545
196944
196944
196943
196939
196932
196917
196893
196856
196802
196727
196628
196501
196346
196165
195963
195756
195567
195427
195334
178093
184258
184251
184239
184220
184193
184153
184097
184020
183917
183781
183607
183390
183124
182811
182457
182083
181727
181445
181219
166095
172031
172018
171995
171961
171913
171847
171757
171637
171480
171276
171015
170686
170279
169787
169212
168576
167930
167377
166891
154542
160254
160234
160201
160152
160084
159991
159867
159704
159491
159214
158857
158401
157824
157103
156222
155181
154031
152928
151871
143421
148916
148890
148847
148784
148696
148579
148423
148218
147950
147600
147146
146556
145791
144802
143530
141911
139918
137665
135153
132720
138005
137973
137921
137845
137740
137600
137415
137172
136855
136440
135895
135179
134231
132966
131259
128926
125694
121186
114710
162164
164165
162515
160493
158383
156476
155391
156686
159781
163307
162579
155358
143864
130570
118512
108495
99140.5
91367.5
84044.5
75710.5
67368.3
60848.2
54397.2
49247.8
46013.1
43755.5
40755.6
38497.6
37207.8
35727.7
33919.6
34486.3
32041.9
32233.8
32535.5
31787.2
30857.2
30687
30649.6
30610.4
30182.4
30072.5
29967.4
28069.3
27979.7
27750
27615.2
27676.3
27613.5
28382.4
29055.4
23272.4
20703.7
30222.7
17034.2
15723.8
14799.7
14652.6
14623.6
15435.4
157061
159036
157562
155643
153413
151352
150487
150624
152575
155249
155258
149221
138363
124577
111576
100627
91123.8
84104.3
77941.4
70365
62065
55712.9
49287.5
44055.2
40481.1
38847.8
35738.3
33284.6
31957.5
30904.4
28914.5
28092
30248
30204.5
29732.9
29343
29133.4
29188.1
27634.1
26918.8
26447.4
26023.3
25711.3
24862.2
24281.8
24025
23907.9
23873.8
23909
23754
23184.7
19373.8
14674.8
15098
14810.3
14753.1
14754.7
14715.9
14740.5
14743.4
151728
154150
152726
150840
148635
146278
144570
143639
144518
148140
150107
144759
134683
122543
112099
100091
95229.8
86283.1
77637.4
68442.8
60692.8
52231.2
45757.4
41432.9
38279.1
34695.4
32419
30862.4
29111.9
27860
27071.5
25784.6
24994.2
24359.6
23879.5
23569.7
23364.4
23113.5
22416.9
21745.1
21393.7
20879.1
20236.9
19687.9
19201.2
18849.4
18634.5
18508.5
18387.3
18208.8
17604.8
15684.3
14302.5
14663.2
14744.6
14722.9
14720.9
14713.6
14732
14725.5
146453
149082
147967
146092
143787
141077
138445
136268
135825
139288
146428
144447
135659
123302
112294
100510
87558.7
77108.6
67742.6
59261.8
52160.9
45411.3
40193.5
36367.5
33052.9
29598
27924.4
26488.4
24910.3
23283.9
22289.2
20590.7
19561.8
18847.3
18267.4
17852.2
17589.7
17362.1
16921.6
16424.2
16052.7
15567.6
15031
14532.1
14050.5
13556.4
13219.9
12997.3
12680.8
12538.3
12481
12000.1
12659.8
14249.8
14733
14719.4
14712.8
14714.6
14724.9
14672.9
141310
143894
142992
141314
139063
136035
132556
129211
125737
132552
146517
144415
130546
113953
99844.7
87200.3
75666.5
66010.5
57382.1
49858.6
43445.1
37797.7
33161.9
29653.1
26742.9
24024
22199.7
20747.8
19293.8
17869.4
16713.8
15309.9
14208
13329.7
12639.2
12079.9
11731.6
11533.3
11279.1
10977.5
10670.7
10147.5
9701.48
9304.25
8833.56
8145.71
7667.01
7297.52
6582.75
6717.62
7604.35
7843.35
8696.27
10893.8
13586.6
14697.2
14716.8
14714.4
14710.3
13090.8
136251
138746
138049
136526
134536
131414
127616
122533
118202
133298
140932
129605
115731
101290
87620
74809.6
63401
53960
45977
39346.7
33842.2
29225.5
25440.2
22493.3
20069.4
17907.3
16265.2
14890.7
13504.4
12213.1
11090.9
9774.14
8781.95
7801.9
7036.53
6243.18
5739.74
5552.47
5454.59
5405.34
5249.67
4540.1
4232.12
4066.62
3631.9
2450.05
1892.44
1576.59
410.006
226.049
1429.09
3501.84
4368.13
6139.42
8345.89
11429.2
13699.5
12850.5
10210.9
8738.97
131216
133641
133264
131931
130280
127376
123003
116326
117769
129117
127691
116233
102925
88133.4
73793.3
60744.4
49543.1
40497
33300.1
27707.2
23287.3
19788.1
16994.3
14786.8
12946.5
11324.7
10016
8822.51
7454.94
6226.2
5314.72
3933.37
3344.9
2085.66
1352.25
876.47
626.735
599.552
604.162
666.576
789.242
193.277
-18.9626
-21.0281
-18.4037
-17.0341
-18.4491
-21.1329
-17.0607
-24.0614
-32.8087
-26.6524
562.544
1161.71
2968.44
4666.17
5824.47
6029.85
5591.01
4859.8
126125
128467
128692
128203
126585
123704
118905
113972
115520
122542
113908
102059
88178.9
72884.5
58023.9
44825
33960.1
25545.9
19208.6
14870.2
11610.9
9335.08
7679.89
6385.16
5247.35
4208.72
3439.1
2693.18
1551.9
767.156
671.9
89.7517
-17.3008
4.79396
-13.709
-17.9338
-19.3874
-20.9406
-22.5149
-23.9543
-25.1695
-21.9316
-22.734
-28.1776
-29.3232
-24.7263
-25.9371
-26.8277
-25.4347
-27.8061
-33.5524
-43.963
-58.0731
-150.814
-918.041
-694.245
478.605
1069.46
976.242
869.038
120894
123593
124021
124195
123111
120764
115637
113435
114355
111284
99587.1
86712.6
71852.2
55774.6
40372.2
26995.2
16130.2
8490.39
3153.69
1355
778.11
474.048
313.387
203.936
100.636
-30.1203
-33.8899
-32.4988
-35.5713
-4.35847
-17.6234
-11.6517
-15.383
-16.9909
-18.9537
-22.5815
-25.1354
-27.4134
-29.1566
-30.3839
-31.3617
-29.8461
-29.7549
-32.6938
-34.1086
-32.444
-32.6104
-33.3626
-33.6554
-36.3269
-42.0371
-50.9229
-62.2947
-72.1364
-104.18
-229.397
-680.845
-678.039
-337.921
-110.49
116073
119025
119502
119785
119829
118126
114136
113449
110368
97974.9
85094.3
70571.8
54224.1
37024.7
20552.2
6588.6
700.975
-14.6536
-11.3057
-29.1382
-35.3306
-36.9768
-37.4255
-36.7964
-35.1873
-28.383
-32.0329
-32.1572
-31.8644
-22.9692
-24.4245
-22.8491
-22.3332
-23.886
-25.2049
-27.9975
-30.5876
-32.9219
-34.7521
-36.0891
-37.0602
-36.7093
-36.5865
-38.349
-39.643
-39.3288
-39.5922
-40.4446
-41.5574
-44.4422
-49.9199
-57.9964
-68.5433
-79.8346
-88.9488
-94.5195
-92.3525
-95.0516
-95.8049
-90.3172
111549
114522
114641
115161
115947
115407
114531
113376
99540.5
85580
70595.5
53883.9
35673.2
16350.1
1433.58
4.45555
-21.8709
-28.0101
-34.5512
-40.0347
-45.2437
-47.019
-47.3971
-46.7459
-45.3536
-40.1926
-39.3285
-38.9756
-38.0739
-32.622
-31.3888
-30.6438
-29.7645
-30.7959
-31.8372
-33.9934
-36.3341
-38.567
-40.4119
-41.8439
-42.8968
-43.1316
-43.3126
-44.4914
-45.6812
-46.1008
-46.7031
-47.7685
-49.3853
-52.4225
-57.5832
-65.0457
-74.3944
-84.6629
-94.2729
-101.622
-103.236
-104.399
-104.048
-100.712
105991
109241
109051
109933
111880
115074
116592
103643
89294.2
73655.1
56089.7
36917
15965.5
674.086
-19.8014
-25.0314
-35.1328
-42.1593
-47.7329
-51.7446
-55.0799
-56.2449
-56.1216
-55.1529
-53.6103
-49.9639
-47.3134
-45.9146
-44.599
-41.0171
-39.0654
-38.1401
-37.3558
-37.7172
-38.6893
-40.3988
-42.4185
-44.4488
-46.2331
-47.7129
-48.8601
-49.4829
-49.9639
-50.9626
-52.1349
-52.9979
-53.9447
-55.2826
-57.231
-60.353
-65.2515
-72.0591
-80.4024
-89.4246
-97.8402
-104.275
-106.939
-108.117
-107.869
-106.21
99958.7
103039
102684
103546
109392
113868
111048
93733.2
79502.8
61743.8
41581.5
19428.2
748.355
-26.8124
-32.4848
-41.8487
-49.4846
-55.1986
-59.4224
-62.4329
-64.4762
-65.0683
-64.5448
-63.3002
-61.544
-58.603
-55.5494
-53.3674
-51.5358
-48.8879
-46.8523
-45.6903
-44.8743
-44.8877
-45.6829
-47.0647
-48.7893
-50.5864
-52.271
-53.766
-55.0094
-55.9019
-56.6563
-57.7041
-58.9319
-60.0841
-61.3343
-62.9402
-65.1119
-68.269
-72.8739
-79.0459
-86.5087
-94.4738
-101.896
-107.608
-110.676
-112.009
-111.966
-111.018
94405.4
96567.4
95668.1
95496.4
101763
107262
96757.1
85362.9
69453.9
49585.8
26988.2
3050.33
-15.3157
-37.4471
-48.0189
-56.65
-62.3699
-66.6859
-69.8376
-72.0143
-73.2653
-73.4195
-72.6229
-71.161
-69.2256
-66.5676
-63.546
-60.982
-58.8393
-56.5439
-54.5766
-53.2785
-52.404
-52.2445
-52.8232
-53.9522
-55.4102
-56.9929
-58.5752
-60.0678
-61.3914
-62.485
-63.4878
-64.657
-65.9776
-67.3434
-68.8533
-70.6828
-73.014
-76.1739
-80.4873
-86.0691
-92.699
-99.7461
-106.319
-111.46
-114.587
-116.053
-116.191
-115.485
89610.9
90377.7
88742.1
86110
96009.2
98280.9
88357.6
76252.7
58945.8
37289.9
11546.2
53.7376
-46.6425
-53.3516
-62.7933
-69.1477
-73.5539
-76.7721
-79.0979
-80.6509
-81.3973
-81.2538
-80.2994
-78.7191
-76.6791
-74.1427
-71.2819
-68.6232
-66.3148
-64.1428
-62.278
-60.9188
-60.0149
-59.7432
-60.1374
-61.0462
-62.2769
-63.6866
-65.1777
-66.6559
-68.0397
-69.2868
-70.4839
-71.7792
-73.2062
-74.7435
-76.4555
-78.4568
-80.9093
-84.0563
-88.1183
-93.1785
-99.061
-105.278
-111.075
-115.707
-118.743
-120.282
-120.563
-119.94
85531.1
84828.1
81723
78840.6
86800
90168
80070.3
66705
48157
24880.4
897.772
-57.3542
-59.5186
-68.4685
-75.1395
-79.8801
-83.23
-85.6469
-87.3777
-88.4854
-88.9123
-88.5997
-87.5817
-85.9772
-83.9258
-81.4939
-78.8145
-76.2105
-73.8728
-71.7811
-70.0049
-68.6409
-67.7295
-67.3891
-67.6374
-68.359
-69.4097
-70.6816
-72.087
-73.5363
-74.9566
-76.3105
-77.6471
-79.0546
-80.5843
-82.2531
-84.1097
-86.2412
-88.781
-91.906
-95.7572
-100.378
-105.621
-111.089
-116.191
-120.347
-123.206
-124.757
-125.129
-124.543
81818.5
80011.4
77220.3
76713.6
78620.9
84710.1
72051.4
57348.4
37646.9
11913.9
23.3554
-67.0546
-74.444
-81.2267
-85.8705
-89.2812
-91.7491
-93.573
-94.8829
-95.6854
-95.9209
-95.5316
-94.5205
-92.9683
-90.9943
-88.7
-86.2106
-83.7455
-81.4864
-79.4904
-77.7983
-76.4749
-75.5839
-75.2025
-75.3379
-75.9109
-76.8176
-77.9695
-79.2877
-80.6935
-82.1227
-83.5412
-84.9736
-86.4717
-88.0872
-89.8514
-91.8092
-94.0319
-96.6224
-99.7083
-103.375
-107.625
-112.32
-117.143
-121.639
-125.351
-127.994
-129.499
-129.911
-129.351
77852.8
76777
76534.7
76295.8
76539.8
76048.4
64342.9
48551
27911.3
1471.23
-79.8881
-79.5954
-87.4863
-92.2038
-95.4252
-97.7406
-99.4923
-100.858
-101.856
-102.445
-102.565
-102.153
-101.196
-99.7527
-97.9225
-95.8121
-93.5398
-91.2725
-89.1638
-87.2927
-85.7033
-84.4538
-83.6016
-83.1978
-83.2474
-83.7011
-84.4843
-85.5235
-86.7514
-88.1001
-89.5146
-90.9624
-92.4537
-94.0183
-95.6986
-97.53
-99.5535
-101.828
-104.43
-107.449
-110.934
-114.859
-119.091
-123.372
-127.347
-130.666
-133.084
-134.502
-134.919
-134.391
73171.2
73369.4
75905
75080
74504.2
70212.9
57232.4
40586.4
18488
61.3879
-81.5172
-92.7736
-98.6169
-101.992
-104.125
-105.604
-106.802
-107.799
-108.545
-108.969
-109.003
-108.589
-107.711
-106.412
-104.773
-102.89
-100.869
-98.8406
-96.9289
-95.2137
-93.7476
-92.5882
-91.7831
-91.3693
-91.3542
-91.7089
-92.3815
-93.3132
-94.4484
-95.7304
-97.1107
-98.5594
-100.078
-101.683
-103.405
-105.277
-107.334
-109.624
-112.202
-115.128
-118.424
-122.05
-125.884
-129.712
-133.252
-136.229
-138.432
-139.755
-140.164
-139.673
67605.4
69410.2
70092
69468.4
70853
62214.5
50697.4
33348.3
9910.74
-46.327
-98.0512
-104.248
-108.686
-110.99
-112.279
-113.165
-113.948
-114.644
-115.172
-115.447
-115.403
-114.993
-114.203
-113.065
-111.643
-110.015
-108.267
-106.49
-104.798
-103.257
-101.926
-100.864
-100.111
-99.698
-99.6348
-99.9078
-100.483
-101.312
-102.354
-103.562
-104.893
-106.32
-107.838
-109.457
-111.197
-113.083
-115.145
-117.419
-119.944
-122.755
-125.859
-129.206
-132.691
-136.133
-139.307
-141.992
-144.006
-145.243
-145.647
-145.2
61162.8
64142.8
65665.9
65367.5
70555.3
56729.6
44685.5
26976.6
2403.09
-112.575
-109.36
-115.29
-118.177
-119.536
-120.183
-120.653
-121.126
-121.579
-121.932
-122.099
-122.011
-121.625
-120.932
-119.95
-118.726
-117.323
-115.813
-114.264
-112.777
-111.41
-110.22
-109.26
-108.566
-108.165
-108.07
-108.278
-108.767
-109.502
-110.453
-111.582
-112.851
-114.236
-115.731
-117.339
-119.071
-120.946
-122.988
-125.221
-127.67
-130.351
-133.262
-136.351
-139.526
-142.635
-145.497
-147.932
-149.785
-150.95
-151.357
-150.964
54306.5
57161.9
58587.2
68157.1
57653.8
52140.1
39029.3
21341.7
323.576
-117.268
-120.464
-125.484
-127.293
-127.882
-128.047
-128.21
-128.453
-128.739
-128.955
-129.032
-128.913
-128.562
-127.961
-127.119
-126.067
-124.853
-123.538
-122.187
-120.87
-119.653
-118.591
-117.732
-117.107
-116.734
-116.627
-116.789
-117.207
-117.859
-118.722
-119.77
-120.968
-122.297
-123.75
-125.325
-127.028
-128.869
-130.868
-133.039
-135.393
-137.936
-140.656
-143.507
-146.403
-149.222
-151.815
-154.036
-155.75
-156.856
-157.276
-156.944
47057.5
49530.1
48773.9
60477.9
51396.9
45787.3
33399.7
15861.1
11.9541
-119.566
-131.677
-135.03
-136.157
-136.179
-135.982
-135.908
-135.988
-136.12
-136.218
-136.219
-136.074
-135.744
-135.215
-134.487
-133.582
-132.534
-131.394
-130.216
-129.059
-127.981
-127.032
-126.26
-125.694
-125.355
-125.255
-125.396
-125.767
-126.352
-127.138
-128.106
-129.231
-130.494
-131.89
-133.414
-135.067
-136.855
-138.792
-140.882
-143.129
-145.529
-148.064
-150.692
-153.337
-155.898
-158.257
-160.29
-161.885
-162.943
-163.384
-163.124
39384.3
41722.2
42363.9
47851.4
47829.4
40130.8
28324.3
11212.1
-107.02
-135.395
-141.556
-144.001
-144.74
-144.445
-144.01
-143.763
-143.707
-143.713
-143.71
-143.646
-143.471
-143.154
-142.678
-142.041
-141.257
-140.35
-139.362
-138.337
-137.325
-136.375
-135.532
-134.841
-134.331
-134.022
-133.928
-134.052
-134.39
-134.931
-135.661
-136.563
-137.618
-138.811
-140.14
-141.6
-143.189
-144.908
-146.765
-148.76
-150.89
-153.145
-155.502
-157.922
-160.338
-162.669
-164.818
-166.684
-168.17
-169.189
-169.659
-169.488
31659.4
33647
35079.3
38088.7
41139.1
34816.3
23716.7
7662.44
-131.121
-147.695
-150.193
-152.369
-153.002
-152.644
-152.099
-151.781
-151.604
-151.504
-151.417
-151.294
-151.091
-150.78
-150.344
-149.78
-149.096
-148.307
-147.447
-146.554
-145.671
-144.838
-144.095
-143.481
-143.023
-142.74
-142.651
-142.763
-143.073
-143.572
-144.249
-145.096
-146.093
-147.226
-148.488
-149.877
-151.391
-153.029
-154.795
-156.684
-158.69
-160.799
-162.984
-165.21
-167.417
-169.538
-171.496
-173.207
-174.591
-175.571
-176.078
-176.02
24268.7
26039.6
30373.6
26363.2
32039.1
28288.6
19073.3
4749.97
-146.563
-157.412
-159.589
-160.88
-161.206
-160.825
-160.275
-159.908
-159.658
-159.478
-159.321
-159.148
-158.92
-158.611
-158.205
-157.699
-157.096
-156.407
-155.658
-154.879
-154.108
-153.378
-152.725
-152.183
-151.776
-151.525
-151.445
-151.545
-151.822
-152.278
-152.908
-153.702
-154.638
-155.709
-156.905
-158.226
-159.666
-161.22
-162.889
-164.666
-166.544
-168.507
-170.525
-172.567
-174.582
-176.511
-178.291
-179.855
-181.135
-182.069
-182.612
-182.704
17698.9
18285.6
12736.3
23539.3
23718.3
21639.1
14600
2440.06
-161.99
-168.604
-169.915
-169.959
-169.653
-169.105
-168.585
-168.172
-167.862
-167.622
-167.411
-167.197
-166.946
-166.637
-166.255
-165.795
-165.259
-164.653
-163.999
-163.319
-162.645
-162.007
-161.434
-160.958
-160.6
-160.379
-160.31
-160.403
-160.658
-161.077
-161.656
-162.391
-163.264
-164.269
-165.397
-166.644
-168.002
-169.47
-171.044
-172.714
-174.465
-176.283
-178.142
-180.011
-181.846
-183.596
-185.209
-186.629
-187.799
-188.67
-189.225
-189.511
11367.1
12365.7
11373.1
15912.7
18303.2
15932.5
10696.8
989.789
-180.354
-181.195
-180.473
-179.417
-178.392
-177.563
-177.007
-176.565
-176.218
-175.932
-175.678
-175.429
-175.16
-174.851
-174.487
-174.065
-173.584
-173.048
-172.473
-171.878
-171.29
-170.733
-170.233
-169.817
-169.505
-169.312
-169.256
-169.344
-169.583
-169.969
-170.502
-171.194
-171.998
-172.93
-173.981
-175.145
-176.421
-177.804
-179.277
-180.833
-182.458
-184.139
-185.85
-187.557
-189.224
-190.807
-192.262
-193.539
-194.592
-195.377
-195.877
-196.19
4679.48
7058.98
8549.75
8690.41
12179.1
10964.8
7371
428.21
-193.893
-191.436
-190.616
-188.811
-187.253
-186.195
-185.558
-185.09
-184.717
-184.399
-184.112
-183.837
-183.553
-183.244
-182.897
-182.506
-182.069
-181.591
-181.084
-180.563
-180.051
-179.564
-179.129
-178.769
-178.499
-178.334
-178.289
-178.376
-178.601
-178.959
-179.454
-180.084
-180.836
-181.703
-182.682
-183.767
-184.955
-186.239
-187.609
-189.055
-190.561
-192.106
-193.666
-195.219
-196.731
-198.159
-199.465
-200.605
-201.539
-202.223
-202.615
-202.652
-2229.69
1228.53
2975.21
3559.5
6478.51
6394.58
4497.67
219.081
-197.372
-199.258
-199.326
-197.628
-196.003
-194.917
-194.242
-193.754
-193.359
-193.018
-192.708
-192.414
-192.12
-191.812
-191.479
-191.114
-190.715
-190.286
-189.836
-189.379
-188.932
-188.508
-188.132
-187.82
-187.589
-187.45
-187.417
-187.504
-187.714
-188.048
-188.507
-189.088
-189.784
-190.592
-191.503
-192.511
-193.615
-194.807
-196.074
-197.408
-198.79
-200.206
-201.634
-203.042
-204.4
-205.676
-206.841
-207.855
-208.676
-209.267
-209.583
-209.56
-10685.2
-5222.66
-3504.78
-3014.9
-419.631
2081.24
1986.64
75.7195
-201.752
-205.492
-206.184
-205.566
-204.5
-203.647
-203.029
-202.55
-202.146
-201.789
-201.463
-201.156
-200.856
-200.55
-200.23
-199.887
-199.52
-199.132
-198.732
-198.328
-197.937
-197.569
-197.243
-196.976
-196.78
-196.665
-196.644
-196.731
-196.929
-197.241
-197.667
-198.204
-198.849
-199.599
-200.446
-201.383
-202.406
-203.509
-204.679
-205.907
-207.175
-208.469
-209.766
-211.04
-212.267
-213.412
-214.443
-215.332
-216.047
-216.561
-216.849
-216.922
-17751.7
-14155.3
-12479.1
-7432.18
-5009.88
-1205.01
-75.0972
43.9319
-217.453
-211.867
-212.587
-213.126
-212.867
-212.388
-211.904
-211.468
-211.071
-210.708
-210.374
-210.061
-209.758
-209.457
-209.147
-208.825
-208.486
-208.133
-207.773
-207.415
-207.072
-206.752
-206.47
-206.242
-206.076
-205.985
-205.977
-206.064
-206.253
-206.545
-206.941
-207.437
-208.035
-208.73
-209.515
-210.385
-211.333
-212.351
-213.429
-214.557
-215.719
-216.899
-218.078
-219.231
-220.336
-221.365
-222.291
-223.087
-223.72
-224.178
-224.453
-224.565
-23690.1
-21766.9
-22306.7
-14475.4
-9086.23
-4333.39
-1777.44
18.4518
-218.07
-219.87
-220.246
-221.109
-221.386
-221.221
-220.883
-220.503
-220.127
-219.77
-219.437
-219.124
-218.824
-218.527
-218.23
-217.926
-217.611
-217.287
-216.962
-216.643
-216.341
-216.061
-215.818
-215.623
-215.485
-215.415
-215.418
-215.508
-215.688
-215.963
-216.33
-216.791
-217.344
-217.986
-218.714
-219.521
-220.397
-221.336
-222.328
-223.361
-224.423
-225.499
-226.571
-227.615
-228.612
-229.539
-230.372
-231.087
-231.66
-232.082
-232.349
-232.474
-32122.7
-28936.9
-29719.5
-22775.5
-13429.4
-7465.7
-3323.15
-18.3068
-226.487
-228.483
-228.901
-229.773
-230.26
-230.247
-230
-229.669
-229.319
-228.977
-228.653
-228.345
-228.05
-227.761
-227.476
-227.189
-226.896
-226.6
-226.303
-226.018
-225.75
-225.505
-225.293
-225.128
-225.015
-224.963
-224.977
-225.068
-225.241
-225.499
-225.842
-226.27
-226.782
-227.375
-228.047
-228.793
-229.601
-230.466
-231.378
-232.324
-233.293
-234.274
-235.248
-236.194
-237.095
-237.932
-238.684
-239.329
-239.851
-240.241
-240.497
-240.626
-40854.4
-37238
-35323.1
-33115.8
-18273.1
-10339.5
-4720.24
-92.8937
-237.44
-239.271
-239.004
-239.32
-239.565
-239.515
-239.287
-238.983
-238.657
-238.333
-238.021
-237.724
-237.437
-237.158
-236.886
-236.615
-236.344
-236.07
-235.8
-235.542
-235.303
-235.087
-234.904
-234.764
-234.671
-234.635
-234.659
-234.752
-234.918
-235.16
-235.481
-235.878
-236.351
-236.9
-237.521
-238.207
-238.95
-239.745
-240.583
-241.448
-242.334
-243.228
-244.113
-244.971
-245.788
-246.544
-247.222
-247.806
-248.282
-248.642
-248.883
-249.011
-49088.9
-46754.5
-39475.6
-35756.4
-22371.9
-12126
-5625.41
-189.726
-247.481
-250.533
-250.003
-249.492
-249.245
-249.028
-248.759
-248.458
-248.148
-247.842
-247.546
-247.261
-246.986
-246.718
-246.458
-246.204
-245.952
-245.699
-245.452
-245.219
-245.004
-244.813
-244.655
-244.536
-244.46
-244.437
-244.47
-244.564
-244.723
-244.951
-245.25
-245.619
-246.057
-246.564
-247.137
-247.767
-248.449
-249.178
-249.945
-250.738
-251.548
-252.363
-253.167
-253.947
-254.688
-255.372
-255.984
-256.513
-256.946
-257.277
-257.502
-257.625
-56922
-54809.8
-48165.6
-35919.6
-24250.2
-13327.9
-5582.61
-265.575
-258.356
-261.422
-260.539
-259.696
-259.138
-258.75
-258.415
-258.101
-257.8
-257.51
-257.23
-256.958
-256.695
-256.439
-256.193
-255.954
-255.718
-255.485
-255.259
-255.048
-254.855
-254.686
-254.55
-254.447
-254.386
-254.373
-254.412
-254.508
-254.661
-254.875
-255.154
-255.495
-255.901
-256.37
-256.898
-257.477
-258.102
-258.769
-259.471
-260.196
-260.935
-261.677
-262.409
-263.119
-263.791
-264.409
-264.963
-265.441
-265.834
-266.137
-266.347
-266.462
-57745.1
-57495.4
-54991.5
-38073.6
-24327.9
-13623.3
-5094.57
-289.178
-273.073
-271.225
-270.423
-269.725
-269.105
-268.623
-268.243
-267.918
-267.623
-267.346
-267.079
-266.82
-266.569
-266.326
-266.093
-265.867
-265.647
-265.432
-265.227
-265.036
-264.862
-264.713
-264.593
-264.506
-264.456
-264.451
-264.494
-264.59
-264.738
-264.941
-265.201
-265.517
-265.892
-266.324
-266.809
-267.342
-267.915
-268.526
-269.167
-269.828
-270.501
-271.176
-271.842
-272.487
-273.095
-273.655
-274.156
-274.588
-274.946
-275.224
-275.418
-275.525
-57868.4
-57779.6
-53086.3
-36662.8
-23106.1
-12625.6
-4223.82
-289.535
-283.503
-280.85
-280.262
-279.675
-279.078
-278.594
-278.215
-277.897
-277.613
-277.348
-277.094
-276.848
-276.609
-276.38
-276.16
-275.947
-275.741
-275.542
-275.356
-275.183
-275.027
-274.895
-274.79
-274.715
-274.675
-274.676
-274.722
-274.817
-274.959
-275.15
-275.393
-275.686
-276.032
-276.43
-276.875
-277.365
-277.891
-278.449
-279.034
-279.637
-280.248
-280.86
-281.466
-282.05
-282.6
-283.107
-283.56
-283.953
-284.278
-284.533
-284.712
-284.813
-63952
-56601.5
-44439.1
-31679.5
-19802.3
-10490.6
-1685.53
-302.028
-293.421
-291.137
-290.228
-289.591
-289.064
-288.655
-288.326
-288.036
-287.77
-287.518
-287.277
-287.044
-286.819
-286.603
-286.396
-286.196
-286.003
-285.821
-285.65
-285.493
-285.354
-285.237
-285.145
-285.08
-285.049
-285.055
-285.103
-285.195
-285.329
-285.509
-285.736
-286.008
-286.328
-286.693
-287.102
-287.55
-288.032
-288.542
-289.075
-289.624
-290.179
-290.735
-291.283
-291.811
-292.307
-292.766
-293.177
-293.534
-293.831
-294.064
-294.23
-294.326
122430
127508
127472
127411
127324
127205
127046
126836
126562
126203
125734
125117
124297
123198
121700
119614
116608
112037
104400
90156.8
112261
117325
117284
117217
117121
116990
116815
116586
116287
115898
115390
114722
113833
112638
111000
108700
105345
100161
91568.3
76174.6
102122
107169
107125
107053
106950
106809
106622
106379
106063
105655
105123
104428
103509
102282
100616
98311.4
95042.4
90263.2
83076.3
71960.7
92014.1
97044.5
96997.8
96921.9
96812.8
96665
96470.5
96218.3
95893.2
95474.9
94935.8
94237.2
93325
92123.4
90524.1
88371.3
85437.3
81386.6
75736.1
67902.7
81938.6
86951.7
86903.3
86824.7
86712.1
86560.2
86361.3
86104.9
85777
85358.9
84825.4
84142.6
83264.3
82128.2
80650.4
78718.7
76183.4
72848.8
68477.7
62887.3
71896.6
76892.4
76842.9
76762.8
76648.5
76494.9
76294.7
76038.5
75713.4
75302.7
74784.6
74130.4
73302.4
72251.7
70916.3
69218.6
67063.6
64341.2
60939
56790
61888.7
66867.2
66817.5
66736.9
66622.4
66469
66270.2
66017.4
65699.2
65301
64804.3
64185.5
63414.5
62454.2
61260
59779.2
57952.3
55716.8
53016.9
49825.9
51915.2
56876.6
56827.1
56747
56633.4
56481.9
56286.4
56039.3
55730.8
55348.2
54875.8
54294.3
53580.1
52705.5
51639
50345.6
48787.8
46929
44739
42205.3
41975.7
46920.5
46871.6
46792.7
46680.9
46532.3
46341.6
46101.9
45804.7
45439
44991.4
44445.9
43783.9
42984.8
42027.4
40889.2
39547.2
37978.9
36164.9
34094.7
32069.6
36998.3
36950.7
36873.5
36764
36619
36433.8
36202.4
35917.5
35569.3
35145.8
34633
34015.6
33278.9
32410
31397
30227.6
28886.8
27357.6
25624.2
22195.1
27109.7
27064.1
26988.8
26881.7
26740.2
26560.9
26338.4
26066.4
25736.1
25335.9
24851.9
24269.7
23579.4
22777.9
21864.9
20836.9
19684.2
18385.5
16916.9
12349.2
17253.1
17210.6
17136.9
17031.5
16893.7
16720.2
16506.8
16248.2
15937.4
15562.6
15105
14547.7
13886.1
13132.7
12307.8
11417.6
10453.4
9388.38
8155.47
2509.56
7428.45
7390.04
7317.53
7213.63
7078.92
6911.05
6706.48
6461.56
6175.24
5839.6
5412.23
4867.1
4213.38
3510.07
2834.72
2218.7
1666.14
1178.29
613.081
-430.017
-163.772
-180.509
-204.249
-231.879
-263.051
-297.581
-335.264
-375.053
-409.911
-425.402
-426.529
-425.37
-425.363
-425.45
-425.564
-425.67
-424.643
-423.93
-423.399
-439.529
-434.322
-434.348
-434.346
-434.335
-434.322
-434.323
-434.347
-434.448
-434.563
-434.044
-434.367
-434.474
-434.544
-434.597
-434.622
-434.596
-434.504
-434.327
-434.236
-449.195
-444.107
-444.156
-444.158
-444.144
-444.128
-444.115
-444.112
-444.138
-444.166
-444.083
-444.091
-444.141
-444.182
-444.22
-444.249
-444.26
-444.25
-444.186
-444.167
-458.912
-453.962
-453.959
-453.958
-453.947
-453.933
-453.918
-453.905
-453.9
-453.901
-453.89
-453.903
-453.927
-453.958
-453.988
-454.013
-454.028
-454.034
-454.011
-454.006
-468.679
-463.769
-463.762
-463.754
-463.744
-463.731
-463.718
-463.706
-463.698
-463.694
-463.693
-463.702
-463.717
-463.737
-463.759
-463.78
-463.799
-463.812
-463.816
-463.821
-478.459
-473.56
-473.554
-473.546
-473.537
-473.526
-473.515
-473.505
-473.499
-473.497
-473.498
-473.504
-473.514
-473.529
-473.547
-473.565
-473.584
-473.599
-473.611
-473.621
-488.241
-483.345
-483.341
-483.335
-483.327
-483.319
-483.31
-483.303
-483.299
-483.299
-483.301
-483.305
-483.314
-483.326
-483.341
-483.357
-483.374
-483.389
-483.404
-483.418
-498.023
-493.129
-493.125
-493.121
-493.115
-493.109
-493.103
-493.099
-493.098
-493.098
-493.101
-493.106
-493.113
-493.124
-493.137
-493.151
-493.166
-493.181
-493.197
-493.213
-507.802
-502.91
-502.907
-502.905
-502.902
-502.898
-502.896
-502.894
-502.894
-502.895
-502.898
-502.903
-502.911
-502.921
-502.933
-502.946
-502.96
-502.974
-502.99
-503.007
-517.572
-512.687
-512.688
-512.688
-512.688
-512.687
-512.687
-512.687
-512.688
-512.69
-512.694
-512.7
-512.708
-512.717
-512.728
-512.741
-512.754
-512.769
-512.784
-512.802
-527.323
-522.461
-522.468
-522.472
-522.474
-522.476
-522.477
-522.479
-522.482
-522.485
-522.49
-522.496
-522.503
-522.512
-522.523
-522.535
-522.549
-522.563
-522.58
-522.598
35044.5
34510.3
33819.9
34347.5
38308.6
44766.5
52375.8
59605.2
65140.1
68100.4
67978.6
64408.6
56703.7
42811.9
16027.1
45727.3
29235.9
24299.6
24145.5
27443.9
33214.4
40261.9
47030.2
52189.6
54878.6
54619.1
51103
43852.8
31932.5
14505.8
55770.2
36466.5
25124
20858
21806.8
26188.4
32085.3
37816.1
42075
44120.3
43626.9
40462.3
34529.7
25826.7
14881
58054.9
45689.9
35408.4
28965.8
26533.8
27266.5
29947.6
32924.3
35076
35774.9
34727.4
31839.8
27151.6
20892.5
13666.7
56004.9
47877.7
40402.2
34658.6
31067.8
29472.2
29302.6
29648
29760.5
29141.5
27502.5
24732
20879.2
16184.4
11123.8
51810.1
45976
40325.9
35470.8
31728
29135.6
27419.4
26165.1
24928.7
23363.1
21247.1
18492.8
15146
11379.3
7490.46
46079.4
41674.9
37238.3
33117.3
29548
26594.5
24157
22040.1
20002.7
17835.2
15396.7
12618.7
9499.19
6144.39
2815.47
39270.4
35807.4
32217.7
28698.1
25415.2
22424.2
19709.8
17192.2
14751.3
12250.7
9572.2
6650.16
3551.21
1091.47
-377.691
31712.4
28889.4
25901.3
22876.7
19903.1
17050.7
14337.5
11706.8
9069.94
6301.64
3396.39
1121.47
-378.935
-367.944
-376.967
23630.4
21256.2
18727.6
16114.2
13478.8
10851.8
8199.69
5512.1
2726.14
804.096
-391.803
-378.383
-386.226
-386.068
-385.602
15226.7
13222.2
11071.4
8757.48
6367.64
3804.64
1640.08
19.0204
-420.51
-387.896
-395.682
-395.709
-395.549
-395.545
-395.434
6651.74
4824.68
2969.75
1436.97
157.631
-411.026
-403.303
-403.793
-406.105
-404.774
-405.061
-405.218
-405.284
-405.278
-405.228
-61.8529
-409.223
-424.827
-410.786
-413.796
-415.34
-415.237
-414.849
-414.93
-414.88
-414.937
-414.991
-415.028
-415.044
-415.039
-424.03
-424.982
-425.307
-424.65
-424.566
-424.687
-424.693
-424.708
-424.722
-424.718
-424.746
-424.781
-424.811
-424.834
-424.851
-434.382
-434.446
-434.476
-434.465
-434.469
-434.49
-434.491
-434.509
-434.517
-434.533
-434.554
-434.582
-434.611
-434.639
-434.666
-444.202
-444.245
-444.261
-444.28
-444.278
-444.281
-444.295
-444.308
-444.323
-444.341
-444.364
-444.392
-444.423