/*--------------------------------*- C++ -*----------------------------------*\
| =========                 |                                                 |
| \\      /  F ield         | OpenFOAM: The Open Source CFD Toolbox           |
|  \\    /   O peration     | Version:  v1912                                 |
|   \\  /    A nd           | Website:  www.openfoam.com                      |
|    \\/     M anipulation  |                                                 |
\*---------------------------------------------------------------------------*/
FoamFile
{
    version     2.0;
    format      ascii;
    class       volScalarField;
    location    "54";
    object      p_rgh;
}
// * * * * * * * * * * * * * * * * * * * * * * * * * * * * * * * * * * * * * //

dimensions      [1 -1 -2 0 0 0 0];


internalField   nonuniform List<scalar> 
20320
(
433708
433783
433810
433861
433932
434020
434122
434237
434361
434491
434625
434758
434889
435014
435129
435233
435322
435396
435451
435484
433595
433693
433727
433781
433853
433942
434045
434160
434285
434415
434549
434683
434814
434938
435053
435156
435243
435312
435362
435393
433370
433508
433543
433598
433670
433759
433863
433978
434102
434233
434366
434499
434629
434752
434866
434967
435053
435121
435171
435203
433060
433239
433273
433327
433399
433487
433590
433704
433827
433957
434089
434220
434348
434469
434581
434680
434765
434834
434884
434920
432677
432891
432925
432977
433048
433135
433236
433349
433470
433598
433728
433857
433983
434102
434211
434308
434391
434459
434510
434549
432232
432475
432508
432560
432629
432713
432812
432922
433040
433165
433292
433419
433541
433657
433763
433857
433938
434004
434055
434096
431734
432002
432034
432083
432149
432231
432326
432432
432546
432666
432789
432911
433030
433141
433243
433333
433410
433473
433524
433567
431193
431481
431511
431557
431620
431697
431787
431887
431996
432109
432226
432341
432454
432559
432655
432739
432811
432870
432918
432962
430619
430921
430949
430992
431050
431121
431204
431296
431396
431501
431608
431714
431817
431913
431999
432075
432139
432192
432237
432280
430021
430333
430358
430396
430448
430511
430585
430667
430755
430848
430941
431034
431122
431204
431277
431340
431392
431436
431475
431515
429408
429725
429746
429779
429822
429876
429938
430006
430079
430155
430230
430303
430371
430432
430485
430528
430563
430591
430620
430655
428789
429105
429122
429148
429183
429224
429272
429323
429376
429429
429479
429525
429565
429596
429618
429632
429639
429644
429657
429681
428171
428484
428496
428514
428537
428564
428594
428624
428652
428676
428694
428704
428703
428692
428669
428638
428602
428571
428556
428562
427564
427868
427874
427883
427894
427904
427913
427918
427916
427905
427881
427843
427788
427716
427628
427529
427427
427336
427276
427248
426975
427267
427266
427265
427261
427254
427239
427215
427178
427124
427049
426950
426823
426668
426487
426285
426078
425889
425749
425656
426409
426685
426678
426667
426648
426620
426581
426525
426448
426345
426209
426035
425817
425551
425238
424885
424511
424155
423873
423647
425872
426131
426117
426094
426061
426013
425946
425857
425737
425580
425376
425115
424786
424378
423887
423312
422675
422030
421477
420990
425370
425608
425588
425554
425505
425437
425345
425221
425058
424844
424568
424211
423755
423177
422457
421575
420534
419385
418281
417225
424903
425120
425094
425051
424988
424900
424782
424627
424422
424153
423804
423350
422760
421995
421006
419734
418115
416122
413869
411357
424475
424671
424639
424587
424511
424406
424266
424081
423838
423521
423105
422561
421845
420897
419631
417925
415592
412360
407851
401376
165924
165428
163773
161717
159652
157746
156654
157944
160741
164268
163840
156633
145138
131843
119518
109501
100146
92474.4
85318.6
76984.6
68642.4
62122.3
55671.4
50521.9
47287.2
45029.4
42029.7
39771.7
38481.9
37001.8
35193.7
35760.5
32083.5
32235.1
32536.8
31788.5
30858.5
30688.3
30653.6
30632.9
30204.2
31277.4
30917.2
28131.6
28041.9
27812.1
27677.3
27738.4
27675.5
29524.3
30329.5
24546.6
21977.8
31491.8
18300.9
16571.3
14801
14653.9
14624.9
16541.9
165750
165400
163934
162021
159743
157720
155448
156675
158967
161641
161650
155607
144655
130969
117967
107000
96426.5
87801.6
81100.7
73758.3
65943.4
61159.4
55353.5
50263.9
46616.8
45063.4
42054.4
39623.7
38328.3
37237.7
35295.6
28706.4
31139.3
36520.7
36108.5
35539.6
35222.7
35282.6
34019.5
33310.4
32839
32414.9
32102.9
31253.7
30673.5
30416.7
30299.4
30265.4
30300.7
30145.6
29576.3
25765.5
21059.7
20828.7
14910.1
14759.5
14761.3
14722.5
14755
14749.8
165968
165078
163677
162102
160050
157878
156171
155240
156119
159545
161181
156011
146252
132821
113779
100255
96098.1
90613.2
87241.8
79641.5
71511.9
62591.3
49382.4
45058
48306.5
40589.2
33723.1
32162.4
30492.7
30284.2
29648.9
37230.1
36595.1
35960.5
35480.4
35170.6
34965.3
34714.4
34017.8
33346.1
32994.6
32480.1
31837.8
31288.8
30802.2
30450.3
30235.4
30109.4
29988.2
29809.7
29205.8
27285.2
21290.7
14674.8
14756.2
14734.5
14732.5
14725.2
14743.7
14737.1
166007
165986
164871
162995
160691
157981
155349
153171
151413
155310
163204
158046
137099
123638
118250
117414
104462
94012.2
84646.2
76165.4
69064.5
62314.9
57097.1
53271.1
49956.5
46501.6
44828
43392
41813.9
40187.5
39192.8
37494.3
36465.4
35750.9
35171
34755.8
34493.3
34265.7
33825.2
33327.8
32956.3
32471.2
31934.6
31435.7
30954.1
30460
30123.5
29900.9
29584.4
29441.9
29382
28902.5
29563.4
20248.1
14749.9
14736.3
14737.4
14750.7
14743.4
14689.8
166322
166196
165293
163615
161364
158336
154767
148622
147040
149390
149242
150129
148083
136254
122146
109502
97967.7
88311.8
79683.4
72159.8
65746.4
60099
55463.2
51954.4
49044.2
46325.3
44501
43049.1
41595.1
40170.7
39015.1
37611.2
36509.3
35631
34940.5
34381.2
34032.8
33834.6
33580.4
33278.8
32972
32448.7
32002.8
31605.6
31134.9
30447
29968.3
29598.8
28884.1
29018.9
29905.7
30144.7
30997.5
33195.1
25391.1
14719.5
14744.3
14737.5
14732.6
30289.8
166831
166515
165842
164322
162331
157787
151796
150239
136344
133996
168728
157401
143527
129086
115416
102605
91196.9
81755.8
73772.9
67142.6
61638
57021.3
53236.1
50289.1
47865.3
45703.2
44061.1
42686.5
41300.3
40009
38886.7
37570
36577.8
35597.8
34832.3
34039
33535.6
33348.3
33250.4
33201.2
33045.5
32336
32028
31862.5
31427.7
30245.9
29688.3
29221.3
5736.34
1965.09
16337
31238.9
32164
33935.3
36141.7
33292.6
20922.5
29810.8
37999.1
36534.8
167439
167030
165890
159737
163220
160457
156392
149715
117803
152808
161080
149622
136314
121522
107182
94133.3
82932.1
73885.9
66689
61096.1
56676.2
53177.1
50383.3
48175.7
46335.4
44713.7
43404.9
42211.5
40843.9
39615.1
38703.7
37322.3
36733.9
34475.3
28334
20375.8
17638.7
19741.1
19944
20414
25250
5589.51
14.4263
22.0178
174.035
43.5343
14.9398
12.256
16.3282
9.32756
0.580246
6.73661
23256.3
34550.6
36357.4
38055.1
39213.5
39418.8
38979.9
38248.7
168092
167480
165317
157777
160197
162786
157033
118619
115559
161038
152991
141142
127261
111967
97106.2
83907.2
73042.5
64628.2
58290.8
53952.5
50693.2
48417.4
46762.2
45467.4
44329.6
43291
42521.4
41775.5
40197.9
35709.9
30745.7
4123.77
21.7815
43.8763
25.3733
21.1485
19.6949
18.1417
16.5674
15.128
13.9128
17.1507
16.3483
10.9047
9.75903
14.3559
13.1452
12.2546
13.6477
11.2762
5.53504
-4.79209
-18.9908
3832.02
36750.8
38388
39560.9
40151.7
40058.6
39951.3
168655
158213
165341
166808
160966
160923
154813
113480
123034
156162
144465
131590
116730
100652
85250
71873
61007.9
53368.2
44284.1
32616.9
22748.7
16592.4
12949.8
10213.4
6520.32
34.8988
10.9879
12.379
9.30649
40.5193
27.2545
33.2261
29.4947
27.8869
25.9242
22.2963
19.7424
17.4644
15.7212
14.4939
13.5161
15.0317
15.1229
12.184
10.7692
12.4338
12.2675
11.5152
11.2225
8.55092
4.50778
-3.25396
-17.4168
-27.2586
-59.3018
871.854
26719.2
34400.4
23199.9
-65.6125
157550
158196
169460
170563
159115
168551
125220
113500
155231
148752
135872
121349
105001
87801.9
71329.4
55185.7
19860.9
36.1235
39.4715
21.639
15.4466
13.8004
13.3517
13.9807
15.5899
22.3942
18.7442
18.62
18.9128
27.8079
26.3527
27.9281
28.444
26.8912
25.5722
22.7797
20.1896
17.8552
16.025
14.6881
13.7169
14.0678
14.1907
12.4282
11.1341
11.4484
11.185
10.3326
9.21975
6.33493
0.857314
-7.21931
-17.7661
-29.0574
-38.1716
-43.7423
-41.5754
-44.2744
-45.0277
-39.5401
157702
159575
171423
170900
172729
172189
114588
124233
156323
142362
127378
110666
92455.6
73132.5
33467
61.2379
34.9114
28.7723
22.2311
16.7477
11.5386
9.76341
9.38517
10.0364
11.4288
16.5897
17.4538
17.8067
18.7085
24.1603
25.3935
26.1385
27.0179
25.9864
24.9451
22.789
20.4482
18.2153
16.3705
14.9385
13.8855
13.6507
13.4698
12.2909
11.1011
10.6816
10.0792
9.01388
7.39696
4.35987
-0.800793
-8.26338
-17.6121
-27.8805
-37.4905
-44.8394
-46.4533
-47.6166
-47.2653
-43.9293
171984
172136
171946
172828
174775
127064
116655
166158
152189
136550
118985
99812.2
78860.7
15307
43.0939
37.8638
27.7625
20.7359
15.1623
11.1506
7.81529
6.65028
6.77364
7.74234
9.28488
12.9313
15.5818
16.9806
18.2962
21.878
23.8298
24.7551
25.5394
25.178
24.2059
22.4964
20.4767
18.4464
16.662
15.1824
14.0351
13.4123
12.9313
11.9326
10.7603
9.89725
8.95045
7.61264
5.66421
2.54224
-2.35634
-9.1639
-17.5073
-26.5294
-34.945
-41.3797
-44.0438
-45.2221
-44.974
-43.315
172229
172098
171801
172664
161143
113937
166626
162851
148621
130862
110699
88545.9
20080.1
42.3053
36.6329
27.2689
19.6331
13.9191
9.69524
6.68482
4.64152
4.04943
4.57286
5.81746
7.57369
10.5147
13.5684
15.7503
17.582
20.2298
22.2655
23.4274
24.2435
24.23
23.4348
22.053
20.3284
18.5313
16.8467
15.3517
14.1083
13.2158
12.4613
11.4136
10.1858
9.03357
7.78342
6.17748
4.00578
0.848697
-3.75614
-9.92816
-17.391
-25.356
-32.7781
-38.4902
-41.5582
-42.8911
-42.8487
-41.9001
173067
172019
171120
170948
121512
113998
172209
160815
144906
125038
102440
56164.2
60.136
38.0047
27.4329
18.8018
13.0819
8.76587
5.6141
3.43738
2.18649
2.0322
2.82888
4.29079
6.22611
8.88407
11.9057
14.4698
16.6125
18.9079
20.8751
22.1732
23.0477
23.2073
22.6285
21.4995
20.0416
18.4588
16.8766
15.3839
14.0603
12.9667
11.964
10.7948
9.47413
8.10835
6.59844
4.76891
2.43775
-0.722128
-5.03553
-10.6174
-17.2472
-24.2944
-30.8676
-36.0082
-39.1355
-40.6012
-40.7389
-40.0333
174777
172277
170641
165898
98282.1
175137
170257
158152
140845
119189
93445.6
135.637
35.2569
28.5478
19.1061
12.7518
8.3455
5.12728
2.80148
1.24851
0.502017
0.645634
1.60001
3.18032
5.22033
7.75667
10.6175
13.2763
15.5846
17.7566
19.6214
20.9806
21.8845
22.1562
21.762
20.8532
19.6225
18.2127
16.7217
15.2436
13.8597
12.6126
11.4155
10.1202
8.69311
7.15591
5.44386
3.44263
0.990112
-2.15694
-6.21889
-11.279
-17.1616
-23.3784
-29.1759
-33.8074
-36.8436
-38.3829
-38.6636
-38.0411
177319
173291
157518
94015.2
86888.4
178623
168533
155168
136620
113343
29072.5
31.1085
28.9441
19.9942
13.3232
8.58252
5.2326
2.81574
1.08492
-0.0227344
-0.449678
-0.137015
0.880965
2.48553
4.53687
6.96869
9.64818
12.2521
14.5899
16.6816
18.4577
19.8217
20.7331
21.0736
20.8253
20.1037
19.053
17.781
16.3757
14.9263
13.506
12.1522
10.8156
9.40807
7.87835
6.20952
4.3529
2.22152
-0.318361
-3.44341
-7.29447
-11.9153
-17.1579
-22.6262
-27.7284
-31.8842
-34.7433
-36.2942
-36.6665
-36.0806
180347
174401
77315.5
79386.7
78716
179854
167195
152492
132791
107057
118.499
28.089
20.6996
13.917
9.27306
5.8625
3.39453
1.57064
0.260718
-0.541763
-0.777237
-0.388014
0.623126
2.17526
4.14926
6.44368
8.93303
11.3982
13.6573
15.6532
17.3453
18.6687
19.5597
19.9411
19.8057
19.2328
18.326
17.1742
15.8559
14.4501
13.0209
11.6024
10.1701
8.67194
7.05638
5.29217
3.33441
1.11178
-1.47881
-4.5646
-8.23095
-12.4815
-17.1768
-21.9996
-26.4953
-30.2079
-32.8505
-34.3551
-34.7672
-34.2077
183243
173156
76636.7
76724.7
78678.8
177993
166287
150495
129856
55727.7
22.0562
22.3489
14.4581
9.74052
6.51906
4.2037
2.45201
1.08633
0.0887016
-0.501131
-0.620771
-0.208345
0.748318
2.19164
4.02179
6.13224
8.40445
10.6719
12.7805
14.6516
16.2411
17.4905
18.3427
18.7466
18.6969
18.2432
17.4601
16.4208
15.1929
13.8442
12.4297
10.982
9.49067
7.92604
6.24566
4.4143
2.39086
0.1166
-2.48543
-5.50474
-8.98992
-12.9143
-17.1469
-21.4275
-25.4029
-28.7214
-31.1393
-32.558
-32.9749
-32.4463
185541
170213
89786.3
98970.1
75467.2
179080
166100
149454
127355
9413.14
27.35
16.0937
10.2504
6.87511
4.74254
3.26363
2.06547
1.06846
0.32221
-0.101385
-0.135802
0.278505
1.15643
2.455
4.09405
5.97694
7.9979
10.0266
11.9383
13.6536
15.1196
16.2791
17.0842
17.498
17.5131
17.1584
16.4858
15.554
14.4189
13.1369
11.7566
10.3079
8.78948
7.18453
5.46195
3.59025
1.53309
-0.756679
-3.33448
-6.26036
-9.55722
-13.1823
-17.0168
-20.8443
-24.3848
-27.3615
-29.5649
-30.888
-31.2964
-30.806
186578
169225
186006
128989
108958
178128
166611
149262
125824
69.5868
17.8627
11.6662
7.22772
4.9237
3.63447
2.74849
1.9655
1.26959
0.741478
0.466748
0.510423
0.921243
1.71084
2.84874
4.27086
5.89874
7.64649
9.42352
11.116
12.6571
13.9877
15.0503
15.8026
16.2158
16.279
16.006
15.4312
14.6013
13.5595
12.3514
11.0206
9.59403
8.07586
6.45709
4.71709
2.83129
0.768978
-1.50528
-4.02987
-6.8413
-9.94527
-13.2919
-16.7768
-20.2192
-23.3934
-26.0778
-28.0921
-29.3293
-29.7327
-29.286
184550
187230
188753
72003.7
164125
179817
167773
150064
101872
10.5126
13.7271
7.79769
4.91025
3.5517
2.90457
2.43432
1.96183
1.50862
1.15593
0.988621
1.07624
1.46268
2.15593
3.13779
4.36127
5.76475
7.27437
8.8235
10.3102
11.677
12.8677
13.8278
14.5213
14.9223
15.0178
14.8097
14.3205
13.585
12.6348
11.5058
10.2368
8.85149
7.35656
5.74858
4.016
2.14127
0.0992889
-2.13398
-4.58232
-7.264
-10.1746
-13.2636
-16.4382
-19.5478
-22.4097
-24.8446
-26.6973
-27.8628
-28.2695
-27.8763
175967
187551
188976
71328.5
184079
182529
169418
151731
43720.6
13.1209
9.92535
4.90542
3.09621
2.50673
2.34182
2.17923
1.93573
1.64987
1.43452
1.35719
1.47564
1.82717
2.42789
3.27003
4.32185
5.53611
6.85089
8.20196
9.51915
10.7357
11.7984
12.6567
13.282
13.6548
13.7619
13.6003
13.182
12.5302
11.667
10.6195
9.421
8.09181
6.63891
5.06371
3.36117
1.52023
-0.478954
-2.64974
-5.00411
-7.5468
-10.2672
-13.1176
-16.0137
-18.8327
-21.4261
-23.6466
-25.3608
-26.4674
-26.8867
-26.5552
178805
187352
180522
60615.8
189219
183609
171222
153683
13099.4
18.2557
6.14548
2.79169
1.66546
1.64337
1.84006
1.91381
1.83428
1.70222
1.60451
1.6028
1.74858
2.07789
2.60745
3.33522
4.24022
5.28791
6.4284
7.60615
8.76269
9.84151
10.7901
11.5617
12.1279
12.4673
12.567
12.4261
12.0556
11.4703
10.6839
9.71571
8.59135
7.32815
5.93229
4.40796
2.75471
0.96682
-0.969939
-3.05985
-5.3068
-7.70644
-10.2421
-12.8701
-15.5146
-18.0762
-20.4348
-22.4683
-24.0624
-25.1211
-25.5618
-25.3024
178356
187110
162093
55345
193218
185519
173712
156600
1281.79
9.99264
3.83193
1.38696
0.648526
0.942906
1.37816
1.62516
1.68057
1.67471
1.67779
1.74261
1.91674
2.23408
2.7105
3.34714
4.13143
5.03843
6.02651
7.05136
8.06322
9.01348
9.85633
10.547
11.0572
11.3664
11.4606
11.3359
10.9976
10.4567
9.72717
8.82504
7.77034
6.57689
5.24791
3.78829
2.19951
0.4803
-1.37733
-3.37161
-5.50166
-7.7565
-10.1137
-12.5341
-14.9501
-17.2809
-19.4298
-21.2957
-22.7822
-23.8005
-24.2711
-24.0996
179595
186737
53935.5
61504.3
194229
187906
176807
160752
21.9689
5.3945
2.89655
0.721001
0.0877184
0.446035
0.991065
1.30915
1.48611
1.58573
1.67308
1.79621
1.99846
2.30972
2.74629
3.31006
3.99442
4.78344
5.64277
6.53548
7.41917
8.2521
8.99488
9.60875
10.0673
10.3497
10.4387
10.3265
10.0168
9.51804
8.84067
7.99429
6.99664
5.86398
4.60145
3.21265
1.6989
0.0605696
-1.70525
-3.59393
-5.60044
-7.70929
-9.89403
-12.1197
-14.327
-16.4484
-18.4058
-20.1171
-21.5015
-22.4808
-22.9881
-22.9305
189040
184689
43511.1
71605.1
192969
189218
180003
165680
14.3663
3.51736
1.34033
0.0496501
-0.27604
0.104309
0.654425
1.02176
1.27205
1.45191
1.60882
1.78168
2.00943
2.3184
2.7244
3.23058
3.8334
4.52231
5.27124
6.05013
6.82152
7.55135
8.20438
8.74674
9.15323
9.40488
9.48463
9.38506
9.10715
8.6516
8.02186
7.22784
6.29126
5.2202
4.02459
2.70341
1.26345
-0.290881
-1.95904
-3.73646
-5.61487
-7.57719
-9.59573
-11.6378
-13.6525
-15.5816
-17.3615
-18.9252
-20.2058
-21.1397
-21.6823
-21.7746
190359
181605
169042
72345.1
192628
190549
183510
171350
6.91975
0.305442
-1.0057
-1.04977
-0.743703
-0.195609
0.324615
0.737516
1.04715
1.28812
1.49877
1.71299
1.96345
2.27266
2.65479
3.11477
3.65056
4.25614
4.91114
5.59108
6.26474
6.90313
7.47529
7.95206
8.30984
8.53089
8.59957
8.50693
8.2511
7.83221
7.25313
6.51846
5.64605
4.64106
3.51229
2.26548
0.907305
-0.560448
-2.13401
-3.80394
-5.55578
-7.3736
-9.23256
-11.1012
-12.9359
-14.6865
-16.2997
-17.7191
-18.8892
-19.7608
-20.3154
-20.6013
192192
183772
85689.2
30034.7
195336
192966
187730
178023
-3.32093
-4.16142
-3.43986
-2.38361
-1.3586
-0.529268
0.026609
0.468136
0.815285
1.10173
1.35554
1.60385
1.87336
2.18257
2.54576
2.96835
3.44927
3.98536
4.56077
5.15529
5.7429
6.30077
6.80062
7.21671
7.52857
7.72089
7.77751
7.68882
7.44992
7.06385
6.53101
5.83917
5.03502
4.10374
3.05234
1.88809
0.611817
-0.770427
-2.24401
-3.79989
-5.42518
-7.10597
-8.81673
-10.524
-12.1905
-13.7736
-15.2283
-16.5056
-17.5583
-18.3436
-18.8436
-19.1567
147637
177770
44609.2
15129.1
197482
196267
192674
149970
-8.5899
-6.13318
-5.31293
-3.50876
-1.95064
-0.8922
-0.25553
0.212263
0.585983
0.90405
1.19018
1.46523
1.74914
2.05826
2.40556
2.79691
3.23351
3.71137
4.21842
4.73924
5.25193
5.7384
6.17317
6.53393
6.80379
6.96842
7.01354
6.92651
6.70215
6.34411
5.84902
5.21856
4.46702
3.59957
2.62033
1.53571
0.347725
-0.936595
-2.30626
-3.75231
-5.25784
-6.80286
-8.3637
-9.91611
-11.4282
-12.8568
-14.1621
-15.3025
-16.2358
-16.9203
-17.3128
-17.3495
170441
104911
147326
8380.66
200199
200115
198218
118490
-3.65199
-5.53817
-5.60553
-3.90809
-2.28269
-1.1967
-0.521723
-0.0341039
0.360684
0.702286
1.01189
1.30612
1.59967
1.90776
2.24107
2.60652
3.00529
3.43446
3.88401
4.34105
4.78864
5.21211
5.58864
5.8998
6.13118
6.26981
6.30282
6.21655
6.0065
5.67215
5.21302
4.63231
3.9358
3.12826
2.21715
1.20887
0.10527
-1.08642
-2.35432
-3.6879
-5.07016
-6.48593
-7.91362
-9.32183
-10.6796
-11.9557
-13.1208
-14.1345
-14.9555
-15.5466
-15.8629
-15.84
170179
136837
126553
71998.4
201869
204370
204275
108658
0.536573
-3.20412
-3.89575
-3.27769
-2.21205
-1.35881
-0.740325
-0.261239
0.142357
0.499044
0.825098
1.13221
1.4323
1.73793
2.05863
2.40143
2.76804
3.15606
3.55677
3.95998
4.35169
4.7196
5.04544
5.31238
5.50866
5.62313
5.64387
5.55738
5.35939
5.04686
4.62089
4.0846
3.43909
2.68908
1.84264
0.905751
-0.117912
-1.22056
-2.39098
-3.61828
-4.88681
-6.18038
-7.47782
-8.75224
-9.97882
-11.1234
-12.1548
-13.0436
-13.7583
-14.2725
-14.5604
-14.6341
98761.1
196771
105176
121309
206001
209806
210936
117361
-6.442
-0.855801
-1.57596
-2.1149
-1.85612
-1.37687
-0.89319
-0.456672
-0.0599954
0.302298
0.636354
0.950067
1.25247
1.55421
1.8635
2.18571
2.52474
2.87808
3.2379
3.59549
3.9389
4.25902
4.54058
4.76914
4.93436
5.02575
5.03419
4.94652
4.75796
4.46565
4.07015
3.57363
2.97562
2.281
1.49591
0.625663
-0.322558
-1.34035
-2.41848
-3.54593
-4.70759
-5.88821
-7.06737
-8.22067
-9.32543
-10.3538
-11.2804
-12.0758
-12.7096
-13.1675
-13.4424
-13.5537
128074
197561
47583.9
147723
210803
215556
218112
84484.3
1.81883
0.0190895
-0.357331
-1.21963
-1.49742
-1.33241
-0.993992
-0.614269
-0.238069
0.118853
0.451463
0.764506
1.06519
1.36221
1.65934
1.96329
2.27819
2.60151
2.92716
3.24547
3.54792
3.82755
4.07124
4.26597
4.40366
4.47416
4.47071
4.38145
4.20077
3.9263
3.55861
3.09817
2.54462
1.90259
1.17531
0.368479
-0.508125
-1.44679
-2.43869
-3.47203
-4.53366
-5.61008
-6.68159
-7.72574
-8.72263
-9.64953
-10.4831
-11.1976
-11.7708
-12.1935
-12.46
-12.5846
201383
199990
4218.28
165880
215497
221461
225603
79340.4
2.43978
0.443877
0.0249634
-0.846196
-1.33363
-1.32015
-1.07372
-0.742713
-0.392478
-0.0508825
0.273432
0.581083
0.876639
1.16551
1.4499
1.73756
2.03009
2.32693
2.62301
2.9082
3.17659
3.42187
3.63307
3.79874
3.91141
3.96389
3.9498
3.85835
3.68519
3.42719
3.08394
2.65679
2.14494
1.55173
0.879044
0.133527
-0.674633
-1.53966
-2.45165
-3.39736
-4.36676
-5.34775
-6.32117
-7.26714
-8.1685
-9.00555
-9.75715
-10.4023
-10.9242
-11.3149
-11.5702
-11.6991
201934
192552
-5314.93
190661
219853
227787
233406
58277.6
0.68604
-1.14432
-0.877582
-1.19393
-1.43906
-1.38824
-1.16038
-0.856975
-0.53036
-0.206507
0.105089
0.402374
0.689524
0.968015
1.24041
1.51117
1.78248
2.05611
2.32634
2.58387
2.82358
3.03946
3.22205
3.36279
3.45525
3.49146
3.46749
3.37454
3.20839
2.96609
2.64524
2.24836
1.77519
1.22676
0.605575
-0.0806568
-0.823475
-1.61903
-2.45644
-3.32203
-4.20781
-5.10202
-5.98645
-6.84468
-7.66134
-8.41785
-9.09612
-9.67998
-10.1557
-10.5159
-10.7571
-10.885
203147
200737
-39228.1
210574
225120
235365
241866
36199.3
0.0105975
-3.04108
-2.51147
-2.00077
-1.75399
-1.53632
-1.26777
-0.966349
-0.656311
-0.350591
-0.0549242
0.230065
0.505898
0.773328
1.03315
1.28746
1.53985
1.79211
2.03968
2.27264
2.48757
2.67827
2.83628
2.95575
3.0314
3.05459
3.02173
2.92755
2.76811
2.54032
2.24127
1.87269
1.43436
0.92711
0.354442
-0.275806
-0.95723
-1.68675
-2.45405
-3.24655
-4.05639
-4.87138
-5.67565
-6.45582
-7.19661
-7.88045
-8.49297
-9.02149
-9.45424
-9.78508
-10.0108
-10.1337
-9188.46
-13198
-47908.6
221104
232773
243695
251441
13825.8
-1.33269
-4.39833
-3.51582
-2.67225
-2.11498
-1.72716
-1.39212
-1.07796
-0.777133
-0.487006
-0.20702
0.0649258
0.32855
0.583946
0.830178
1.06981
1.30543
1.53808
1.76404
1.97498
2.16869
2.33689
2.4738
2.57632
2.63747
2.65041
2.61155
2.51577
2.36233
2.1479
1.86944
1.52809
1.12197
0.652884
0.12567
-0.453357
-1.07833
-1.74579
-2.44748
-3.17241
-3.91162
-4.65371
-5.38596
-6.09586
-6.76752
-7.38592
-7.93955
-8.41761
-8.81054
-9.11406
-9.32381
-9.43908
-57473.5
-57228.6
106446
228654
242400
253104
261633
2293.68
-6.34561
-4.4977
-3.69538
-2.99761
-2.37737
-1.8959
-1.51536
-1.19058
-0.895579
-0.618438
-0.351377
-0.0928748
0.157999
0.40106
0.634674
0.860262
1.08013
1.29573
1.50081
1.69161
1.86556
2.01473
2.13446
2.22185
2.27129
2.27616
2.23329
2.13739
1.98902
1.78644
1.52668
1.21079
0.835596
0.403033
-0.0818365
-0.614445
-1.18796
-1.79812
-2.43915
-3.101
-3.77355
-4.44814
-5.11492
-5.75993
-6.36799
-6.92754
-7.42838
-7.86091
-8.21813
-8.49644
-8.69039
-8.79786
-57586.6
-57503
223376
239942
253499
263980
272381
-12.9303
-6.89769
-4.24436
-3.65636
-3.06967
-2.47286
-1.98887
-1.6095
-1.29155
-1.00789
-0.743038
-0.488687
-0.242922
-0.00422079
0.225214
0.445371
0.657858
0.864543
1.06307
1.24914
1.42243
1.57856
1.71037
1.81561
1.89035
1.92995
1.92882
1.88297
1.78866
1.64654
1.45477
1.21202
0.919085
0.573035
0.175581
-0.269969
-0.759671
-1.28571
-1.84367
-2.42898
-3.03199
-3.64279
-4.25523
-4.86096
-5.4453
-5.99513
-6.50154
-6.955
-7.3473
-7.67302
-7.92791
-8.10697
-8.20815
44549.9
170855
242220
254980
266857
276169
255558
-15.3683
-6.76163
-4.47748
-3.56833
-2.93146
-2.40397
-1.9959
-1.6667
-1.37683
-1.11032
-0.858886
-0.617749
-0.384153
-0.15924
0.0560618
0.263123
0.463341
0.656702
0.838649
1.00918
1.16624
1.30574
1.42288
1.51493
1.57916
1.61047
1.60418
1.55624
1.46461
1.33037
1.15024
0.923318
0.651038
0.331797
-0.0330272
-0.442085
-0.890884
-1.37211
-1.88216
-2.41597
-2.96426
-3.51926
-4.07514
-4.6234
-5.15107
-5.64783
-6.10624
-6.51744
-6.87418
-7.17145
-7.40478
-7.57038
-7.66617
424087
424261
424224
424164
424077
423957
423798
423588
423314
422956
422487
421869
421050
419950
418453
416366
413360
408789
401152
386909
423729
423887
423847
423780
423684
423552
423377
423148
422850
422461
421953
421284
420396
419200
417563
415262
411907
406724
398131
382737
423400
423542
423498
423426
423322
423181
422995
422751
422436
422027
421496
420800
419882
418654
416988
414684
411415
406636
399449
388333
423102
423227
423180
423104
422995
422848
422653
422401
422076
421657
421118
420420
419508
418306
416707
414554
411620
407569
401919
394085
422836
422944
422896
422817
422705
422553
422354
422097
421770
421351
420818
420135
419257
418121
416643
414711
412176
408841
404470
398880
422604
422695
422645
422565
422451
422297
422097
421841
421516
421105
420587
419933
419105
418054
416719
415021
412866
410144
406742
402592
422406
422480
422430
422349
422235
422081
421883
421630
421312
420913
420417
419798
419027
418067
416872
415392
413565
411329
408629
405438
422243
422299
422250
422169
422056
421904
421709
421462
421153
420771
420298
419717
419003
418128
417062
415768
414210
412352
410162
407628
422113
422153
422104
422025
421913
421765
421574
421334
421037
420672
420224
419678
419016
418217
417260
416122
414780
413211
411397
409327
422017
422041
421993
421916
421807
421661
421476
421245
420960
420612
420188
419676
419058
418321
417452
416440
415270
413929
412400
410667
421953
421962
421917
421841
421734
421593
421413
421191
420919
420589
420188
419704
419122
418432
417630
416717
415689
414537
413238
411769
421917
421916
421873
421799
421694
421556
421383
421169
420911
420600
420225
419767
419210
418549
417795
416970
416080
415116
414051
412818
421887
421901
421863
421790
421686
421551
421384
421179
420934
420648
420312
419885
419328
416553
408227
392695
368099
330810
274254
180762
-0.829297
45644.2
42649.3
38494.3
33672.9
28252.9
22267
15754.8
8967.11
1818.43
-1.11958
-2.24627
-1.08773
-1.08056
-1.1675
-1.28147
-1.38771
-0.360719
0.352804
0.883798
-0.531816
-0.229253
-0.255278
-0.253154
-0.242318
-0.229287
-0.230036
-0.254954
-0.355277
-0.470553
0.0486389
-0.274233
-0.381621
-0.451196
-0.504178
-0.529671
-0.503251
-0.411598
-0.23404
-0.143005
-0.387515
-0.20481
-0.2535
-0.25549
-0.241472
-0.225097
-0.212125
-0.209065
-0.235964
-0.263497
-0.180801
-0.188875
-0.238354
-0.279857
-0.317317
-0.346216
-0.357949
-0.347482
-0.283256
-0.264956
-0.29401
-0.249463
-0.246672
-0.245132
-0.234647
-0.220006
-0.205129
-0.192592
-0.18702
-0.188755
-0.177858
-0.190955
-0.214351
-0.245406
-0.275533
-0.300684
-0.315902
-0.32164
-0.298982
-0.293663
-0.251149
-0.246822
-0.23934
-0.231404
-0.221407
-0.208583
-0.195114
-0.183032
-0.175144
-0.171381
-0.170842
-0.179284
-0.194265
-0.214195
-0.236061
-0.257739
-0.276456
-0.289274
-0.293596
-0.298128
-0.221399
-0.227193
-0.221445
-0.213645
-0.204636
-0.193968
-0.18286
-0.17294
-0.166416
-0.164204
-0.16557
-0.171395
-0.181987
-0.196732
-0.214244
-0.232992
-0.251142
-0.266631
-0.278575
-0.288862
-0.193884
-0.202957
-0.198361
-0.192311
-0.184971
-0.176517
-0.167895
-0.160707
-0.156656
-0.156026
-0.158039
-0.162977
-0.171702
-0.183925
-0.198649
-0.214752
-0.231143
-0.246925
-0.261608
-0.275273
-0.165924
-0.176515
-0.172606
-0.168238
-0.162953
-0.156854
-0.15095
-0.14673
-0.145081
-0.145696
-0.148175
-0.153033
-0.160874
-0.171535
-0.184336
-0.198448
-0.213272
-0.228647
-0.24444
-0.260073
-0.134829
-0.147328
-0.144641
-0.142228
-0.139323
-0.135985
-0.133055
-0.131388
-0.131258
-0.13256
-0.135583
-0.140886
-0.148564
-0.158425
-0.170207
-0.183323
-0.197181
-0.211785
-0.227502
-0.244184
-0.0943566
-0.114685
-0.115354
-0.115589
-0.11513
-0.114419
-0.114129
-0.114545
-0.115678
-0.117907
-0.121768
-0.127474
-0.135091
-0.144495
-0.155616
-0.168261
-0.181781
-0.196051
-0.211709
-0.229127
-0.035585
-0.0789473
-0.0859974
-0.0894911
-0.0914725
-0.0930265
-0.0947032
-0.0967697
-0.0994056
-0.102898
-0.107576
-0.113556
-0.120981
-0.129946
-0.140529
-0.152735
-0.166204
-0.18093
-0.197367
-0.215745
331797
331263
330572
331100
335061
341519
349128
356358
361893
364853
364731
361161
353456
339564
312780
352290
335798
330862
330708
334006
339777
346824
353593
358752
361441
361182
357666
350415
338495
321068
372143
352839
341496
337231
338179
342561
348458
354189
358447
360493
359999
356835
350902
342199
331253
384237
371872
361591
355148
352716
353449
356130
359107
361259
361957
360910
358022
353334
347075
339849
391997
383870
376395
370651
367060
365465
365295
365640
365753
365134
363495
360724
356872
352177
347116
397613
391778
386128
381273
377530
374938
373222
371968
370731
369166
367050
364295
360949
357182
353293
401692
397287
392851
388730
385161
382207
379769
377653
375615
373448
371009
368231
365112
361757
358428
404693
401230
397640
394121
390838
387847
385132
382615
380174
377673
374995
372073
368974
266468
-12.2681
406945
404122
401134
398109
395136
392283
389570
386939
384302
381534
378629
269368
-3.70238
7.28879
-1.73481
408673
406299
403770
401157
398521
395894
393242
390555
382484
224374
-6.76066
6.65962
-1.18313
-1.02516
-0.559668
410079
408075
405924
403610
401220
398657
334999
99991.3
-25.6577
6.957
-0.829357
-0.856893
-0.696729
-0.692483
-0.581355
411314
409487
395208
308478
115370
-6.36349
1.35935
0.86914
-1.4428
-0.111535
-0.398766
-0.555327
-0.621125
-0.615668
-0.565154
69653.4
5.24951
-10.3542
3.68677
0.676392
-0.867801
-0.764355
-0.376995
-0.457084
-0.407435
-0.464875
-0.518962
-0.555369
-0.571382
-0.566644
0.252223
-0.699683
-1.02445
-0.367811
-0.283535
-0.404811
-0.410113
-0.425081
-0.43922
-0.435463
-0.463033
-0.498282
-0.528629
-0.551931
-0.568163
-0.289861
-0.353222
-0.383045
-0.372252
-0.376738
-0.397033
-0.398643
-0.416114
-0.424114
-0.44032
-0.461894
-0.489834
-0.518637
-0.54675
-0.57394
-0.299557
-0.3421
-0.358044
-0.377826
-0.375727
-0.378014
-0.39219
-0.40571
-0.420209
-0.438723
-0.461637
-0.489346
-0.520046
-0.552038
-0.585437
-0.305719
-0.33226
-0.346946
-0.358001
-0.366965
-0.374257
-0.386443
-0.400996
-0.41883
-0.440348
-0.465869
-0.495715
-0.528975
-0.564355
-0.601599
-0.308315
-0.323619
-0.336662
-0.347173
-0.358631
-0.370473
-0.38442
-0.401438
-0.421615
-0.445559
-0.473887
-0.506614
-0.542594
-0.580714
-0.621132
-0.300368
-0.314027
-0.326968
-0.339238
-0.352687
-0.367973
-0.385213
-0.405129
-0.427747
-0.453947
-0.485215
-0.521031
-0.559853
-0.600388
-0.643409
-0.28898
-0.303865
-0.317984
-0.332145
-0.348222
-0.367037
-0.388379
-0.411619
-0.436683
-0.465296
-0.499327
-0.538278
-0.57989
-0.622984
-0.668027
-0.275799
-0.292726
-0.309197
-0.326086
-0.345395
-0.367961
-0.393512
-0.420324
-0.448312
-0.479563
-0.516244
-0.558062
-0.602449
-0.647873
-0.69485
-0.261736
-0.280999
-0.300771
-0.321343
-0.344002
-0.370389
-0.399751
-0.430419
-0.462145
-0.496645
-0.536162
-0.580699
-0.627691
-0.675287
-0.72437
-0.248256
-0.269995
-0.293073
-0.317415
-0.343751
-0.373643
-0.406764
-0.441481
-0.47719
-0.515429
-0.55798
-0.605021
-0.654534
-0.704642
-0.75616
-0.236255
-0.260172