/*--------------------------------*- C++ -*----------------------------------*\
| =========                 |                                                 |
| \\      /  F ield         | OpenFOAM: The Open Source CFD Toolbox           |
|  \\    /   O peration     | Version:  v1912                                 |
|   \\  /    A nd           | Website:  www.openfoam.com                      |
|    \\/     M anipulation  |                                                 |
\*---------------------------------------------------------------------------*/
FoamFile
{
    version     2.0;
    format      ascii;
    class       surfaceScalarField;
    location    "54";
    object      phi;
}
// * * * * * * * * * * * * * * * * * * * * * * * * * * * * * * * * * * * * * //

dimensions      [0 3 -1 0 0 0 0];
oriented        oriented;


internalField   nonuniform List<scalar> 
40282
(
0.00277677
0.00265686
1.92267
-1.92929
1.92374
0.00555451
-1.91473
1.90253
0.0122039
-1.88729
1.86911
0.0181827
-1.84804
1.82412
0.0239186
-1.79741
1.76796
0.029443
-1.73587
1.70121
0.0346627
-1.66398
1.62425
0.0397349
-1.58205
1.53752
0.0445353
-1.49072
1.44177
0.0489453
-1.39066
1.33747
0.0531951
-1.28216
1.22495
0.0572111
-1.16582
1.10498
0.0608394
-1.04232
0.978182
0.0641418
-0.912385
0.845321
0.0670644
-0.776606
0.706811
0.0697954
-0.635234
0.562617
0.0726172
-0.48747
0.411335
0.0761355
-0.331134
0.25047
0.0806635
-0.161399
0.0793268
0.0820722
-0.00423028
0.00561789
1.85764
-1.85322
1.84631
-0.01415
0.0210656
-1.83663
1.82415
-0.025657
0.0381344
-1.80888
1.79085
-0.0369671
0.0549956
-1.7701
1.74667
-0.0480556
0.0714908
-1.72059
1.6919
-0.0588763
0.0875649
-1.66064
1.62686
-0.0693576
0.103145
-1.59058
1.55187
-0.079424
0.118137
-1.51078
1.46738
-0.0890766
0.132474
-1.42173
1.37388
-0.0982587
0.146115
-1.32387
1.27176
-0.106896
0.159007
-1.21761
1.16146
-0.114964
0.171115
-1.10337
1.04342
-0.122422
0.182381
-0.981664
0.918163
-0.129229
0.192731
-0.853005
0.786251
-0.135315
0.202069
-0.718038
0.648428
-0.1407
0.210311
-0.577608
0.505673
-0.145545
0.217479
-0.432944
0.359564
-0.15054
0.223921
-0.286014
0.212445
-0.156966
0.230535
-0.139894
0.0724708
-0.168916
0.236339
-0.007023
0.00837587
1.79108
-1.78689
1.78006
-0.0282226
0.0350567
-1.77057
1.75845
-0.0507735
0.0628952
-1.7437
1.72634
-0.0730721
0.0904327
-1.70638
1.68382
-0.0949389
0.117496
-1.6587
1.63104
-0.116261
0.143915
-1.60089
1.56828
-0.13693
0.169538
-1.53327
1.49589
-0.156843
0.194219
-1.4562
1.41425
-0.175879
0.217831
-1.3701
1.32382
-0.193954
0.240236
-1.27548
1.22518
-0.211047
0.261351
-1.17298
1.11895
-0.22713
0.281158
-1.06316
1.00566
-0.242149
0.299649
-0.946504
0.885748
-0.256034
0.316791
-0.823438
0.759624
-0.268639
0.332453
-0.694364
0.627718
-0.279703
0.34635
-0.559762
0.490588
-0.288898
0.358072
-0.420342
0.349216
-0.296156
0.367281
-0.277515
0.205677
-0.302236
0.374074
-0.134321
0.065101
-0.308816
0.378036
-0.00965891
0.0109383
1.72694
-1.72308
1.71664
-0.0417622
0.0481976
-1.70765
1.6961
-0.0749533
0.0864976
-1.68202
1.66542
-0.107762
0.124366
-1.64631
1.62471
-0.140011
0.161607
-1.60065
1.57415
-0.171521
0.198021
-1.54524
1.51395
-0.20211
0.2334
-1.48031
1.44437
-0.2316
0.267544
-1.40616
1.36574
-0.259817
0.300237
-1.32316
1.27848
-0.286592
0.331274
-1.23176
1.18307
-0.311787
0.360473
-1.1325
1.08014
-0.335337
0.387702
-1.02607
0.9704
-0.35723
0.412902
-0.913215
0.854603
-0.377476
0.436089
-0.794638
0.733382
-0.396017
0.457273
-0.670885
0.607191
-0.412585
0.476279
-0.542337
0.476358
-0.426581
0.49256
-0.409298
0.341224
-0.437164
0.505237
-0.272275
0.202729
-0.444029
0.513575
-0.132967
0.0643869
-0.448
0.51658
-0.0121597
0.0133665
1.6651
-1.66144
1.65535
-0.0545764
0.0606667
-1.64683
1.63589
-0.0979542
0.108898
-1.62253
1.60677
-0.140856
0.156617
-1.58862
1.56809
-0.183067
0.203593
-1.54521
1.51999
-0.22437
0.249594
-1.49245
1.46261
-0.264537
0.294369
-1.43052
1.39619
-0.30334
0.337669
-1.35966
1.32098
-0.340532
0.379217
-1.28018
1.23731
-0.37587
0.418735
-1.19244
1.14561
-0.409131
0.455961
-1.09689
1.04636
-0.44012
0.490648
-0.994105
0.940216
-0.468709
0.522598
-0.884795
0.827949
-0.494875
0.551721
-0.769783
0.710397
-0.518658
0.578044
-0.649875
0.588283
-0.539984
0.601576
-0.525669
0.462061
-0.55836
0.621967
-0.397479
0.331935
-0.572684
0.638228
-0.26546
0.198151
-0.581658
0.648968
-0.130088
0.0628522
-0.58492
0.652155
-0.0145132
0.01564
1.60558
-1.60198
1.59626
-0.0666847
0.072402
-1.58826
1.57798
-0.119715
0.129999
-1.56542
1.55059
-0.172207
0.187038
-1.53349
1.51414
-0.223914
0.243265
-1.49254
1.46871
-0.27459
0.298423
-1.44265
1.4144
-0.323966
0.352225
-1.38395
1.35134
-0.371769
0.404376
-1.3166
1.27975
-0.417695
0.454546
-1.24082
1.19987
-0.461429
0.502387
-1.15692
1.11203
-0.502674
0.547562
-1.06525
1.01665
-0.541131
0.589731
-0.9663
0.91427
-0.576538
0.628568
-0.860654
0.805554
-0.608725
0.663825
-0.74908
0.691345
-0.63767
0.695405
-0.632461
0.572528
-0.663415
0.723349
-0.511626
0.44981
-0.685716
0.747531
-0.387112
0.323538
-0.703544
0.767118
-0.25907
0.193688
-0.715038
0.78042
-0.127224
0.0617383
-0.718877
0.784363
-0.0167036
0.0177405
1.54788
-1.54485
1.53955
-0.0780197
0.0833218
-1.53213
1.52258
-0.140109
0.149659
-1.5109
1.4971
-0.201633
0.215436
-1.48117
1.46311
-0.262333
0.28039
-1.44292
1.42061
-0.321941
0.344252
-1.39618
1.36963
-0.380156
0.406706
-1.34097
1.31022
-0.436664
0.467421
-1.27737
1.24247
-0.491106
0.526013
-1.20552
1.16655
-0.543101
0.582067
-1.1256
1.08271
-0.592276
0.635172
-1.03791
0.991252
-0.638242
0.684894
-0.942804
0.892626
-0.680616
0.730794
-0.840794
0.787399
-0.71907
0.772466
-0.732541
0.676334
-0.753418
0.809625
-0.618899
0.560356
-0.783662
0.842205
-0.500817
0.440369
-0.80973
0.870178
-0.379075
0.316959
-0.830811
0.892927
-0.253994
0.190095
-0.844827
0.908727
-0.124797
0.0612899
-0.849935
0.913442
-0.0187107
0.0196467
1.4926
-1.48985
1.48501
-0.0884912
0.0933287
-1.47823
1.4695
-0.158979
0.16771
-1.45881
1.44615
-0.228923
0.241579
-1.43152
1.4149
-0.298066
0.314685
-1.39628
1.37566
-0.366135
0.386762
-1.35301
1.32834
-0.432809
0.45748
-1.30164
1.27289
-0.497739
0.526481
-1.24211
1.2093
-0.560514
0.593329
-1.17446
1.1376
-0.620689
0.657545
-1.09875
1.05792
-0.677812
0.718639
-1.01515
0.970476
-0.7314
0.776078
-0.923937
0.875589
-0.780956
0.829304
-0.825497
0.773736
-0.825996
0.877758
-0.720396
0.665585
-0.866137
0.920948
-0.609424
0.552045
-0.901221
0.958601
-0.493581
0.434155
-0.931213
0.990638
-0.373871
0.312797
-0.95551
1.01658
-0.250938
0.188206
-0.972015
1.03475
-0.123734
0.062506
-0.978899
1.04013
-0.0205119
0.0213348
1.43919
-1.43656
1.43225
-0.0979972
0.102313
-1.42619
1.41838
-0.176148
0.183961
-1.40879
1.39742
-0.253832
0.265203
-1.38424
1.36923
-0.330814
0.345824
-1.35237
1.33362
-0.406836
0.425582
-1.31297
1.29039
-0.48157
0.504152
-1.26585
1.23934
-0.554646
0.581159
-1.21083
1.18031
-0.625607
0.656127
-1.14777
1.1132
-0.693941
0.728511
-1.0766
1.03797
-0.759115
0.797739
-0.997338
0.954711
-0.820545
0.863171
-0.910123
0.863612
-0.877607
0.924118
-0.815229
0.765036
-0.929664
0.979857
-0.713113
0.659555
-0.97612
1.02968
-0.604482
0.548031
-1.01658
1.07303
-0.490358
0.431623
-1.05093
1.10967
-0.371984
0.311584
-1.07872
1.13912
-0.250517
0.188783
-1.09799
1.15972
-0.124986
0.0660237
-1.10671
1.16567
-0.0220826
0.0227797
1.38784
-1.38556
1.38182
-0.106421
0.110156
-1.37657
1.36978
-0.191411
0.198201
-1.36143
1.35149
-0.276074
0.286012
-1.33993
1.32672
-0.360222
0.373436
-1.31181
1.29516
-0.443635
0.460282
-1.27673
1.25648
-0.525998
0.54625
-1.23436
1.21033
-0.606934
0.630967
-1.18434
1.15636
-0.685952
0.71393
-1.12636
1.0943
-0.762476
0.794537
-1.06015
1.02391
-0.835891
0.872131
-0.985564
0.945105
-0.905501
0.94596
-0.902545
0.857903
-0.970543
1.01518
-0.811213
0.76252
-1.03021
1.0789
-0.711888
0.659402
-1.08366
1.13615
-0.605172
0.549333
-1.13022
1.18606
-0.49205
0.433505
-1.16953
1.22808
-0.373891
0.313403
-1.20114
1.26163
-0.252192
0.190353
-1.22324
1.28508
-0.125695
0.0680822
-1.23393
1.29154
-0.0233977
0.0239564
1.33818
-1.33627
1.33318
-0.11364
0.116733
-1.32882
1.32316
-0.204553
0.21021
-1.31618
1.30783
-0.295344
0.303692
-1.29807
1.28686
-0.385903
0.397117
-1.27413
1.25983
-0.476074
0.490374
-1.2439
1.22626
-0.565582
0.583218
-1.20686
1.18562
-0.654065
0.675304
-1.16247
1.13736
-0.741012
0.766123
-1.11022
1.08099
-0.825798
0.855031
-1.04961
1.01604
-0.907726
0.941297
-0.980232
0.942163
-0.985985
1.02405
-0.901811
0.859167
-1.05966
1.1023
-0.81424
0.767052
-1.12773
1.17492
-0.717647
0.666091
-1.18912
1.24068
-0.612483
0.556957
-1.24279
1.29832
-0.499686
0.440882
-1.28803
1.34683
-0.38079
0.31968
-1.32425
1.38536
-0.257808
0.195413
-1.3497
1.41209
-0.129189
0.0732139
-1.36277
1.41875
-0.024433
0.0248428
1.29038
-1.2887
1.28631
-0.119534
0.121928
-1.28292
1.2785
-0.215355
0.219775
-1.27301
1.26641
-0.311325
0.317929
-1.25863
1.24963
-0.407441
0.416449
-1.23931
1.22762
-0.503645
0.515336
-1.21447
1.19976
-0.599729
0.614434
-1.18342
1.16533
-0.695379
0.713462
-1.14542
1.12357
-0.790092
0.811938
-1.0997
1.07371
-0.883216
0.909208
-1.04551
1.01501
-0.973988
1.00449
-0.982128
0.946802
-1.06149
1.09681
-0.908968
0.86858
-1.14463
1.18502
-0.825606
0.780034
-1.22219
1.26776
-0.731874
0.681164
-1.29276
1.34347
-0.62798
0.572441
-1.35491
1.41045
-0.514724
0.455064
-1.40741
1.46707
-0.39376
0.331181
-1.44936
1.51194
-0.26772
0.203848
-1.47899
1.54286
-0.134821
0.0803763
-1.49511
1.54955
-0.0251688
0.0254217
1.24445
-1.24322
1.24157
-0.123993
0.125643
-1.23921
1.23611
-0.223614
0.226712
-1.23223
1.2275
-0.323714
0.32844
-1.22187
1.21526
-0.424426
0.431037
-1.20759
1.19876
-0.52582
0.534649
-1.18867
1.17722
-0.627796
0.639246
-1.16429
1.14977
-0.730124
0.744653
-1.13351
1.11539
-0.832354
0.850468
-1.09529
1.07306
-0.933842
0.956073
-1.04857
1.02168
-1.0338
1.06068
-0.992267
0.960206
-1.13122
1.16328
-0.925381
0.887689
-1.22486
1.26255
-0.847042
0.803372
-1.31326
1.35693
-0.756635
0.70682
-1.3947
1.44451
-0.653956
0.598133
-1.4672
1.52302
-0.539512
0.478345
-1.52889
1.59006
-0.41499
0.349938
-1.57829
1.64334
-0.283791
0.217371
-1.61342
1.67985
-0.14428
0.09127
-1.6336
1.68661
-0.0255914
0.0256837
1.19983
-1.19924
1.19836
-0.126932
0.127808
-1.19709
1.19537
-0.229168
0.230883
-1.19317
1.19043
-0.332256
0.335002
-1.18707
1.18301
-0.436487
0.440543
-1.17817
1.17243
-0.542094
0.54783
-1.16569
1.15782
-0.649125
0.656998
-1.14868
1.13813
-0.757481
0.768031
-1.12601
1.11216
-0.866818
0.880666
-1.09641
1.07858
-0.976565
0.994395
-1.05849
1.03594
-1.08597
1.10851
-1.01075
0.98273
-1.19399
1.22202
-0.951683
0.917431
-1.29931
1.33357
-0.879804
0.838646
-1.40024
1.4414
-0.793826
0.745246
-1.4947
1.54328
-0.692854
0.636666
-1.58014
1.63632
-0.576796
0.513482
-1.65378
1.71709
-0.447131
0.378384
-1.7132
1.78195
-0.308136
0.237741
-1.75594
1.82633
-0.159034
0.107037
-1.78165
1.83364
-0.0256956
0.0256287
1.15706
-1.15694
1.15685
-0.128302
0.128396
-1.15666
1.15635
-0.231914
0.232223
-1.15587
1.15516
-0.336767
0.337482
-1.15414
1.15274
-0.44333
0.444731
-1.15086
1.14839
-0.552026
0.554495
-1.14521
1.14119
-0.663086
0.667107
-1.13618
1.13001
-0.776595
0.782764
-1.12251
1.11348
-0.892385
0.90141
-1.10273
1.09003
-1.01004
1.02274
-1.07515
1.05785
-1.12893
1.14623
-1.03786
1.01492
-1.24813
1.27107
-0.988744
0.959055
-1.3663
1.39599
-0.925565
0.887993
-1.48167
1.51924
-0.846071
0.799555
-1.59187
1.63838
-0.748243
0.692006
-1.69371
1.74994
-0.630832
0.564877
-1.7833
1.84926
-0.494552
0.420669
-1.85677
1.93066
-0.344516
0.268439
-1.91066
1.98673
-0.181845
0.132199
-1.94475
1.9944
-0.0254871
0.0252679
1.11577
-1.11593
1.11659
-0.1281
0.127432
-1.11748
1.11856
-0.231828
0.230754
-1.11977
1.12108
-0.337175
0.33587
-1.12241
1.12369
-0.444791
0.443514
-1.12482
1.1257
-0.555306
0.554421
-1.12622
1.12624
-0.669163
0.669144
-1.12561
1.12416
-0.786681
0.788133
-1.1217
1.11802
-0.90794
0.911613
-1.11291
1.1061
-1.03277
1.03957
-1.09734
1.08632
-1.1608
1.17182
-1.07272
1.0562
-1.29135
1.30788
-1.03638
1.01285
-1.42333
1.44685
-0.985197
0.952966
-1.55507
1.5873
-0.915693
0.87291
-1.68415
1.72694
-0.824163
0.769048
-1.80693
1.86204
-0.70727
0.638739
-1.91825
1.98678
-0.563703
0.483043
-2.01212
2.09278
-0.398482
0.313889
-2.08318
2.16778
-0.214311
0.171063
-2.13275
2.176
-0.0249821
0.0246227
1.07596
-1.07673
1.07812
-0.126377
0.12499
-1.08002
1.08241
-0.228979
0.226593
-1.08524
1.08849
-0.333538
0.330295
-1.09208
1.09597
-0.440871
0.436987
-1.10006
1.10427
-0.551815
0.547603
-1.1085
1.11262
-0.667037
0.662919
-1.11649
1.11995
-0.787124
0.783659
-1.12283
1.12492
-0.912463
0.910376
-1.12598
1.12578
-1.04322
1.04343
-1.124
1.12034
-1.17943
1.18309
-1.11442
1.10585
-1.32086
1.32944
-1.09416
1.07885
-1.46692
1.48223
-1.05935
1.03503
-1.6165
1.64082
-1.00518
0.969026
-1.76761
1.80376
-0.925752
0.874494
-1.91674
1.968
-0.814426
0.744873
-2.05783
2.12739
-0.665522
0.576903
-2.18223
2.27085
-0.48091
0.382702
-2.28066
2.37887
-0.263432
0.222861
-2.35616
2.39673
-0.024207
0.0237243
1.03743
-1.0386
1.04063
-0.123235
0.121198
-1.04345
1.04704
-0.223536
0.219954
-1.05136
1.05638
-0.326059
0.321031
-1.06208
1.0684
-0.431764
0.425445
-1.07528
1.08266
-0.541673
0.534296
-1.09045
1.09856
-0.656668
0.648559
-1.10687
1.11526
-0.777609
0.769222
-1.12356
1.13161
-0.905223
0.897177
-1.13919
1.14607
-1.04008
1.0332
-1.15198
1.15661
-1.1827
1.17808
-1.15959
1.16051
-1.33352
1.3326
-1.15888
1.15414
-1.49275
1.49749
-1.14563
1.13258
-1.66033
1.67338
-1.11407
1.08905
-1.8356
1.86062
-1.05626
1.01424
-2.01642
2.05844
-0.961351
0.895871
-2.19742
2.2629
-0.816205
0.721558
-2.36821
2.46285
-0.612807
0.49563
-2.51346
2.63063
-0.352786
0.306469
-2.63351
2.67983
-0.0231968
0.0226105
1.00036
-1.00206
1.00466
-0.118825
0.116225
-1.00828
1.0129
-0.215754
0.211131
-1.01852
1.02512
-0.315081
0.308484
-1.03267
1.04116
-0.417866
0.409376
-1.05056
1.06081
-0.525275
0.515024
-1.07187
1.08368
-0.638368
0.626557
-1.09617
1.10924
-0.758248
0.745173
-1.1228
1.1367
-0.885966
0.872064
-1.1508
1.16491
-1.0225
1.00839
-1.17882
1.19228
-1.1689
1.15544
-1.205
1.2166
-1.32634
1.31474
-1.22666
1.23468
-1.49607
1.48806
-1.24001
1.24191
-1.67952
1.67763
-1.23941
1.23133
-1.87827
1.88635
-1.21616
1.19199
-2.09346
2.11763
-1.15638
1.10633
-2.32385
2.37391
-1.0382
0.948141
-2.56229
2.65235
-0.832995
0.694388
-2.79059
2.92919
-0.52183
0.450408
-3.00562
3.07705
-0.0219919
0.0213236
0.964767
-0.966561
0.969621
-0.113331
0.110271
-0.973892
0.979374
-0.205963
0.200481
-0.986067
0.993971
-0.301066
0.293161
-1.00309
1.01341
-0.399751
0.389429
-1.02493
1.03765
-0.503274
0.490561
-1.05154
1.06659
-0.612812
0.597763
-1.08277
1.10004
-0.729644
0.71237
-1.11836
1.13766
-0.85508
0.835782
-1.15785
1.17885
-0.990433
0.969432
-1.20054
1.22276
-1.13722
1.115
-1.24533
1.26804
-1.29726
1.27455
-1.29061
1.3127
-1.47281
1.45072
-1.3339
1.35367
-1.66687
1.6471
-1.37133
1.38596
-1.88365
1.86902
-1.39634
1.40079
-2.12905
2.1246
-1.39694
1.38144
-2.41015
2.42565
-1.34962
1.29497
-2.73325
2.78791
-1.20909
1.0798
-3.10001
3.2293
-0.904968
0.824778
-3.52955
3.60974
0.0960399
-0.247798
0.151758
-0.217469
0.320242
-0.102773
-0.394818
0.452968
-0.0581499
-0.495702
0.532964
-0.0372627
-0.566538
0.595923
-0.0293849
-0.630553
0.667252
-0.0366991
-0.681587
0.6745
0.00708722
-0.683532
0.72746
-0.0439288
-0.789813
0.890052
-0.100238
-1.04468
1.2327
-0.18802
-1.4284
1.62055
-0.192156
-1.79598
1.94133
-0.145349
-2.0779
2.19562
-0.117718
-2.30041
2.40734
-0.106937
-2.55708
2.70882
-0.151744
-2.83822
3.01596
-0.177738
-3.21529
3.42267
-0.207381
-3.63858
3.84499
-0.206407
-4.04536
4.24613
-0.200771
-4.43561
4.59717
-0.161555
-4.72639
4.83265
-0.106263
-4.92768
5.00683
-0.0791497
-5.06188
5.09572
-0.0338467
-5.11436
5.12713
-0.0127784
-5.14771
5.18174
-0.0340282
-5.21985
5.24965
-0.0298052
-5.26843
5.27836
-0.00993612
-5.2843
5.29565
-0.0113425
-5.32138
5.3577
-0.0363196
-5.39026
5.40859
-0.0183333
-5.4159
5.42456
-0.00865614
-5.4595
5.605
-0.145505
-5.81995
5.77394
0.046003
-5.73561
6.06053
-0.324922
-6.36685
6.61401
-0.247166
-6.80097
6.93983
-0.138864
-7.03151
7.05904
-0.0275318
-7.00143
6.83091
0.170521
-6.72538
6.73375
-0.00836593
-6.76117
6.78964
-0.0284684
-6.79457
6.74527
0.0493081
-6.69922
6.70318
-0.003964
-6.7335
6.77072
-0.0372173
-6.79028
6.79934
-0.00906105
-6.81725
6.81489
0.0023652
-6.80833
6.79231
0.0160216
-6.76739
6.73501
0.0323773
-6.7108
6.70929
0.00151412
-6.70537
6.65321
0.0521605
-6.66391
6.70896
-0.0450504
-6.79855
6.87203
-0.0734871
-7.02093
7.23926
-0.218327
-7.44693
7.63139
-0.184462
-7.7371
7.79693
-0.0598307
-7.48912
7.31635
0.172768
-7.24094
7.66599
-0.425056
-8.40246
7.99899
0.403469
-9.38708
10.5085
-1.12145
-7.27984
4.40074
2.87911
-5.01973
5.13235
-0.112626
0.405275
-0.54779
0.142515
-0.248846
0.31466
0.176533
-0.242347
-0.369452
0.41558
0.10842
-0.154548
-0.457162
0.493797
0.0746143
-0.111249
-0.526216
0.55374
0.0564675
-0.0839908
-0.57547
0.593186
0.0619644
-0.0796797
-0.614444
0.642973
0.00762576
-0.0361543
-0.672865
0.710338
0.0822616
-0.119735
-0.771193
0.862267
0.206001
-0.297075
-0.987841
1.15304
0.356507
-0.521704
-1.34675
1.54929
0.385188
-0.587733
-1.75008
1.93551
0.312417
-0.497855
-2.1106
2.26728
0.256011
-0.412695
-2.42347
2.56924
0.238902
-0.384671
-2.72345
2.91144
0.3157
-0.503688
-3.10701
3.30536
0.365395
-0.563747
-3.54349
3.83243
0.43317
-0.722109
-4.13766
4.4311
0.447152
-0.7406
-4.69861
4.93088
0.414763
-0.647034
-5.11871
5.26282
0.324904
-0.469009
-5.37456
5.46794
0.217955
-0.311338
-5.55008
5.60505
0.15616
-0.211135
-5.63652
5.65853
0.0691854
-0.0912021
-5.67511
5.6868
0.0270704
-0.0387592
-5.70378
5.73328
0.0628177
-0.0923213
-5.7646
5.78163
0.0538773
-0.0709063
-5.7866
5.78839
0.0170003
-0.0187916
-5.79283
5.8009
0.0194578
-0.0275278
-5.81359
5.82843
0.0602785
-0.0751196
-5.84232
5.85275
0.0373906
-0.0478235
-5.86271
5.87519
0.0468532
-0.0593337
-5.90726
6.03801
0.103185
-0.233933
-6.25322
6.37555
0.248599
-0.370927
-6.44419
6.48827
0.390339
-0.434421
-6.53079
6.57588
0.32004
-0.365132
-6.61998
6.65853
0.187969
-0.226528
-6.69176
6.72636
0.0343958
-0.0689929
-6.77436
6.82898
-0.084126
0.029501
-6.86078
6.86932
0.00780939
-0.0163533
-6.87254
6.87738
0.0231144
-0.0279569
-6.88821
6.90573
-0.0245302
0.00701106
-6.91636
6.91736
0.0118459
-0.0128483
-6.91636
6.92052
0.0164477
-0.0206059
-6.92118
6.92266
0.01901
-0.0204886
-6.91876
6.91726
-0.00187881
0.00338436
-6.90999
6.90058
-0.0245638
0.0339806
-6.88957
6.87637
-0.0477491
0.0609437
-6.86037
6.83899
-0.0323789
0.0537587
-6.82611
6.82733
-0.0330032
0.0317852
-6.83541
6.85843
0.0985406
-0.121554
-6.8994
6.98561
0.176262
-0.262471
-7.0924
7.19452
0.298695
-0.40081
-7.31456
7.4454
0.280844
-0.411689
-7.53531
7.64992
0.423653
-0.538266
-7.75842
7.80451
-0.557965
0.511881
-7.72155
7.42223
0.711156
-0.411837
-7.5891
7.60064
-0.259886
0.248345
-7.00198
6.19773
-0.164573
0.968823
-6.31261
6.82146
-2.90202
2.39317
-6.68774
6.65372
0.393667
-0.359649
0.669375
-0.770915
0.10154
-0.216804
0.287404
0.308161
-0.378761
-0.341015
0.383296
0.197102
-0.239383
-0.419584
0.452764
0.145904
-0.179084
-0.483949
0.513778
0.112377
-0.142206
-0.538405
0.558012
0.0972593
-0.116866
-0.579894
0.605871
0.0647772
-0.0907533
-0.631473
0.656673
0.150197
-0.175398
-0.694233
0.759754
0.373747
-0.439268
-0.871785
1.04388
0.686736
-0.858832
-1.26462
1.49778
0.800967
-1.03413
-1.73666
1.95644
0.698277
-0.91806
-2.17235
2.36648
0.583068
-0.777197
-2.55208
2.7965
0.551031
-0.795444
-2.97025
3.26786
0.728494
-1.0261
-3.91518
4.79388
0.780115
-1.65881
-5.43349
5.65583
1.19987
-1.42221
-5.71427
5.75737
1.11597
-1.15907
-5.80944
5.86511
0.818811
-0.874487
-5.92367
5.9826
0.549453
-0.608381
-6.03547
6.07651
0.323109
-0.364155
-6.10005
6.12769
0.216382
-0.244028
-6.16605
6.20219
0.105736
-0.14187
-6.23089
6.24426
0.0539296
-0.0672995
-6.23373
6.2161
0.109594
-0.0919615
-6.21322
6.23214
0.0701326
-0.0890558
-6.26609
6.30168
0.0231522
-0.0587364
-6.32685
6.33871
0.0384067
-0.0502665
-6.33808
6.34182
0.0825516
-0.0862899
-6.36769
6.41563
0.0617142
-0.109656
-6.46492
6.49874
0.134054
-0.167869
-6.52064
6.54018
0.325604
-0.345139
-6.56096
6.58789
0.42204
-0.448971
-6.61079
6.63133
0.464206
-0.484745
-6.65309
6.67771
0.397703
-0.422317
-6.70509
6.73474
0.260196
-0.289842
-6.76697
6.80251
0.107622
-0.143163
-6.83989
6.87569
0.0129698
-0.0487715
-6.90124
6.91565
0.0287779
-0.0431842
-6.92506
6.93393
0.0346169
-0.0434841
-6.94474
6.95681
0.0078164
-0.019888
-6.96534
6.96703
0.0146528
-0.0163456
-6.96609
6.96638
0.0214724
-0.0217614
-6.96644
6.9658
0.0200366
-0.0194059
-6.96233
6.959
-0.00633306
0.00966414
-6.95306
6.94489
-0.0426958
0.0508681
-6.93559
6.92385
-0.0735922
0.0853394
-6.90924
6.88843
-0.0751109
0.0959201
-6.86647
6.85199
-0.0354447
0.0499211
-6.83862
6.83261
0.126951
-0.120945
-6.83952
6.85905
0.307277
-0.326802
-6.88361
6.90555
0.46189
-0.483823
-6.90633
6.86112
0.490758
-0.445552
-6.68275
6.38929
0.692869
-0.399414
-6.48629
6.69899
-0.355896
0.143195
-6.68525
6.6255
0.101399
-0.0416564
-6.55728
6.43963
-0.40764
0.525289
-6.16214
6.18187
-1.12716
1.10743
-6.88071
7.44431
-1.7525
1.1889
-7.33781
7.30722
0.255062
-0.224471
0.857347
-0.928533
0.0711862
-0.166693
0.238396
0.45087
-0.522573
-0.29793
0.344228
0.28318
-0.329479
-0.379658
0.410328
0.210427
-0.241096
-0.440475
0.470735
0.171835
-0.202094
-0.498099
0.520736
0.137849
-0.160486
-0.541148
0.561199
0.113003
-0.133054
-0.579784
0.596704
0.195204
-0.212124
-0.618877
0.667217
0.49344
-0.54178
-0.771897
0.964324
1.03936
-1.23179
-1.24452
1.54963
1.29112
-1.59624
-1.86927
2.20148
1.1634
-1.4956
-2.51372
3.14771
1.0482
-1.6822
-4.22255
5.04864
1.2906
-2.1167
-5.29145
5.38697
1.95756
-2.05308
-5.55544
5.66741
1.71786
-1.82983
-5.73803
5.81719
1.52257
-1.60173
-5.89477
5.96409
1.21769
-1.28701
-6.02703
6.08463
0.921308
-0.978915
-6.13736
6.18792
0.658147
-0.708702
-6.23904
6.29154
0.414756
-0.467259
-6.33671
6.37139
0.278179
-0.312859
-6.40256
6.43208
0.174376
-0.203898
-6.45863
6.48308
0.0872019
-0.111649
-6.4998
6.50544
0.0859687
-0.0916125
-6.50792
6.51725
0.107991
-0.117321
-6.53448
6.55543
0.084801
-0.105757
-6.57798
6.60018
0.070928
-0.0931311
-6.61934
6.63435
0.0967356
-0.11175
-6.64905
6.67001
0.135287
-0.156247
-6.69787
6.7238
0.196621
-0.222556
-6.7382
6.74528
0.35366
-0.36074
-6.75104
6.75871
0.463105
-0.470771
-6.7665
6.77475
0.497998
-0.506254
-6.78504
6.79861
0.440648
-0.454214
-6.81574
6.83633
0.314577
-0.335164
-6.85997
6.88615
0.173792
-0.19997
-6.9131
6.93843
0.0785582
-0.103889
-6.95865
6.97326
0.0579207
-0.0725357
-6.98487
6.99583
0.0534732
-0.0644314
-7.00683
7.01642
0.0300289
-0.0396179
-7.02192
7.02251
0.0174913
-0.0180878
-7.02071
7.01956
0.0213051
-0.0201584
-7.01932
7.01991
0.0192041
-0.0197996
-7.0197
7.01828
-0.01239
0.013816
-7.014
7.00723
-0.0582679
0.0650436
-6.99993
6.99154
-0.0955018
0.103886
-6.98019
6.96167
-0.115892
0.134415
-6.9351
6.90488
-0.0729843
0.103201
-6.87262
6.84405
0.103959
-0.0753883
-6.82454
6.81228
0.328135
-0.315881
-6.79899
6.77871
0.475739
-0.455466
-6.75307
6.72668
0.423419
-0.397035
-6.70071
6.67695
0.225378
-0.201615
-6.66617
6.68136
-0.089009
0.0738156
-6.60085
6.49201
-0.108918
0.217763
-6.43968
6.43757
-0.566787
0.568895
-6.47642
6.67698
-0.937346
0.736794
-7.12016
7.51266
-0.694904
0.302405
-7.61246
7.58305
0.212244
-0.18283
0.986913
-1.03292
0.0460098
-0.122037
0.186209
0.59024
-0.654411
-0.246417
0.296444
0.377284
-0.427312
-0.334005
0.363665
0.27103
-0.300689
-0.392687
0.423615
0.232438
-0.263365
-0.453825
0.479848
0.18449
-0.210513
-0.501981
0.520533
0.151862
-0.170415
-0.537336
0.552356
0.227149
-0.242169
-0.57319
0.615678
0.587175
-0.629662
-0.712129
1.0046
1.43999
-1.73246
-1.60891
2.47775
2.01541
-2.88425
-3.29935
3.8658
2.2056
-2.77205
-4.24897
4.5694
2.35319
-2.67361
-4.83956
5.04971
2.35756
-2.5677
-5.25144
5.41403
2.1906
-2.35319
-5.56044
5.69535
1.95113
-2.08603
-5.80912
5.91139
1.68957
-1.79183
-6.00726
6.095
1.36526
-1.453
-6.17582
6.24878
1.04497
-1.11793
-6.31396
6.37171
0.7625
-0.820248
-6.42486
6.47482
0.51826
-0.568218
-6.51887
6.55416
0.347927
-0.383219
-6.58311
6.60827
0.230548
-0.255702
-6.63156
6.65495
0.13615
-0.159533
-6.67628
6.69096
0.103404
-0.118083
-6.69889
6.70513
0.123782
-0.130022
-6.71386
6.72638
0.121587
-0.13411
-6.74287
6.76274
0.114411
-0.134285
-6.78346
6.80191
0.129132
-0.147584
-6.81803
6.83533
0.174599
-0.191898
-6.85585
6.87592
0.244843
-0.264915
-6.88942
6.89608
0.367384
-0.374048
-6.89951
6.90257
0.47499
-0.47805
-6.90513
6.90762
0.510887
-0.513373
-6.91167
6.91842
0.463929
-0.470683
-6.92847
6.9414
0.351531
-0.364463
-6.95724
6.97533
0.221573
-0.239668
-6.99461
7.01334
0.125238
-0.143964
-7.02966
7.04307
0.0864249
-0.0998369
-7.05508
7.06743
0.0760382
-0.0883848
-7.08037
7.09151
0.0494567
-0.0605966
-7.09759
7.09794
0.0183534
-0.0187014
-7.09547
7.09334
0.0184711
-0.0163386
-7.09293
7.09494
0.0212359
-0.0232477
-7.09845
7.10122
-0.0133375
0.010571
-7.09997
7.09439
-0.0711106
0.0766876
-7.08848
7.084
-0.110123
0.114602
-7.07953
7.06978
-0.149419
0.159176
-7.04776
7.01195
-0.137435
0.173242
-6.9675
6.91795
0.0363177
0.0132341
-6.87374
6.84137
0.293436
-0.261068
-6.81657
6.79605
0.434434
-0.413911
-6.78004
6.77089
0.380127
-0.370976
-6.7704
6.7767
0.192835
-0.199133
-6.78482
6.80167
-0.0307816
0.0139312
-6.85525
6.85253
-0.294855
0.297573
-6.87769
6.96624
-0.528599
0.440048
-7.13267
7.33884
-0.526149
0.319978
-7.46731
7.5548
-0.119632
0.0321437
-7.60718
7.64176
0.217282
-0.251858
1.0686
-1.0954
0.0267989
-0.0816476
0.135068
0.713364
-0.766784
-0.193449
0.248499
0.479113
-0.534163
-0.290403
0.319672
0.329582
-0.358851
-0.345982
0.376228
0.29399
-0.324235
-0.408837
0.439125
0.238475
-0.268763
-0.46424
0.483566
0.189094
-0.208421
-0.496576
0.50685
0.257531
-0.267805
-0.523483
0.457969
0.661144
-0.59563
-1.29255
2.57594
2.64767
-3.93106
-3.06433
3.40429
3.47492
-3.81487
-3.73837
4.05871
3.13811
-3.45845
-4.3532
4.61647
2.94071
-3.20398
-4.8584
5.07436
2.77634
-2.99229
-5.27812
5.46396
2.52793
-2.71376
-5.63251
5.78628
2.23055
-2.38432
-5.92221
6.04261
1.90455
-2.02495
-6.15028
6.24712
1.5464
-1.64325
-6.33345
6.40996
1.19373
-1.27024
-6.47709
6.53546
0.879214
-0.937579
-6.58675
6.63197
0.616017
-0.661236
-6.67116
6.7036
0.417243
-0.449678
-6.73015
6.75236
0.279206
-0.30142
-6.77208
6.79129
0.180652
-0.199856
-6.80967
6.82468
0.133224
-0.14824
-6.83505
6.84271
0.136717
-0.144372
-6.85043
6.86019
0.144498
-0.154266
-6.87361
6.89127
0.152533
-0.170201
-6.91131
6.93009
0.165993
-0.184782
-6.94661
6.9632
0.208408
-0.224993
-6.98203
7.00109
0.283597
-0.302659
-7.0149
7.02204
0.380698
-0.387843
-7.0262
7.02985
0.480956
-0.484611
-7.03207
7.03165
0.514192
-0.513771
-7.03107
7.03245
0.474932
-0.476309
-7.03661
7.04367
0.374267
-0.381329
-7.0538
7.06702
0.254791
-0.268014
-7.08244
7.09872
0.160787
-0.177072
-7.11403
7.12736
0.112823
-0.126155
-7.13937
7.15213
0.101038
-0.113799
-7.16699
7.18184
0.0734223
-0.0882724
-7.19204
7.19464
0.0197167
-0.0223177
-7.19305
7.19072
0.0139458
-0.0116144
-7.1891
7.18974
0.0251022
-0.0257448
-7.1937
7.20042
-0.0055163
-0.00120031
-7.20495
7.20097
-0.0816107
0.0855843
-7.19507
7.1917
-0.11803
0.121399
-7.19174
7.1949
-0.16187
0.158715
-7.19464
7.17016
-0.205296
0.229777
-7.12857
7.06001
-0.0711217
0.139682
-6.98541
6.93046
0.218237
-0.163285
-6.89469
6.87483
0.394423
-0.374561
-6.86714
6.87028
0.368523
-0.371667
-6.88383
6.90737
0.215655
-0.239189
-6.94028
6.98237
0.0119917
-0.0540781
-7.03607
7.11401
-0.206613
0.128665
-7.22505
7.3412
-0.327958
0.211813
-7.45091
7.54282
-0.211141
0.119225
-7.61351
7.66643
0.0187572
-0.0716747
-7.70722
7.73481
0.280002
-0.307595
1.11728
-1.13665
0.0193661
-0.0494482
0.0849354
0.811905
-0.847392
-0.133722
0.192778
0.591976
-0.651031
-0.248953
0.288643
0.390213
-0.429902
-0.314719
0.341748
0.352795
-0.379824
-0.374261
0.408475
0.301069
-0.335284
-0.438949
0.460235
0.22815
-0.249436
-0.472101
0.473689
0.264213
-0.2658
-0.220249
1.27329
1.01611
-2.06915
-2.81438
3.12568
4.46957
-4.78087
-3.3841
3.65071
4.1044
-4.37101
-3.92333
4.20325
3.75444
-4.03436
-4.48088
4.74438
3.46545
-3.72895
-4.99156
5.21859
3.21288
-3.43991
-5.42884
5.62124
2.9031
-3.0955
-5.79582
5.95287
2.53971
-2.69676
-6.09068
6.21097
2.14651
-2.2668
-6.31522
6.40625
1.73777
-1.8288
-6.48515
6.55302
1.34311
-1.41098
-6.61131
6.66169
0.992567
-1.04294
-6.70541
6.74305
0.702617
-0.740253
-6.77565
6.80338
0.479422
-0.507152
-6.8269
6.8472
0.32206
-0.342358
-6.86525
6.88266
0.21741
-0.234815
-6.89985
6.91548
0.162974
-0.178604
-6.92826
6.93914
0.153237
-0.164117
-6.94981
6.96163
0.164419
-0.176233
-6.97629
6.99545
0.188001
-0.207157
-7.01769
7.03871
0.204157
-0.225179
-7.05692
7.07487
0.241826
-0.259777
-7.09516
7.11736
0.322826
-0.345026
-7.13534
7.14459
0.39562
-0.404868
-7.14989
7.15499
0.48903
-0.494129
-7.15874
7.15507
0.511959
-0.508284
-7.14629
7.13959
0.474382
-0.467685
-7.13692
7.13875
0.385745
-0.38758
-7.14591
7.15856
0.280192
-0.292844
-7.17519
7.19399
0.193817
-0.21262
-7.21264
7.22943
0.140566
-0.157349
-7.24324
7.25494
0.125798
-0.1375
-7.26741
7.282
0.104041
-0.118625
-7.2983
7.30857
0.0278868
-0.0381538
-7.3105
7.31074
0.0100921
-0.0103332
-7.30763
7.30247
0.0239191
-0.0187517
-7.2979
7.29796
0.00676926
-0.00682504
-7.30225
7.30653
-0.0885525
0.0842689
-7.30389
7.29861
-0.125501
0.130778
-7.29434
7.27921
-0.155961
0.171088
-7.24342
7.21137
-0.237034
0.269075
-7.1923
7.17398
-0.191048
0.209368
-7.13633
7.07173
0.0774693
-0.0128783
-7.02584
6.97845
0.352459
-0.305062
-6.97588
6.99242
0.380823
-0.397358
-7.01769
7.05216
0.268075
-0.302542
-7.09618
7.15076
0.103808
-0.158391
-7.21745
7.29553
-0.0490579
-0.0290244
-7.3838
7.47626
-0.110949
0.0184887
-7.56482
7.64571
-0.0357003
-0.0451926
-7.71524
7.76999
0.125707
-0.180454
-7.81047
7.83901
0.335136
-0.363672
1.15528
-1.17196
0.0166859
-0.0343842
0.0499688
0.871774
-0.887359
-0.0786855
0.128025
0.705728
-0.755068
-0.193609
0.255295
0.480365
-0.542051
-0.298459
0.328961
0.406544
-0.437046
-0.359741
0.395883
0.370072
-0.406213
-0.431908
0.461165
0.272501
-0.301758
-0.472845
0.41133
0.310464
-0.24895
-1.73782
3.01599
3.78104
-5.0592
-3.23291
3.42685
5.05836
-5.2523
-3.65164
3.89483
4.6225
-4.86568
-4.14902
4.41256
4.3021
-4.56564
-4.67988
4.94224
3.98923
-4.25158
-5.19122
5.42098
3.66767