/*--------------------------------*- C++ -*----------------------------------*\
| =========                 |                                                 |
| \\      /  F ield         | OpenFOAM: The Open Source CFD Toolbox           |
|  \\    /   O peration     | Version:  v1912                                 |
|   \\  /    A nd           | Website:  www.openfoam.com                      |
|    \\/     M anipulation  |                                                 |
\*---------------------------------------------------------------------------*/
FoamFile
{
    version     2.0;
    format      ascii;
    class       volVectorField;
    location    "54";
    object      U;
}
// * * * * * * * * * * * * * * * * * * * * * * * * * * * * * * * * * * * * * //

dimensions      [0 1 -1 0 0 0 0];


internalField   nonuniform List<vector> 
20320
(
(1.85816 0.00631663 0)
(1.85707 -0.00546397 0)
(1.84135 0.00457168 0)
(1.81188 0.0125725 0)
(1.77088 0.0197677 0)
(1.71931 0.026596 0)
(1.65763 0.0327912 0)
(1.58587 0.0389096 0)
(1.50454 0.0445262 0)
(1.41433 0.049464 0)
(1.31582 0.0545767 0)
(1.20922 0.059588 0)
(1.09527 0.0639773 0)
(0.974534 0.0680405 0)
(0.847798 0.0715951 0)
(0.715529 0.0751425 0)
(0.577935 0.0787892 0)
(0.433892 0.0838369 0)
(0.28097 0.0895984 0)
(0.111518 0.0731826 0)
(1.85826 0.0112942 0)
(1.84976 0.035806 0)
(1.83045 0.0668595 0)
(1.80006 0.0980138 0)
(1.75869 0.128642 0)
(1.70657 0.158558 0)
(1.64408 0.187645 0)
(1.57159 0.215664 0)
(1.48946 0.242561 0)
(1.3982 0.268243 0)
(1.29821 0.292449 0)
(1.18994 0.315139 0)
(1.0738 0.336232 0)
(0.950313 0.355574 0)
(0.820003 0.372965 0)
(0.683563 0.388306 0)
(0.541875 0.401803 0)
(0.396322 0.414693 0)
(0.249199 0.429719 0)
(0.104932 0.459973 0)
(1.85825 0.0170811 0)
(1.84975 0.069997 0)
(1.83021 0.125512 0)
(1.79968 0.180641 0)
(1.75831 0.234958 0)
(1.70626 0.288042 0)
(1.64377 0.339551 0)
(1.57117 0.389189 0)
(1.48888 0.436705 0)
(1.39731 0.481813 0)
(1.29707 0.524379 0)
(1.18881 0.564384 0)
(1.07311 0.601778 0)
(0.950437 0.63643 0)
(0.821222 0.668001 0)
(0.685879 0.695854 0)
(0.544929 0.719099 0)
(0.399196 0.737116 0)
(0.250066 0.751305 0)
(0.101278 0.784906 0)
(1.85825 0.0228761 0)
(1.85001 0.099958 0)
(1.83082 0.179412 0)
(1.80061 0.257966 0)
(1.75954 0.335202 0)
(1.70782 0.410697 0)
(1.64567 0.484017 0)
(1.57335 0.554734 0)
(1.49118 0.622408 0)
(1.3996 0.686625 0)
(1.2991 0.747027 0)
(1.19031 0.803394 0)
(1.07401 0.855665 0)
(0.950996 0.903901 0)
(0.822016 0.948064 0)
(0.687602 0.987653 0)
(0.548101 1.02136 0)
(0.403794 1.04721 0)
(0.255048 1.06455 0)
(0.104227 1.09895 0)
(1.85825 0.0283464 0)
(1.85015 0.128004 0)
(1.8313 0.229812 0)
(1.80158 0.330527 0)
(1.76111 0.429645 0)
(1.7101 0.526669 0)
(1.64869 0.621068 0)
(1.57712 0.71231 0)
(1.49565 0.799809 0)
(1.40464 0.882987 0)
(1.30452 0.961301 0)
(1.19583 1.03425 0)
(1.07923 1.10148 0)
(0.955574 1.16287 0)
(0.825805 1.21852 0)
(0.690795 1.26837 0)
(0.551124 1.31148 0)
(0.406998 1.34549 0)
(0.258249 1.36823 0)
(0.105454 1.4048 0)
(1.85825 0.0334827 0)
(1.85036 0.154486 0)
(1.832 0.277431 0)
(1.803 0.399166 0)
(1.76348 0.51913 0)
(1.71354 0.63676 0)
(1.65328 0.751433 0)
(1.58286 0.862517 0)
(1.50249 0.969305 0)
(1.41243 1.07106 0)
(1.31306 1.16707 0)
(1.20482 1.25663 0)
(1.08829 1.33909 0)
(0.964207 1.41397 0)
(0.833513 1.48116 0)
(0.697262 1.54078 0)
(0.556354 1.59242 0)
(0.411229 1.634 0)
(0.261632 1.66246 0)
(0.106269 1.70222 0)
(1.85825 0.0382451 0)
(1.85067 0.179203 0)
(1.83299 0.321935 0)
(1.80503 0.463427 0)
(1.76683 0.603091 0)
(1.71842 0.740324 0)
(1.65982 0.874439 0)
(1.59108 1.00472 0)
(1.51229 1.13033 0)
(1.42363 1.25039 0)
(1.32537 1.36402 0)
(1.21786 1.47031 0)
(1.10158 1.56835 0)
(0.977183 1.65732 0)
(0.845515 1.7367 0)
(0.707677 1.80643 0)
(0.564805 1.86643 0)
(0.417663 1.9151 0)
(0.266117 1.94903 0)
(0.107016 1.99216 0)
(1.85825 0.0425878 0)
(1.85108 0.201948 0)
(1.83434 0.362961 0)
(1.80779 0.522813 0)
(1.77139 0.680928 0)
(1.72509 0.836701 0)
(1.66876 0.989406 0)
(1.60233 1.13825 0)
(1.52574 1.2823 0)
(1.43905 1.42052 0)
(1.34237 1.55186 0)
(1.23593 1.67519 0)
(1.1201 1.78933 0)
(0.995417 1.89314 0)
(0.862647 1.98565 0)
(0.722862 2.06637 0)
(0.577361 2.13521 0)
(0.427272 2.19092 0)
(0.272835 2.23 0)
(0.109042 2.27564 0)
(1.85825 0.0464591 0)
(1.85163 0.222485 0)
(1.83611 0.4001 0)
(1.81141 0.576757 0)
(1.77741 0.751947 0)
(1.7339 0.925104 0)
(1.68061 1.0955 0)
(1.6173 1.2623 0)
(1.54372 1.42447 0)
(1.45972 1.58083 0)
(1.36525 1.73015 0)
(1.26036 1.87107 0)
(1.14525 2.00212 0)
(1.02033 2.12181 0)
(0.886267 2.22868 0)
(0.744072 2.3217 0)
(0.59518 2.40047 0)
(0.441152 2.46396 0)
(0.282941 2.50875 0)
(0.113488 2.55495 0)
(1.85825 0.0498044 0)
(1.85232 0.240552 0)
(1.83837 0.432889 0)
(1.81605 0.624616 0)
(1.78512 0.815341 0)
(1.74523 1.0046 0)
(1.69592 1.1917 0)
(1.63671 1.37582 0)
(1.56716 1.55583 0)
(1.48684 1.73042 0)
(1.39545 1.89819 0)
(1.29279 2.05752 0)
(1.17884 2.20663 0)
(1.05383 2.34361 0)
(0.918256 2.46649 0)
(0.773043 2.57354 0)
(0.61967 2.66374 0)
(0.459997 2.73593 0)
(0.295383 2.78656 0)
(0.115647 2.8319 0)
(1.85826 0.0525681 0)
(1.85318 0.255878 0)
(1.84117 0.460845 0)
(1.82181 0.665698 0)
(1.79473 0.870231 0)
(1.75941 1.07414 0)
(1.71518 1.27683 0)
(1.66132 1.47753 0)
(1.59707 1.67509 0)
(1.52171 1.86809 0)
(1.43458 2.05496 0)
(1.33516 2.23381 0)
(1.22311 2.40253 0)
(1.09834 2.55873 0)
(0.961131 2.69985 0)
(0.812244 2.82335 0)
(0.653196 2.92732 0)
(0.486245 3.01008 0)
(0.313427 3.06768 0)
(0.120408 3.11106 0)
(1.85826 0.0546992 0)
(1.8542 0.268197 0)
(1.84453 0.483486 0)
(1.82875 0.699301 0)
(1.80637 0.915686 0)
(1.77669 1.13257 0)
(1.73882 1.34954 0)
(1.69175 1.56592 0)
(1.63439 1.78063 0)
(1.56563 1.9922 0)
(1.4844 2.19891 0)
(1.3897 2.39867 0)
(1.28071 2.58896 0)
(1.15692 2.76692 0)
(1.01817 2.92927 0)
(0.864953 3.07251 0)
(0.698683 3.19351 0)
(0.522015 3.28963 0)
(0.337854 3.35611 0)
(0.126682 3.39671 0)
(1.85826 0.056157 0)
(1.8554 0.277278 0)
(1.84846 0.500382 0)
(1.83688 0.724773 0)
(1.82007 0.95081 0)
(1.79717 1.17873 0)
(1.76705 1.40837 0)
(1.72845 1.63928 0)
(1.67989 1.87051 0)
(1.61983 2.10065 0)
(1.54666 2.32794 0)
(1.45879 2.55013 0)
(1.35475 2.76439 0)
(1.23331 2.96732 0)
(1.09367 3.15489 0)
(0.935722 3.3224 0)
(0.76059 3.46511 0)
(0.571253 3.57874 0)
(0.371843 3.65709 0)
(0.136855 3.69435 0)
(1.85827 0.0569158 0)
(1.85675 0.28295 0)
(1.85289 0.511199 0)
(1.84609 0.741578 0)
(1.8357 0.974811 0)
(1.82071 1.21151 0)
(1.79984 1.45187 0)
(1.77153 1.69576 0)
(1.73399 1.94249 0)
(1.68519 2.19085 0)
(1.62292 2.43922 0)
(1.54485 2.68534 0)
(1.44862 2.92621 0)
(1.332 3.158 0)
(1.19308 3.3759 0)
(1.0307 3.57386 0)
(0.845168 3.74501 0)
(0.639511 3.88251 0)
(0.419432 3.97749 0)
(0.152802 4.01043 0)
(1.85827 0.0569705 0)
(1.85821 0.285128 0)
(1.85772 0.515747 0)
(1.8562 0.749362 0)
(1.85295 0.987097 0)
(1.84693 1.23 0)
(1.83674 1.47869 0)
(1.82064 1.73346 0)
(1.79653 1.99408 0)
(1.76197 2.25971 0)
(1.71414 2.52908 0)
(1.64987 2.80022 0)
(1.56571 3.07025 0)
(1.45802 3.33522 0)
(1.32321 3.58976 0)
(1.15822 3.82646 0)
(0.961559 4.03581 0)
(0.735474 4.20715 0)
(0.487185 4.32696 0)
(0.17595 4.35403 0)
(1.85827 0.0563393 0)
(1.85975 0.283835 0)
(1.86281 0.514022 0)
(1.8669 0.748031 0)
(1.87136 0.987384 0)
(1.87516 1.23359 0)
(1.87691 1.48775 0)
(1.87482 1.75072 0)
(1.86663 2.02282 0)
(1.84958 2.30384 0)
(1.82034 2.59315 0)
(1.77497 2.88944 0)
(1.70882 3.19047 0)
(1.61652 3.49277 0)
(1.49211 3.79106 0)
(1.3294 4.07712 0)
(1.12326 4.33872 0)
(0.872915 4.55988 0)
(0.585289 4.71951 0)
(0.2024 4.75016 0)
(1.85828 0.0550642 0)
(1.86131 0.27921 0)
(1.86798 0.506234 0)
(1.87783 0.737794 0)
(1.89029 0.975777 0)
(1.90448 1.22215 0)
(1.91911 1.47851 0)
(1.93252 1.74631 0)
(1.94249 2.02658 0)
(1.94619 2.31993 0)
(1.94005 2.62663 0)
(1.91957 2.94653 0)
(1.87911 3.27867 0)
(1.81157 3.62102 0)
(1.70815 3.96975 0)
(1.55819 4.31743 0)
(1.35006 4.65042 0)
(1.07518 4.94675 0)
(0.735456 5.17292 0)
(0.246704 5.23398 0)
(1.85828 0.053209 0)
(1.86283 0.27151 0)
(1.87304 0.492806 0)
(1.88858 0.71918 0)
(1.90905 0.952819 0)
(1.93377 1.19608 0)
(1.96175 1.45103 0)
(1.9916 1.71972 0)
(2.02141 2.00395 0)
(2.04863 2.3052 0)
(2.06985 2.62493 0)
(2.08055 2.96447 0)
(2.07469 3.32485 0)
(2.0441 3.70664 0)
(1.97755 4.10939 0)
(1.8595 4.52974 0)
(1.66902 4.95705 0)
(1.3819 5.36715 0)
(0.982954 5.71117 0)
(0.359611 5.84325 0)
(1.85829 0.0508543 0)
(1.86425 0.26109 0)
(1.87781 0.474351 0)
(1.89876 0.693023 0)
(1.92691 0.919494 0)
(1.96188 1.15641 0)
(2.00306 1.40622 0)
(2.04955 1.67147 0)
(2.1 1.95466 0)
(2.15248 2.25817 0)
(2.20428 2.58462 0)
(2.25162 2.93697 0)
(2.28912 3.3186 0)
(2.30903 3.73355 0)
(2.29975 4.18672 0)
(2.24314 4.68299 0)
(2.10998 5.22321 0)
(1.85427 5.79522 0)
(1.41488 6.35142 0)
(0.608504 6.6842 0)
(1.85829 0.0480915 0)
(1.86554 0.248377 0)
(1.88213 0.45163 0)
(1.908 0.660401 0)
(1.94321 0.877162 0)
(1.98772 1.10473 0)
(2.04135 1.34576 0)
(2.10382 1.60317 0)
(2.17454 1.87998 0)
(2.25253 2.17924 0)
(2.33626 2.50453 0)
(2.42347 2.8602 0)
(2.51071 3.25169 0)
(2.59273 3.68635 0)
(2.66118 4.17488 0)
(2.70169 4.73284 0)
(2.68734 5.38105 0)
(2.5651 6.14267 0)
(2.22182 7.03361 0)
(1.3493 7.87713 0)
(0.578316 -0.319432 0)
(1.12572 -0.149162 0)
(1.67683 -0.0768503 0)
(2.00855 -0.0449516 1.0105e-20)
(2.25513 -0.037855 0)
(2.52247 -0.0578521 0)
(2.61355 0.0224839 0)
(2.7362 -0.0628221 0)
(3.27289 -0.114985 0)
(4.48082 -0.260778 -2.77184e-21)
(5.95892 -0.244733 0)
(7.28509 -0.177096 0)
(8.28679 -0.148472 -2.94876e-20)
(9.08156 -0.132295 -3.1097e-20)
(10.2274 -0.205097 0)
(11.3428 -0.247045 2.94902e-20)
(12.8631 -0.288641 -3.01958e-20)
(14.5211 -0.259113 4.488e-20)
(16.0632 -0.298933 0)
(17.4985 -0.242125 2.1393e-20)
(18.4726 -0.151599 -1.81395e-20)
(19.1756 -0.117465 -2.98577e-20)
(19.5815 -0.0503639 1.35794e-20)
(19.707 -0.0235925 -9.80388e-21)
(19.8638 -0.0547202 0)
(20.128 -0.0486774 -6.28053e-21)
(20.2442 -0.0194915 0)
(20.2543 -0.0218383 3.98162e-21)
(20.3988 -0.0616747 5.36464e-21)
(20.5241 -0.0107396 0)
(20.3517 0.0597939 1.28032e-21)
(19.9692 -0.826223 -9.14636e-21)
(19.2173 -1.95664 -2.03273e-20)
(23.2181 -0.69308 2.54876e-19)
(25.1206 -0.562809 0)
(26.4881 -0.310744 0)
(27.0159 -0.046224 -2.77962e-19)
(26.5265 0.683293 0)
(25.9669 -0.00213306 -3.49612e-20)
(26.0908 -0.0522299 0)
(26.1773 0.330942 0)
(25.7246 0.0573052 -1.11201e-21)
(26.0012 -0.280478 0)
(26.2764 -0.0516798 0)
(26.2468 0.00358102 1.41575e-21)
(26.181 0.0356927 1.70262e-21)
(26.0036 0.0700373 0)
(25.824 -0.022591 -2.95239e-21)
(25.7528 0.260679 3.84509e-21)
(25.5242 0.0871033 -1.2907e-21)
(26.361 -0.0466255 0)
(27.7041 -0.261876 -3.62634e-21)
(28.9566 -0.385801 0)
(29.1798 0.281283 -2.28768e-22)
(29.6131 -0.813384 0)
(30.8457 -4.37723 0)
(29.078 -4.90287 -2.5838e-22)
(42.0581 -8.98091 5.43153e-23)
(14.2406 11.4923 0)
(18.979 0.82664 0)
(0.822003 -0.962209 0)
(1.27533 -0.413624 0)
(1.61753 -0.263552 -7.48816e-21)
(1.89017 -0.186212 0)
(2.11216 -0.139257 0)
(2.27073 -0.139405 7.12915e-21)
(2.39654 -0.0426505 -4.12026e-21)
(2.69418 -0.207468 0)
(3.27762 -0.509052 -3.8645e-23)
(4.3917 -0.869255 -9.43508e-22)
(5.87097 -0.959199 -1.20649e-23)
(7.30406 -0.793145 3.59779e-20)
(8.54532 -0.656621 -2.55893e-20)
(9.66923 -0.631768 0)
(10.9071 -0.839031 0)
(12.5171 -0.912817 -1.74975e-20)
(14.3163 -1.06057 0)
(16.6336 -1.12192 0)
(18.6016 -0.980697 -3.68342e-23)
(19.9186 -0.740799 0)
(20.6928 -0.537304 0)
(21.2468 -0.37122 0)
(21.4261 -0.165627 1.34817e-20)
(21.5111 -0.073103 -1.09541e-20)
(21.6821 -0.165143 4.90033e-21)
(21.8866 -0.126673 4.96636e-21)
(21.9028 -0.0354059 0)
(21.9409 -0.0517622 0)
(22.0593 -0.136685 2.10151e-21)
(22.1178 -0.0702272 8.50604e-25)
(22.1777 -0.110831 0)
(22.5174 -0.369438 1.25467e-22)
(24.0811 -0.711781 2.17723e-20)
(24.6568 -0.842636 0)
(24.9408 -0.696801 0)
(25.2129 -0.421454 -2.11302e-21)
(25.3962 -0.101929 0)
(25.7195 0.0795526 0)
(25.9916 -0.0187279 0)
(26.0144 -0.0521893 -3.20149e-22)
(26.0837 0.0511799 -4.12325e-22)
(26.1823 -0.0128818 1.73546e-21)
(26.1813 -0.0744275 -5.16456e-22)
(26.1981 -0.0495844 0)
(26.1706 0.00204322 2.89091e-22)
(26.1177 0.0578532 0)
(26.0293 0.106629 -5.29497e-23)
(25.9027 0.0850075 7.33666e-23)
(25.8059 0.082548 2.002e-23)
(25.9058 -0.20312 -2.571e-22)
(26.2136 -0.469264 8.52015e-22)
(26.9411 -0.698797 2.5545e-21)
(27.764 -0.597636 -2.56549e-21)
(28.517 -0.86852 0)
(28.9859 0.854668 0)
(28.7469 -3.28475 0)
(28.6218 -2.3644 0)
(24.1496 -0.752559 2.06927e-21)
(24.0051 6.70061 4.45328e-22)
(25.1475 -1.74135 0)
(0.925201 -1.43446 0)
(1.28202 -0.679793 -3.91223e-21)
(1.56151 -0.431251 0)
(1.7752 -0.322505 -7.77638e-21)
(1.97433 -0.252544 -9.1328e-21)
(2.13477 -0.212102 -9.48467e-21)
(2.27148 -0.155257 0)
(2.53088 -0.324623 -6.78451e-21)
(3.01547 -0.810363 0)
(4.15669 -1.51853 0)
(5.87618 -1.80839 0)
(7.51932 -1.60953 0)
(8.94977 -1.35418 0)
(10.2282 -1.18196 0)
(11.9697 -1.49238 0)
(16.8238 -2.30619 0)
(21.8739 -2.86164 0)
(22.1417 -2.35343 -4.49585e-20)
(22.2996 -1.76182 0)
(22.5372 -1.21638 0)
(22.7724 -0.724907 0)
(22.8489 -0.465933 0)
(23.0712 -0.233488 0)
(23.2475 -0.102173 0)
(23.1832 -0.202398 0)
(23.1458 -0.17438 0)
(23.391 -0.0661789 0)
(23.5753 -0.08785 0)
(23.5949 -0.164226 1.09025e-20)
(23.7997 -0.16761 0)
(24.1787 -0.304064 -7.63766e-21)
(24.4339 -0.681443 0)
(24.6345 -0.863391 0)
(24.8189 -0.941634 0)
(24.9449 -0.81433 0)
(25.0865 -0.546446 0)
(25.2627 -0.249585 -4.54613e-22)
(25.5057 -0.0642876 0)
(25.6967 -0.0715596 0)
(25.7669 -0.0769205 0)
(25.8394 -0.0265327 3.75315e-22)
(25.9007 -0.0294077 -7.20969e-22)
(25.8966 -0.0430696 5.18605e-22)
(25.8979 -0.0390866 0)
(25.8684 0.0158871 3.48278e-22)
(25.8167 0.0930031 0)
(25.7403 0.15803 0)
(25.6284 0.169269 0)
(25.48 0.081921 0)
(25.4247 -0.251469 -1.74774e-22)
(25.5122 -0.633085 0)
(25.6899 -0.946333 -1.80683e-21)
(25.7437 -0.960448 0)
(24.2107 -1.69413 0)
(24.3125 0.562891 2.03983e-21)
(24.8325 -0.700647 4.57354e-21)
(24.3388 0.148947 4.34165e-21)
(22.3494 1.95432 -5.65576e-22)
(26.7404 2.77884 0)
(27.1945 -0.439673 1.03008e-21)
(1.01559 -1.76394 0)
(1.21669 -0.961327 0)
(1.47344 -0.603597 0)
(1.65484 -0.445592 0)
(1.83572 -0.368729 9.13862e-21)
(1.99713 -0.293828 0)
(2.12227 -0.244171 0)
(2.32297 -0.404775 -4.73703e-23)
(2.74892 -1.01575 0)
(4.04049 -2.25934 1.21565e-22)
(6.26344 -2.82501 2.52314e-20)
(8.34664 -2.42838 0)
(10.713 -2.29323 0)
(19.7253 -3.7769 -8.59696e-22)
(20.9977 -4.11299 7.00034e-23)
(21.8318 -3.59151 -7.27886e-23)
(22.2217 -3.08788 -2.84462e-20)
(22.5317 -2.46009 0)
(22.7629 -1.86353 2.28217e-20)
(22.9567 -1.34141 0)
(23.1645 -0.866225 -4.13316e-23)
(23.3927 -0.580752 2.34706e-23)
(23.5497 -0.373192 -1.96433e-23)
(23.6922 -0.195535 7.79179e-21)
(23.7971 -0.170632 -8.25942e-21)
(23.8372 -0.221565 0)
(23.9471 -0.188641 0)
(24.1028 -0.160794 -6.73609e-24)
(24.2509 -0.202943 3.61871e-24)
(24.3815 -0.285775 0)
(24.6103 -0.411333 2.87087e-21)
(24.7877 -0.703355 0)
(24.8751 -0.922964 0)
(24.9402 -0.992215 0)
(24.984 -0.88428 -2.25762e-21)
(25.0521 -0.64276 0)
(25.1659 -0.370977 0)
(25.3244 -0.182058 -3.92006e-22)
(25.4607 -0.128995 1.17735e-21)
(25.5424 -0.115891 -4.07347e-22)
(25.6143 -0.0687868 -7.22484e-22)
(25.648 -0.0354093 0)
(25.6363 -0.0412428 -9.10069e-22)
(25.6346 -0.0380197 0)
(25.6253 0.0266349 -4.08546e-22)
(25.5827 0.121926 4.19389e-22)
(25.5212 0.197703 0)
(25.4332 0.248531 1.64643e-22)
(25.2511 0.171296 0)
(25.0512 -0.182269 -5.94492e-23)
(24.9433 -0.64124 -8.18191e-23)
(24.8616 -0.923119 5.56241e-23)
(24.6805 -0.802723 9.02878e-22)
(24.5197 -0.409231 1.56236e-21)
(24.2607 0.259751 0)
(23.9027 0.200802 4.88624e-21)
(23.4974 1.1422 -3.44747e-22)
(23.8328 1.68319 6.56038e-22)
(26.9708 0.972171 0)
(27.5928 -0.416098 0)
(1.0649 -1.98295 8.00277e-22)
(1.15095 -1.2241 7.46106e-22)
(1.36395 -0.789068 0)
(1.52057 -0.561582 -6.25435e-21)
(1.68929 -0.486936 8.7656e-21)
(1.85546 -0.387531 0)
(1.97765 -0.316941 0)
(2.16133 -0.456632 -4.52459e-23)
(2.59266 -1.22264 1.09984e-22)
(4.21632 -2.99028 -9.89072e-20)
(8.9921 -4.68626 -7.20892e-20)
(15.2225 -5.21657 3.88853e-22)
(17.9056 -5.11942 -5.19082e-20)
(19.647 -4.85964 0)
(20.8439 -4.43341 8.90168e-23)
(21.6681 -3.94525 -6.31795e-20)
(22.2722 -3.40695 0)
(22.6935 -2.76156 -2.48567e-20)
(23.0264 -2.12058 -2.1667e-20)
(23.283 -1.55255 0)
(23.4913 -1.06741 1.54418e-20)
(23.6841 -0.718323 -3.07398e-23)
(23.8109 -0.477983 0)
(23.9178 -0.290919 0)
(24.0437 -0.216799 6.57003e-21)
(24.1108 -0.249195 5.3774e-24)
(24.1715 -0.252153 0)
(24.2856 -0.244846 0)
(24.4385 -0.271423 3.06633e-24)
(24.5757 -0.360152 0)
(24.7542 -0.50122 -4.84163e-21)
(24.9023 -0.72774 4.71067e-25)
(24.9692 -0.935479 1.68844e-21)
(24.9958 -1.0061 -3.00676e-21)
(24.9972 -0.918765 2.52931e-21)
(25.0165 -0.704347 2.13029e-21)
(25.0748 -0.454204 0)
(25.1736 -0.26519 -2.72558e-24)
(25.2733 -0.182999 0)
(25.3544 -0.161165 2.74323e-22)
(25.4367 -0.107199 3.54917e-22)
(25.468 -0.0359538 4.98966e-22)
(25.4502 -0.0343474 3.37584e-22)
(25.4487 -0.0437553 -3.38535e-22)
(25.4646 0.0245856 4.5322e-22)
(25.4403 0.14609 6.18963e-22)
(25.3905 0.221293 -7.19285e-22)
(25.3508 0.305728 2.37676e-24)
(25.1947 0.310235 2.94082e-22)
(24.9046 -0.0158012 1.02522e-22)
(24.6309 -0.541501 -3.48101e-22)
(24.4697 -0.8323 0)
(24.3433 -0.733433 -8.12636e-22)
(24.3199 -0.378253 1.19999e-21)
(24.4187 0.0229783 0)
(24.6531 0.543174 -8.01306e-21)
(24.7206 1.41162 3.59818e-22)
(25.9426 1.09453 4.87991e-24)
(26.9615 0.0207208 0)
(27.3934 -0.473402 -2.85042e-22)
(1.09204 -2.11163 7.41238e-22)
(1.08436 -1.44968 0)
(1.26161 -0.989053 1.3876e-23)
(1.40132 -0.672365 0)
(1.55016 -0.604996 0)
(1.72258 -0.494212 -1.21577e-20)
(1.85254 -0.388594 0)
(1.99427 -0.523491 2.89909e-20)
(2.38029 -1.2877 3.369e-20)
(11.0614 -7.30748 -2.41653e-18)
(14.3384 -7.20996 -3.78578e-20)
(16.3737 -6.44535 -7.12882e-20)
(18.2058 -5.98117 1.45946e-19)
(19.7093 -5.62693 3.53932e-20)
(20.8916 -5.11803 0)
(21.8109 -4.50657 6.50743e-20)
(22.4913 -3.83713 0)
(22.9613 -3.1161 0)
(23.298 -2.40831 4.26988e-20)
(23.5365 -1.77662 0)
(23.7088 -1.24966 0)
(23.8443 -0.848495 -1.17733e-20)
(23.9366 -0.568292 -1.8007e-20)
(24.0114 -0.372869 0)
(24.1078 -0.275294 -5.68735e-21)
(24.1792 -0.274165 0)
(24.2362 -0.291923 3.24018e-21)
(24.3345 -0.315404 0)
(24.4794 -0.342402 5.74671e-21)
(24.6145 -0.423236 0)
(24.7802 -0.572297 -2.34364e-21)
(24.916 -0.75034 2.2499e-21)
(24.9832 -0.943076 0)
(25.0039 -1.00385 -1.62238e-21)
(24.9747 -0.929534 1.4593e-21)
(24.9571 -0.7395 -1.4115e-21)
(24.9781 -0.512966 -5.93173e-24)
(25.0484 -0.332363 2.06339e-22)
(25.1359 -0.235106 -1.45627e-22)
(25.215 -0.211544 -2.64809e-26)
(25.3086 -0.159186 0)
(25.3594 -0.0409307 -6.03074e-22)
(25.3459 -0.0243289 -1.26814e-22)
(25.3382 -0.0494218 0)
(25.3593 0.00320274 3.51518e-24)
(25.3667 0.160209 -1.32387e-21)
(25.3185 0.230878 4.46479e-22)
(25.3101 0.311942 8.1273e-22)
(25.2896 0.385286 -4.34859e-21)
(25.0101 0.140952 1.41374e-21)
(24.5356 -0.419274 -1.29416e-21)
(24.3 -0.744596 -6.01068e-22)
(24.2415 -0.722369 5.57399e-22)
(24.3147 -0.44069 0)
(24.5231 -0.0577558 -1.07734e-21)
(24.9043 0.290453 0)
(25.6527 0.432718 -1.67445e-22)
(26.4293 0.277855 0)
(26.9392 -0.0770337 0)
(27.2318 -0.572531 0)
(1.12632 -2.18592 -6.50597e-22)
(1.01481 -1.61846 0)
(1.14221 -1.20901 0)
(1.32119 -0.79226 4.86372e-21)
(1.46338 -0.712026 0)
(1.63797 -0.618805 0)
(1.77725 -0.463669 0)
(1.81226 -0.508837 0)
(-0.432924 -1.11601 0)
(14.2658 -8.99988 0)
(15.5715 -8.24904 0)
(17.1436 -7.58062 -6.42388e-20)
(18.7647 -6.99897 0)
(20.2051 -6.46938 0)
(21.3634 -5.8343 7.52307e-20)
(22.2493 -5.09445 0)
(22.8706 -4.29459 1.02698e-22)
(23.2653 -3.47265 0)
(23.5077 -2.6817 -8.85145e-23)
(23.6519 -1.98225 0)
(23.7458 -1.40479 0)
(23.8161 -0.959794 -1.02681e-20)
(23.8723 -0.64566 -7.87728e-21)
(23.9292 -0.439034 6.01689e-21)
(24.0118 -0.331059 -4.90546e-21)
(24.0912 -0.30724 0)
(24.1691 -0.330269 9.44093e-24)
(24.2828 -0.384208 6.7823e-24)
(24.4406 -0.41798 0)
(24.584 -0.489606 -2.07554e-21)
(24.7603 -0.651849 0)
(24.9092 -0.780904 -2.00299e-21)
(24.98 -0.956264 -4.486e-24)
(25.0018 -0.998217 -3.21032e-21)
(24.9204 -0.927429 0)
(24.8592 -0.755566 1.75273e-21)
(24.8629 -0.551692 -2.95822e-22)
(24.9416 -0.384205 2.40561e-22)
(25.0486 -0.27904 1.19153e-22)
(25.1373 -0.248872 2.85012e-22)
(25.2124 -0.205045 0)
(25.2862 -0.0594272 1.65296e-21)
(25.3125 -0.0211656 -7.59044e-21)
(25.2943 -0.0484868 -8.79341e-24)
(25.259 -0.0133764 0)
(25.27 0.164458 -7.52833e-21)
(25.2454 0.240858 4.09067e-21)
(25.2107 0.304468 -4.79956e-21)
(24.9092 0.57854 0)
(24.8217 0.58873 3.47107e-21)
(24.5797 0.0845507 0)
(24.2582 -0.704256 0)
(24.213 -0.742563 0)
(24.3764 -0.561967 0)
(24.661 -0.256307 0)
(25.107 0.0243841 0)
(25.7147 0.134463 0)
(26.3354 -0.00595501 -7.81228e-24)
(26.8193 -0.29868 -7.97414e-23)
(27.1036 -0.679754 2.82066e-23)
(1.15957 -2.2459 0)
(0.969296 -1.70483 -8.45598e-24)
(1.01947 -1.41856 -2.68407e-21)
(1.23804 -0.986535 3.77747e-21)
(1.45123 -0.814189 0)
(1.62489 -0.751292 0)
(1.77556 -0.552312 0)
(1.83127 -0.616378 2.27516e-20)
(14.6702 -8.7882 0)
(15.4677 -9.99186 0)
(16.6305 -9.19044 0)
(18.0398 -8.58681 -7.10151e-20)
(19.5418 -7.97755 0)
(20.9104 -7.32422 0)
(21.9761 -6.54763 -8.03294e-20)
(22.7134 -5.65628 0)
(23.1567 -4.71125 0)
(23.3811 -3.77556 0)
(23.4783 -2.89881 -2.01164e-20)
(23.5102 -2.14452 -1.55794e-20)
(23.5375 -1.53389 0)
(23.5758 -1.06276 -8.82432e-21)
(23.6338 -0.729514 -6.54257e-21)
(23.7152 -0.515821 -4.91695e-21)
(23.8273 -0.404941 -3.95584e-21)
(23.9415 -0.364986 0)
(24.0617 -0.389526 0)
(24.208 -0.464286 0)
(24.3797 -0.503035 0)
(24.5595 -0.550783 0)
(24.7499 -0.718822 0)
(24.8986 -0.791891 -7.15788e-22)
(24.9859 -0.953175 0)
(24.9485 -0.986795 0)
(23.9025 -0.78649 -1.41979e-20)
(23.5208 -0.727183 -2.58497e-21)
(23.4141 -0.630393 2.72948e-23)
(23.4464 -0.526414 0)
(23.5385 -0.416571 0)
(23.6298 -0.338237 0)
(23.6687 -0.297166 0)
(23.6072 0.112423 0)
(23.4965 0.0858659 0)
(23.4977 -0.090403 0)
(23.5187 -0.0198943 0)
(23.4551 0.244308 0)
(23.5171 0.260959 0)
(23.5692 0.342936 0)
(23.7156 0.471325 0)
(23.9862 0.344214 3.20178e-21)
(24.2366 -0.0265364 0)
(24.2649 -0.47295 0)
(24.1759 -0.808313 0)
(24.4267 -0.656475 0)
(24.7957 -0.460117 2.07553e-22)
(25.2412 -0.289224 0)
(25.7674 -0.220298 0)
(26.3046 -0.315565 0)
(26.7489 -0.513299 0)
(27.0427 -0.794622 -1.23154e-23)
(1.16061 -2.29145 1.03043e-21)
(0.946062 -1.74322 0)
(0.964373 -1.56872 -9.23336e-21)
(1.12463 -1.24251 0)
(1.41016 -0.958122 0)
(1.64343 -0.889807 0)
(1.7853 -0.678906 -1.82751e-20)
(1.30747 -0.270801 0)
(16.0635 -11.1422 -3.02067e-20)
(16.424 -10.5937 0)
(17.4878 -10.0482 -6.78409e-20)
(18.8755 -9.54989 7.7706e-20)
(20.3198 -8.93889 0)
(21.5579 -8.15977 0)
(22.4171 -7.20141 1.70697e-19)
(22.8966 -6.12792 -7.64688e-20)
(23.0942 -5.05991 1.31046e-19)
(23.1216 -4.0608 -4.83322e-20)
(23.1221 -3.16497 -1.66653e-20)
(23.1102 -2.36714 0)
(23.142 -1.6906 6.43261e-21)
(23.226 -1.18019 -3.48129e-21)
(23.3456 -0.823904 0)
(23.4931 -0.594497 -1.35308e-21)
(23.6543 -0.468858 0)
(23.8222 -0.392454 3.58426e-20)
(23.9768 -0.412693 -4.01153e-20)
(24.1491 -0.489358 0)
(24.2839 -0.546363 0)
(23.2215 -0.677164 0)
(22.9419 -0.874235 1.25998e-21)
(22.5819 -0.508004 -9.64747e-21)
(22.0711 -0.669543 -2.60337e-20)
(21.5811 -0.624609 0)
(21.3262 -0.508397 7.91154e-21)
(21.0468 -0.582698 -8.81064e-21)
(20.8742 -0.55908 -3.80265e-21)
(20.8285 -0.492826 6.45813e-21)
(20.8675 -0.413171 -2.3719e-21)
(20.9441 -0.343843 -1.82037e-21)
(20.9894 -0.25875 4.3133e-22)
(21.0199 0.00852219 -7.92952e-24)
(21.2393 0.0412952 -1.95401e-21)
(21.3585 -0.0968394 -2.06291e-21)
(21.399 -0.0339749 4.95296e-22)
(21.5631 0.144527 -6.30471e-22)
(21.815 0.171151 0)
(22.0609 0.225514 5.27399e-22)
(22.4279 0.273125 -1.261e-23)
(22.8879 0.145255 0)
(23.3295 -0.171468 0)
(23.648 -0.560052 0)
(23.8632 -0.880908 0)
(24.1761 -1.09768 -8.91593e-21)
(24.7697 -0.621511 0)
(25.3242 -0.435183 0)
(25.8636 -0.447369 -3.17762e-24)
(26.3317 -0.525377 1.06879e-22)
(26.7196 -0.664846 6.39834e-23)
(27.0954 -0.846553 1.89776e-22)
(1.16863 -2.29649 0)
(0.98905 -1.79446 0)
(0.981906 -1.64451 0)
(1.02312 -1.44709 0)
(1.28636 -1.18425 0)
(1.59803 -1.05798 0)
(1.83692 -0.928848 0)
(16.24 -10.463 0)
(16.3552 -11.4016 0)
(16.9527 -11.139 0)
(18.1354 -10.8912 0)
(19.5756 -10.5079 0)
(20.9233 -9.86068 0)
(21.9163 -8.91026 0)
(22.4462 -7.752 0)
(22.5932 -6.57772 0)
(22.5327 -5.37665 0)
(22.4746 -4.23985 0)
(22.4753 -3.24593 0)
(21.7157 -2.33792 0)
(21.3655 -1.80029 0)
(21.1924 -1.36518 0)
(21.1601 -1.03899 0)
(21.1958 -0.825514 0)
(21.2234 -0.64707 0)
(20.9289 -0.0774268 0)
(20.6021 -0.343185 4.51529e-21)
(20.3503 -0.515204 0)
(20.1093 -0.399129 0)
(19.8741 -0.189781 0)
(19.6059 -0.511824 0)
(19.2155 -0.379476 0)
(19.0485 -0.428727 0)
(18.7505 -0.497661 0)
(18.6417 -0.416705 0)
(18.5398 -0.474049 0)
(18.4457 -0.507977 0)
(18.4193 -0.500151 0)
(18.4633 -0.459336 0)
(18.5542 -0.400724 0)
(18.6527 -0.307755 0)
(18.8082 -0.129071 0)
(19.104 -0.0912102 0)
(19.3347 -0.164131 0)
(19.5152 -0.130339 0)
(19.7995 -0.034039 0)
(20.1541 -0.00818242 0)
(20.5321 0.0123135 0)
(20.9962 -0.00078298 -1.73687e-21)
(21.5192 -0.138468 -3.43925e-21)
(22.0186 -0.40759 0)
(22.4238 -0.731169 0)
(22.7354 -1.01649 0)
(23.0192 -1.16828 0)
(23.4184 -1.16597 -3.51271e-21)
(23.9424 -1.24494 -5.6637e-22)
(24.4343 -1.02821 1.22211e-22)
(24.7916 -1.04553 0)
(24.9127 -1.02827 6.87631e-22)
(24.6474 -0.676616 0)
(1.35653 -2.43159 -2.30642e-21)
(1.13307 -1.84365 0)
(1.01037 -1.63677 4.74357e-21)
(0.905758 -1.54565 -6.42735e-21)
(1.08026 -1.41876 0)
(1.37008 -1.25966 0)
(1.66508 -1.2239 0)
(15.5288 -11.5345 1.45468e-19)
(16.1846 -11.6429 6.69831e-20)
(17.1969 -11.7848 0)
(18.633 -11.7816 -8.3052e-20)
(20.087 -11.4465 0)
(21.2024 -10.6786 0)
(21.7975 -9.54538 1.06463e-19)
(21.9193 -8.26574 7.56213e-20)
(21.8492 -6.84656 -5.99437e-20)
(20.5579 -5.16382 -2.6478e-22)
(19.8083 -4.01218 0)
(19.1856 -3.11545 -2.84632e-20)
(18.7329 -2.25786 3.58553e-20)
(18.378 -1.65854 8.19111e-23)
(18.0474 -1.24566 -9.95297e-21)
(17.8049 -0.937497 2.42671e-21)
(17.6342 -0.7229 3.88602e-22)
(17.4606 -0.521336 0)
(17.3592 -0.0773811 4.437e-23)
(17.3096 -0.152227 5.66884e-22)
(17.0966 -0.340927 0)
(16.8108 -0.292093 -5.18461e-21)
(16.7143 -0.140655 -4.24005e-21)
(16.5827 -0.311021 -8.57301e-22)
(16.3491 -0.286799 -1.80955e-21)
(16.2762 -0.321446 0)
(16.15 -0.406817 0)
(16.115 -0.395935 0)
(16.1249 -0.439688 0)
(16.1379 -0.492489 3.4261e-21)
(16.182 -0.521128 -3.01497e-21)
(16.2722 -0.515446 -4.0371e-24)
(16.4054 -0.479175 -1.83328e-21)
(16.5718 -0.407188 -1.10671e-21)
(16.8101 -0.29968 0)
(17.1401 -0.269356 6.61664e-22)
(17.4479 -0.304482 0)
(17.7364 -0.293749 0)
(18.0876 -0.251313 0)
(18.4909 -0.240442 0)
(18.9246 -0.247691 0)
(19.4092 -0.29523 0)
(19.9194 -0.431784 3.32863e-21)
(20.3938 -0.659564 0)
(20.7834 -0.927794 3.25323e-21)
(21.0756 -1.17133 3.73137e-21)
(21.2879 -1.31608 -3.7697e-21)
(21.4664 -1.32048 -3.22668e-21)
(21.5941 -1.17363 0)
(21.7617 -0.951551 -1.84166e-22)
(21.8609 -0.87191 -1.15498e-22)
(21.7713 -0.724018 0)
(21.6922 -0.548474 -3.74109e-23)
(1.57745 -2.74811 8.81764e-22)
(1.28288 -1.86238 0)
(0.996235 -1.53558 0)
(0.688817 -1.50031 7.21367e-21)
(0.681419 -1.60173 0)
(0.943952 -1.35844 -8.26905e-20)
(14.9594 -12.719 1.41418e-18)
(14.8276 -11.6618 0)
(15.8664 -12.1456 1.32568e-19)
(17.3754 -12.5954 -7.97621e-20)
(19.0216 -12.7224 1.87185e-19)
(20.3226 -12.2949 0)
(21.0101 -11.3552 0)
(21.1542 -10.0967 0)
(20.3375 -7.63706 -1.15819e-19)
(18.9694 -6.26822 -2.69651e-22)
(18.017 -4.92907 0)
(17.0241 -3.83016 0)
(16.2916 -2.92509 2.71136e-20)
(15.7245 -2.15645 0)
(15.3549 -1.55704 -1.41066e-20)
(15.0533 -1.14262 0)
(14.7937 -0.848067 9.2579e-22)
(14.5728 -0.644305 -6.55638e-22)
(14.3537 -0.452742 -2.62225e-21)
(14.2421 -0.127546 -3.88071e-21)
(14.2559 -0.0803107 0)
(14.1491 -0.200031 0)
(13.9522 -0.198218 3.30616e-21)
(13.887 -0.120028 0)
(13.847 -0.20563 -8.85214e-22)
(13.7595 -0.235391 -1.20701e-21)
(13.76 -0.285374 0)
(13.755 -0.374657 1.37497e-21)
(13.7945 -0.414938 2.32311e-21)
(13.8829 -0.466155 -3.54667e-24)
(13.9878 -0.528358 3.12139e-21)
(14.1107 -0.578209 2.90416e-21)
(14.2618 -0.599393 0)
(14.4477 -0.588812 2.03063e-21)
(14.6735 -0.547853 -1.39532e-21)
(14.9615 -0.490717 7.31485e-22)
(15.31 -0.473219 -6.44776e-22)
(15.659 -0.493189 9.36818e-22)
(16.0043 -0.497428 -7.85976e-22)
(16.3839 -0.487003 -6.79062e-22)
(16.7971 -0.492131 0)
(17.2331 -0.51721 -1.33125e-21)
(17.6928 -0.579224 2.04304e-21)
(18.1522 -0.704085 3.22464e-21)
(18.5659 -0.890393 0)
(18.8949 -1.10288 0)
(19.1199 -1.28965 0)
(19.2417 -1.39052 0)
(19.2816 -1.3667 0)
(19.2622 -1.21437 -7.77947e-22)
(19.2648 -1.00943 -2.89723e-22)
(19.2318 -0.855971 0)
(19.1278 -0.665654 -1.53512e-24)
(19.1033 -0.5361 -6.74773e-24)
(1.61648 -3.02652 0)
(1.31243 -1.86716 0)
(0.921827 -1.35412 8.28891e-22)
(0.367041 -1.25436 0)
(0.0560904 -1.55558 0)
(0.680427 -0.866304 -3.1807e-19)
(12.6903 -11.295 1.67696e-19)
(14.0594 -12.0976 0)
(15.6856 -12.9297 0)
(17.5973 -13.565 1.19341e-22)
(19.2357 -13.6361 0)
(20.1508 -12.9951 0)
(20.3915 -11.9583 -1.35167e-19)
(19.4776 -9.14806 -1.12055e-19)
(17.8784 -7.65851 -5.08276e-20)
(16.3598 -5.96321 -4.82185e-20)
(15.1587 -4.55275 -4.10538e-20)
(14.1808 -3.51532 -1.16726e-22)
(13.429 -2.6881 -2.16028e-20)
(12.8661 -2.00866 0)
(12.4807 -1.45758 0)
(12.1999 -1.05092 -4.09043e-21)
(11.9727 -0.757795 -8.17275e-23)
(11.7777 -0.553901 -2.55882e-21)
(11.5911 -0.378758 -2.62199e-21)
(11.4863 -0.152456 0)
(11.4982 -0.0668104 3.27465e-21)
(11.4668 -0.118508 -2.24944e-21)
(11.3761 -0.137065 3.19901e-21)
(11.3592 -0.119246 0)
(11.3862 -0.177197 -1.97856e-21)
(11.4092 -0.232711 1.27906e-21)
(11.4825 -0.30163 0)
(11.5698 -0.396491 9.78194e-22)
(11.6841 -0.469911 -1.9154e-21)
(11.8372 -0.538676 -2.52539e-21)
(12.0123 -0.610735 5.63374e-21)
(12.2015 -0.674028 0)
(12.4085 -0.714667 2.53187e-21)
(12.6415 -0.72754 0)
(12.9091 -0.71569 -1.74391e-21)
(13.2227 -0.693143 -2.43056e-24)
(13.5759 -0.688981 -7.49974e-22)
(13.9374 -0.705262 9.56881e-22)
(14.3 -0.717987 0)
(14.6793 -0.724945 9.41389e-22)
(15.0764 -0.740908 1.15137e-21)
(15.4844 -0.773973 -7.11409e-24)
(15.8963 -0.836386 -2.13457e-21)
(16.2904 -0.941551 0)
(16.6324 -1.08538 0)
(16.891 -1.24101 0)
(17.0478 -1.36622 -2.98514e-21)
(17.1025 -1.41245 2.91084e-21)