/*--------------------------------*- C++ -*----------------------------------*\
| =========                 |                                                 |
| \\      /  F ield         | OpenFOAM: The Open Source CFD Toolbox           |
|  \\    /   O peration     | Version:  v1912                                 |
|   \\  /    A nd           | Website:  www.openfoam.com                      |
|    \\/     M anipulation  |                                                 |
\*---------------------------------------------------------------------------*/
FoamFile
{
    version     2.0;
    format      ascii;
    class       surfaceScalarField;
    location    "24";
    object      alphaPhi0.water;
}
// * * * * * * * * * * * * * * * * * * * * * * * * * * * * * * * * * * * * * //

dimensions      [0 3 -1 0 0 0 0];
oriented        oriented;


internalField   nonuniform List<scalar> 
40282
(
0.00277741
0.00264755
1.92221
-1.92878
1.9232
0.00558809
-1.91414
1.9019
0.0122406
-1.8867
1.86859
0.0181116
-1.8476
1.82375
0.0238508
-1.7971
1.76775
0.0293529
-1.73576
1.70116
0.0345977
-1.66404
1.62443
0.0396052
-1.58242
1.5381
0.0443135
-1.49148
1.44271
0.0487633
-1.39174
1.33876
0.0529753
-1.28372
1.22683
0.0568878
-1.16812
1.10766
0.0604541
-1.04565
0.981962
0.0636882
-0.917099
0.850696
0.0664033
-0.783449
0.714643
0.0688064
-0.645267
0.574486
0.0707808
-0.502741
0.430471
0.0722698
-0.355031
0.276798
0.0782335
-0.181467
0.0726787
0.108788
-0.00423763
0.00561106
1.85721
-1.85269
1.84572
-0.0141161
0.0210862
-1.83604
1.82359
-0.0256644
0.038107
-1.80837
1.79039
-0.0369278
0.0549115
-1.76969
1.74631
-0.0479636
0.0713424
-1.72029
1.69168
-0.0587385
0.0873496
-1.66051
1.62682
-0.0691657
0.102855
-1.59065
1.55207
-0.0791781
0.117758
-1.51114
1.46789
-0.0887359
0.131987
-1.4224
1.37471
-0.0978127
0.145501
-1.3249
1.27301
-0.106362
0.15825
-1.2191
1.16324
-0.114316
0.170177
-1.10548
1.04588
-0.121601
0.181202
-0.984533
0.921482
-0.128191
0.191242
-0.856792
0.790611
-0.134
0.200181
-0.722915
0.654038
-0.138942
0.207819
-0.583998
0.513062
-0.142807
0.213743
-0.441809
0.370273
-0.145623
0.217159
-0.297385
0.222568
-0.155143
0.22996
-0.149143
0.0771946
-0.183273
0.255222
-0.00702186
0.0083744
1.79064
-1.78646
1.77963
-0.0282309
0.0350546
-1.77015
1.75803
-0.0507358
0.0628568
-1.74328
1.72592
-0.0729575
0.0903169
-1.70597
1.68343
-0.0947422
0.117276
-1.65835
1.63074
-0.115978
0.143584
-1.60065
1.56812
-0.136561
0.169096
-1.53318
1.49589
-0.15636
0.193651
-1.4563
1.41446
-0.17526
0.217098
-1.37044
1.32431
-0.193193
0.239322
-1.27614
1.226
-0.210111
0.260248
-1.17397
1.12011
-0.225963
0.279819
-1.0645
1.00719
-0.240687
0.297995
-0.948248
0.887722
-0.254196
0.314722
-0.825671
0.76215
-0.266337
0.329858
-0.697224
0.631005
-0.276784
0.343003
-0.563604
0.495265
-0.2848
0.353139
-0.426112
0.355701
-0.289411
0.359821
-0.283789
0.211319
-0.304377
0.376846
-0.139823
0.0695726
-0.326972
0.397222
-0.0096628
0.0109421
1.72653
-1.72265
1.71621
-0.0417897
0.0482273
-1.70722
1.69567
-0.0749063
0.0864518
-1.68159
1.66499
-0.107616
0.124213
-1.6459
1.62432
-0.139753
0.161331
-1.60028
1.57381
-0.171143
0.197612
-1.54494
1.51369
-0.201611
0.232861
-1.4801
1.44421
-0.23096
0.26685
-1.40606
1.36571
-0.259
0.299355
-1.3232
1.27859
-0.285577
0.330185
-1.23195
1.18335
-0.310564
0.359164
-1.13287
1.0806
-0.333868
0.386137
-1.02663
0.971059
-0.355436
0.411008
-0.913977
0.855474
-0.375245
0.433748
-0.795634
0.734537
-0.393199
0.454296
-0.672262
0.60889
-0.408856
0.472228
-0.544516
0.479186
-0.420941
0.486272
-0.412645
0.344472
-0.429867
0.49804
-0.274837
0.204632
-0.448393
0.518598
-0.134712
0.0655802
-0.467472
0.536604
-0.0121654
0.0133756
1.66469
-1.66103
1.65492
-0.0546164
0.0607216
-1.64639
1.63543
-0.0979169
0.108873
-1.62206
1.6063
-0.140704
0.156472
-1.58814
1.56762
-0.182782
0.203306
-1.54474
1.51953
-0.223942
0.249155
-1.492
1.46219
-0.263968
0.293783
-1.43011
1.39581
-0.302605
0.336908
-1.35931
1.32066
-0.339599
0.378248
-1.2799
1.23708
-0.374723
0.417544
-1.19225
1.14547
-0.407756
0.454539
-1.0968
1.04632
-0.438484
0.488961
-0.994119
0.940287
-0.46674
0.520573
-0.884926
0.828149
-0.492448
0.549225
-0.770068
0.710803
-0.515542
0.574808
-0.650467
0.589169
-0.535597
0.596895
-0.526987
0.463847
-0.551398
0.614538
-0.399409
0.333405
-0.565653
0.631657
-0.266122
0.198205
-0.587396
0.655314
-0.130123
0.0625566
-0.604863
0.672429
-0.0145264
0.0156582
1.60519
-1.60157
1.59583
-0.0667578
0.0724964
-1.58781
1.5775
-0.119708
0.130014
-1.56492
1.55007
-0.172075
0.186926
-1.53296
1.51359
-0.223634
0.243002
-1.49198
1.46813
-0.274153
0.297998
-1.44207
1.4138
-0.323376
0.351642
-1.38335
1.35074
-0.370996
0.403605
-1.316
1.27916
-0.416704
0.453547
-1.24025
1.19931
-0.460208
0.501149
-1.15638
1.11152
-0.501215
0.54608
-1.06477
1.0162
-0.539404
0.587973
-0.96588
0.91389
-0.574465
0.626455
-0.860324
0.805285
-0.606165
0.661203
-0.748893
0.691279
-0.63431
0.691924
-0.63258
0.572923
-0.658423
0.71808
-0.512379
0.450837
-0.677806
0.739348
-0.388013
0.32381
-0.697276
0.76148
-0.258533
0.192609
-0.721758
0.787682
-0.126244
0.0602998
-0.738569
0.804513
-0.0167274
0.0177711
1.5475
-1.54445
1.53912
-0.0781393
0.0834704
-1.53166
1.52208
-0.140153
0.149737
-1.51037
1.49653
-0.201549
0.215387
-1.48057
1.46247
-0.262096
0.280188
-1.44225
1.41991
-0.321539
0.343882
-1.39545
1.36886
-0.379592
0.406172
-1.34018
1.30939
-0.435906
0.466689
-1.27653
1.24161
-0.490112
0.525036
-1.20464
1.16567
-0.541859
0.580833
-1.12472
1.08182
-0.59078
0.633674
-1.03703
0.990391
-0.636461
0.6831
-0.941963
0.891816
-0.678465
0.728612
-0.840029
0.786696
-0.716384
0.769718
-0.731927
0.675852
-0.749806
0.805881
-0.618611
0.560336
-0.778098
0.836372
-0.501091
0.440774
-0.801256
0.861573
-0.379209
0.316439
-0.825576
0.888346
-0.252759
0.188442
-0.852318
0.916635
-0.123513
0.0590787
-0.86892
0.933355
-0.0187488
0.0196937
1.49223
-1.48945
1.48458
-0.0886734
0.0935487
-1.47775
1.46898
-0.159097
0.167876
-1.45824
1.44553
-0.228919
0.241628
-1.43084
1.41417
-0.29791
0.314586
-1.39549
1.37481
-0.365811
0.386494
-1.35211
1.32738
-0.432319
0.457048
-1.30062
1.27182
-0.497046
0.52584
-1.24099
1.20814
-0.559568
0.592427
-1.17326
1.13637
-0.619476
0.656365
-1.09749
1.05664
-0.676324
0.717171
-1.01385
0.969173
-0.729601
0.774283
-0.922639
0.87431
-0.778748
0.827077
-0.824253
0.77255
-0.823185
0.874888
-0.719302
0.66463
-0.862251
0.916923
-0.60867
0.551552
-0.8951
0.952219
-0.493334
0.43395
-0.922441
0.981825
-0.373335
0.311638
-0.951338
1.01303
-0.249147
0.186046
-0.980065
1.04317
-0.122218
0.0593565
-0.996732
1.05959
-0.0205685
0.0214028
1.43883
-1.43617
1.43181
-0.0982604
0.102624
-1.4257
1.41782
-0.176368
0.184243
-1.40817
1.39673
-0.253945
0.265389
-1.38347
1.36838
-0.330783
0.345873
-1.35143
1.3326
-0.40664
0.425471
-1.31186
1.28919
-0.48121
0.503879
-1.26457
1.23797
-0.554074
0.580671
-1.20939
1.17879
-0.624765
0.65536
-1.14618
1.11155
-0.692809
0.727443
-1.07489
1.03622
-0.757681
0.796352
-0.995544
0.95289
-0.818766
0.86142
-0.908287
0.861777
-0.875371
0.921881
-0.813414
0.763269
-0.926739
0.976885
-0.71143
0.65801
-0.971947
1.02537
-0.603137
0.546937
-1.00991
1.06611
-0.489473
0.430724
-1.04198
1.10073
-0.370726
0.309705
-1.07539
1.13641
-0.247951
0.185622
-1.10607
1.1684
-0.122426
0.0614922
-1.12323
1.18417
-0.0221628
0.0228739
1.38749
-1.38517
1.38138
-0.106785
0.110579
-1.37605
1.36918
-0.191764
0.198633
-1.36074
1.35071
-0.276345
0.28638
-1.33905
1.32573
-0.360366
0.37369
-1.3107
1.29394
-0.443626
0.460391
-1.27539
1.25501
-0.525831
0.546205
-1.23277
1.20862
-0.606549
0.630703
-1.18251
1.15442
-0.68528
0.713371
-1.12431
1.09215
-0.761488
0.793649
-1.05792
1.02159
-0.834568
0.870889
-0.983175
0.94266
-0.903791
0.944306
-0.900059
0.855395
-0.968317
1.01298
-0.808704
0.760042
-1.02719
1.07586
-0.709485
0.657131
-1.07921
1.13157
-0.603104
0.547525
-1.12303
1.17861
-0.490467
0.431964
-1.16052
1.21902
-0.372138
0.311272
-1.19861
1.25948
-0.249672
0.187508
-1.23144
1.29361
-0.124214
0.0653645
-1.24978
1.30863
-0.0235069
0.0240827
1.33784
-1.33588
1.33272
-0.11413
0.117293
-1.32827
1.32252
-0.205076
0.210831
-1.31542
1.30695
-0.295823
0.304292
-1.29707
1.28571
-0.386283
0.397639
-1.27283
1.25838
-0.476322
0.490778
-1.24228
1.22448
-0.565683
0.583484
-1.20491
1.1835
-0.653947
0.675353
-1.1602
1.13493
-0.740591
0.765861
-1.10763
1.07825
-0.825032
0.85441
-1.04674
1.01305
-0.906586
0.940281
-0.977131
0.93897
-0.984407
1.02257
-0.898543
0.855846
-1.05749
1.10019
-0.810893
0.763714
-1.12467
1.17185
-0.714365
0.662931
-1.18441
1.23585
-0.609522
0.554257
-1.23507
1.29033
-0.497229
0.438528
-1.27887
1.33757
-0.378353
0.317045
-1.32217
1.38348
-0.254952
0.192332
-1.35767
1.42029
-0.128089
0.0713698
-1.37778
1.4345
-0.0245773
0.0250071
1.29005
-1.28832
1.28584
-0.120173
0.122651
-1.28235
1.27781
-0.216086
0.220626
-1.27218
1.26543
-0.312064
0.318818
-1.25749
1.2483
-0.408125
0.417311
-1.2378
1.22591
-0.504228
0.516119
-1.21255
1.19763
-0.600187
0.615106
-1.18107
1.16276
-0.695624
0.713928
-1.14263
1.12057
-0.79002
0.812081
-1.09649
1.07029
-0.882768
0.908961
-1.0419
1.01122
-0.973122
1.0038
-0.978185
0.942717
-1.06012
1.09559
-0.904764
0.864282
-1.14259
1.18307
-0.821246
0.775653
-1.21912
1.26471
-0.727527
0.676924
-1.28781
1.33842
-0.623936
0.568677
-1.34664
1.4019
-0.511259
0.45183
-1.39799
1.45742
-0.390664
0.328178
-1.44742
1.50991
-0.264813
0.20103
-1.48651
1.5503
-0.134505
0.0802107
-1.50904
1.56333
-0.0253542
0.0256303
1.24413
-1.24283
1.24108
-0.124808
0.126556
-1.23861
1.23537
-0.224597
0.227835
-1.23132
1.22642
-0.324772
0.329679
-1.22059
1.21376
-0.425489
0.432316
-1.20585
1.19678
-0.526828
0.535903
-1.18643
1.17471
-0.628714
0.640433
-1.16151
1.1467
-0.730846
0.745658
-1.13015
1.11176
-0.83275
0.851147
-1.09137
1.06887
-0.933834
0.956336
-1.04412
1.01698
-1.03332
1.06045
-0.987342
0.955075
-1.13016
1.16243
-0.920069
0.882227
-1.22303
1.26088
-0.841467
0.797731
-1.31026
1.35399
-0.750989
0.701251
-1.38955
1.43928
-0.648569
0.593039
-1.45836
1.51389
-0.534784
0.474006
-1.51898
1.57976
-0.41105
0.346453
-1.5761
1.6407
-0.28083
0.215041
-1.62026
1.68605
-0.144596
0.0933895
-1.64654
1.69775
-0.0258239
0.0259423
1.19951
-1.19885
1.19787
-0.12795
0.128936
-1.19645
1.19458
-0.230446
0.232322
-1.19219
1.18923
-0.333695
0.336652
-1.18564
1.18133
-0.438007
0.44232
-1.1762
1.17017
-0.543623
0.549655
-1.16312
1.15492
-0.650617
0.65882
-1.14543
1.13453
-0.758809
0.769713
-1.12205
1.10784
-0.867825
0.882036
-1.09173
1.07354
-0.977147
0.995334
-1.0531
1.03022
-1.08603
1.10891
-1.00471
0.976395
-1.1934
1.22172
-0.945082
0.910599
-1.29783
1.33231
-0.872783
0.83149
-1.3974
1.43869
-0.786604
0.73805
-1.48942
1.53797
-0.685806
0.629913
-1.57071
1.6266
-0.570479
0.507726
-1.64308
1.70583
-0.442057
0.37417
-1.71031
1.7782
-0.304954
0.235965
-1.76186
1.83085
-0.159289
0.111728
-1.79382
1.84139
-0.025981
0.0259428
1.15675
-1.15655
1.15634
-0.129548
0.129764
-1.156
1.15551
-0.233528
0.234018
-1.15482
1.15386
-0.338647
0.339602
-1.15258
1.15088
-0.445388
0.447084
-1.14868
1.14587
-0.554177
0.556992
-1.14232
1.1379
-0.665275
0.669689
-1.13248
1.12588
-0.778675
0.785274
-1.11793
1.10846
-0.89417
0.903648
-1.09724
1.08408
-1.01139
1.02455
-1.06875
1.051
-1.12972
1.14747
-1.03058
1.00723
-1.24818
1.27153
-0.980671
0.950636
-1.36533
1.39537
-0.916846
0.879034
-1.47915
1.51696
-0.836948
0.790371
-1.58656
1.63314
-0.739139
0.683172
-1.68368
1.73965
-0.622492
0.55727
-1.77145
1.83667
-0.487907
0.415271
-1.85256
1.9252
-0.340631
0.266695
-1.91516
1.98909
-0.18078
0.13734
-1.9559
1.99934
-0.0258303
0.025642
1.11547
-1.11554
1.11608
-0.129597
0.129059
-1.1168
1.11768
-0.233816
0.23294
-1.11866
1.1197
-0.339554
0.338515
-1.12073
1.12168
-0.447465
0.446519
-1.12245
1.12294
-0.55818
0.557688
-1.12303
1.1226
-0.672177
0.672613
-1.12148
1.11952
-0.789669
0.791631
-1.11653
1.1123
-0.910688
0.914913
-1.10662
1.09924
-1.03511
1.04249
-1.0899
1.07829
-1.16256
1.17416
-1.06412
1.04704
-1.29231
1.3094
-1.02667
1.00264
-1.42314
1.44717
-0.974523
0.94189
-1.55311
1.58574
-0.904296
0.861303
-1.67904
1.72203
-0.812508
0.757582
-1.79637
1.85129
-0.696325
0.628697
-1.90483
1.97246
-0.554926
0.475938
-2.0058
2.08479
-0.393436
0.311815
-2.08554
2.16717
-0.212997
0.173668
-2.14051
2.17984
-0.0253871
0.0250604
1.07566
-1.07635
1.0776
-0.128142
0.126892
-1.07933
1.0815
-0.231375
0.229201
-1.08409
1.08704
-0.336466
0.333511
-1.09031
1.09383
-0.444231
0.440709
-1.09753
1.1013
-0.555505
0.55173
-1.10505
1.10866
-0.670998
0.667393
-1.11198
1.11486
-0.79118
0.788301
-1.11712
1.11855
-0.916376
0.914939
-1.11894
1.11803
-1.04679
1.0477
-1.11553
1.11113
-1.18244
1.18685
-1.10447
1.09515
-1.32305
1.33237
-1.08272
1.06668
-1.46786
1.48389
-1.04649
1.02152
-1.61546
1.64042
-0.991096
0.954485
-1.76303
1.79964
-0.910921
0.859658
-1.90586
1.95712
-0.800034
0.731499
-2.04246
2.111
-0.653711
0.567209
-2.17284
2.25935
-0.473846
0.380036
-2.28015
2.37396
-0.263524
0.226258
-2.35953
2.3968
-0.0246771
0.0242282
1.03714
-1.03822
1.04011
-0.125281
0.123386
-1.04275
1.04611
-0.226365
0.223006
-1.05017
1.05489
-0.329578
0.324854
-1.06024
1.06617
-0.435869
0.429937
-1.07263
1.07953
-0.546263
0.539356
-1.08681
1.09436
-0.661689
0.654141
-1.10207
1.1098
-0.782885
0.775153
-1.1174
1.1247
-0.9105
0.903199
-1.1315
1.13755
-1.04513
1.03908
-1.14259
1.14631
-1.18729
1.18357
-1.14835
1.1483
-1.33732
1.33737
-1.14569
1.13994
-1.49528
1.50102
-1.13043
1.1164
-1.66075
1.67478
-1.09695
1.07106
-1.83213
1.85802
-1.03754
0.995095
-2.00571
2.04816
-0.942344
0.877802
-2.17988
2.24442
-0.799849
0.707497
-2.35452
2.44687
-0.601418
0.489219
-2.50834
2.62054
-0.348606
0.305733
-2.63322
2.67609
-0.0237341
0.0231825
1.00009
-1.00169
1.00415
-0.12116
0.118706
-1.00758
1.01197
-0.219036
0.214641
-1.01732
1.0236
-0.319221
0.312938
-1.0308
1.03889
-0.422761
0.414673
-1.04783
1.05759
-0.530828
0.521071
-1.0681
1.07932
-0.64454
0.633323
-1.09116
1.10353
-0.764875
0.752508
-1.11631
1.12939
-0.892791
0.879714
-1.1426
1.15577
-1.02928
1.01612
-1.16868
1.18108
-1.1754
1.16301
-1.19266
1.20307
-1.33221
1.32181
-1.21187
1.21857
-1.50078
1.49408
-1.22253
1.22301
-1.68214
1.68166
-1.21906
1.20951
-1.87684
1.88638
-1.19292
1.16752
-2.08396
2.10935
-1.13125
1.08159
-2.30447
2.35413
-1.01516
0.927623
-2.5433
2.63084
-0.815365
0.681506
-2.77858
2.91243
-0.51158
0.441275
-2.99749
3.06779
-0.0225979
0.0219647
0.964499
-0.966199
0.969112
-0.11596
0.113046
-0.973195
0.978446
-0.209706
0.204455
-0.984865
0.99245
-0.305843
0.298258
-1.0012
1.01111
-0.405463
0.395552
-1.02218
1.03438
-0.509831
0.497624
-1.04772
1.06215
-0.620197
0.605763
-1.07766
1.09419
-0.73772
0.721187
-1.1117
1.13012
-0.8636
0.845181
-1.14936
1.16934
-0.999169
0.979195
-1.18991
1.21094
-1.14594
1.12492
-1.23222
1.25353
-1.30565
1.28434
-1.2746
1.29507
-1.48034
1.45987
-1.31451
1.33239
-1.67259
1.65471
-1.348
1.36041
-1.88555
1.87314
-1.36841
1.37038
-2.12259
2.12062
-1.36429
1.34746
-2.39063
2.40746
-1.31584
1.26283
-2.70848
2.76149
-1.17997
1.05194
-3.07947
3.20749
-0.882532
0.802633
-3.51169
3.59159
-0.0166623
0.0592086
-0.0425616
0.0799102
-0.12237
0.0424563
0.143692
-0.148777
0.00508802
0.141522
-0.129472
-0.0120446
0.119087
-0.112762
-0.00633596
0.112092
-0.118709
0.00661767
0.134135
-0.158978
0.0248427
0.191864
-0.22836
0.0365022
0.261598
-0.285257
0.0236546
0.297205
-0.301539
0.00433324
0.309651
-0.346069
0.0377022
0.427309
-0.491828
0.167227
0.79589
-1.47965
0.367757
1.8043
-1.88538
0.271971
2.05063
-2.09598
0.0453553
2.32685
-2.0286
-0.298248
1.60711
-1.14674
-0.460382
0.753524
-0.816173
0.0819303
1.12949
-0.0349154
0.435995
0.0519839
-0.0660373
0.016388
0.0755259
-0.0813933
0.00784393
0.084477
-0.0849408
0.000447543
0.0801388
-0.0577476
-0.0223918
0.0239232
0.0560182
-0.418249
-0.484814
0.821735
-0.847464
-1.0162
1.13166
-0.416617
-1.14688
1.11684
-0.197694
-1.04278
0.917517
-0.0852531
-0.761772
0.612068
-0.0244628
-0.492219
0.40483
-1.85752e-05
-0.341998
0.292822
0.00668848
-0.249578
0.208856
0.00810585
-0.169628
0.125084
0.00844531
-0.078552
0.0644445
0.00721198
-0.0632224
0.0540937
0.00269962
-0.0569875
0.0497683
0.000735291
-0.0531309
0.0483131
0.000756886
-0.0509789
0.0467161
0.000814469
-0.0492364
0.0461176
0.000242475
-0.0498757
0.0458333
0.00016279
-0.0503816
0.0455548
0.000148988
-0.0504667
0.0453109
0.000178028
-0.203628
0.444822
0.00351585
-0.495429
0.546331
0.010992
-5.27673
6.17391
0.0621583
-6.12696
6.08743
0.0395281
-6.05306
6.02323
0.0298363
-5.99775
5.97625
0.0215075
-5.95828
5.94336
0.0149204
-5.93102
5.92087
0.0101491
-5.9123
5.90485
0.00745217
-5.89772
5.89063
0.00708749
-5.88315
5.87558
0.00756544
-5.86815
5.86138
0.00677036
-5.85575
5.85148
0.00426801
-5.84903
5.84821
0.000819913
-5.84929
5.85166
-0.00236767
-5.85543
5.85954
-0.00410668
-5.86353
5.86645
-0.00291938
-5.86696
5.86595
0.00100759
-0.103397
0.138721
-0.0383874
0.0651846
-0.0878259
-0.0721857
0.0934727
0.108469
-0.122697
-0.0164405
0.0306982
0.129211
-0.129932
0.0159944
-0.0153578
0.128029
-0.126173
0.0099262
-0.0117648
0.125936
-0.128395
-0.0107453
0.0131689
0.134316
-0.144288
-0.0403019
0.0502732
0.158677
-0.177435
-0.0618621
0.0806233
0.199978
-0.225359
-0.0499106
0.0752678
0.253
-0.284533
-0.0290154
0.0605488
0.324119
-0.342774
-0.0858496
0.139104
0.344801
-0.334846
-0.301548
0.467648
0.597462
-1.08744
-0.700901
0.995982
1.37824
-1.63501
-0.544919
0.801694
1.84798
-2.00499
-0.16035
0.317357
2.07592
-2.05203
0.429598
-0.454919
1.93119
-1.68463
0.762601
-0.954798
1.36065
-1.34128
-0.042604
-0.0326809
1.35188
-0.360448
-0.744575
0.607689
0.0180046
-0.017506
-0.025071
0.0289605
0.0165426
-0.0134194
-0.0106285
0.0049972
0.00113038
0.0234579
0.0130294
-0.0376343
-0.41682
2.72198
0.148949
-3.76752
-3.42618
3.78694
3.32179
-3.68255
-4.06345
4.42379
2.09296
-2.4533
-4.8033
5.16128
1.15431
-1.51229
-5.48136
5.75901
0.674675
-0.952328
-5.99639
6.19806
0.396597
-0.598266
-6.3687
6.51268
0.206267
-0.350246
-6.63319
6.73287
0.0867326
-0.186405
-6.81402
6.87847
0.0225872
-0.0870407
-6.92787
6.96419
-0.0147459
-0.0229471
-6.98498
6.98432
-0.0393247
0.0250429
-6.95028
6.86764
-0.0620876
0.0733675
-6.74332
6.63077
-0.0771237
0.12371
-6.5642
6.53284
-0.0958536
0.160505
-6.51295
6.50404
-0.097507
0.180752
-6.58744
6.78658
-0.080157
0.15623
-6.8497
6.81817
-0.0741091
0.105637
-6.78494
6.75308
-0.058201
0.0900575
-6.72222
6.69184
-0.0533778
0.0837531
-6.66219
6.63315
-0.0552134
0.0842536
-6.60138
6.56366
-0.0546225
0.0923395
-6.52727
6.5029
-0.122731
0.1471
-6.47634
6.44129
-0.107836
0.143111
-6.40549
6.3721
-0.0783778
0.111766
-6.34226
6.31614
-0.0587373
0.0848654
-6.2935
6.27417
-0.0423099
0.0616361
-6.25788
6.24432
-0.0293896
0.0429517
-6.2332
6.22416
-0.0199075
0.0289493
-6.21679
6.21055
-0.0143927
0.0206281
-6.20492
6.19929
-0.0134443
0.0190738
-6.19343
6.18733
-0.0143223
0.0204252
-6.18132
6.17583
-0.0128226
0.0183122
-6.17129
6.16811
-0.00791471
0.0110985
-6.16645
6.16651
-0.00123835
0.00118211
-6.16799
6.1708
0.00497895
-0.00779678
-6.17448
6.17869
0.00824876
-0.0124606
-6.1828
6.186
0.00594746
-0.00915625
-6.1878
6.18738
-0.0016647
0.00208648
-0.1702
0.194983
-0.0248283
0.0520986
-0.0705922
-0.112279
0.130428
0.0857913
-0.101411
-0.0450139
0.0563459
0.11559
-0.121846
0.0115974
-0.00534102
0.125045
-0.126571
0.0119246
-0.0104024
0.127385
-0.128175
-0.0144498
0.0152068
0.129601
-0.132281
-0.0560679
0.0587481
0.137138
-0.145325
-0.0936678
0.101888
0.157993
-0.175329
-0.0970443
0.114372
0.196592
-0.222252
-0.0916633
0.117323
0.257124
-0.306654
-0.196239
0.245768
0.251425
-0.376724
-0.330917
0.173695
0.5634
-0.698649
-1.23019
1.36544
0.912299
-1.1547
-1.05411
1.29652
1.39343
-1.52437
-0.507822
0.673711
1.70329
-1.92315
0.380393
-0.264466
1.96583
-1.70314
1.06101
-1.10229
0.0255593
-0.0360121
0.00191045
-0.00319897
0.154951
-0.09386
-0.226552
0.115783
0.053266
-0.110504
-0.0241243
0.429783
0.00518708
0.0314219
0.00632579
-0.00513086
-0.50611
3.08481
0.803066
-4.33209
-3.75637
3.87311
4.51099
-4.62773
-4.00006
4.15226
3.82042
-3.97262
-4.35937
4.61434
2.7395
-2.99447
-4.88974
5.15986
1.81158
-2.08171
-5.40931
5.63176
1.19425
-1.4167
-5.82524
5.99226
0.779324
-0.94634
-6.13621
6.25985
0.483943
-0.607589
-6.36576
6.45596
0.28282
-0.373022
-6.532
6.59557
0.153178
-0.216749
-6.64813
6.69106
0.0655023
-0.108428
-6.7254
6.7523
-0.0014005
-0.0254987
-6.77296
6.78892
-0.064146
0.0481948
-6.80134
6.81058
-0.121661
0.112423
-6.81663
6.81971
-0.165112
0.162027
-6.82044
6.81899
-0.189728
0.191179
-6.81421
6.80394
-0.171801
0.182072
-6.78722
6.76669
-0.132727
0.153258
-6.74522
6.72373
-0.11673
0.138223
-6.70219
6.68048
-0.109781
0.131488
-6.65848
6.63584
-0.110388
0.133027
-6.61189
6.58671
-0.123162
0.148344
-6.56373
6.54621
-0.168281
0.185805
-6.52953
6.50972
-0.169059
0.18887
-6.48799
6.46624
-0.138814
0.160565
-6.44558
6.42661
-0.107325
0.126289
-6.40966
6.39487
-0.078671
0.0934685
-6.38227
6.3718
-0.0549879
0.0654586
-6.3633
6.35658
-0.0368701
0.0435931
-6.35136
6.34718
-0.0258601
0.0300373
-6.3435
6.33968
-0.0238024
0.0276233
-6.33535
6.33055
-0.0258223
0.0306228
-6.32569
6.32128
-0.0231928
0.0276017
-6.3178
6.31561
-0.0137521
0.0159376
-6.31492
6.31578
-0.000750586
-0.000114905
-6.31799
6.32129
0.0108068
-0.0141023
-6.32523
6.32959
0.016696
-0.0210546
-6.33388
6.33748
0.0125176
-0.016122
-6.3397
6.33974
-0.00226627
0.00223002
-0.220031
0.23724
-0.0167981
0.0379421
-0.0510321
-0.148258
0.162744
0.0644082
-0.0884238
-0.067624
0.0839314
0.100814
-0.110386
-0.00288511
0.0124573
0.117395
-0.122215
0.00721769
-0.00239819
0.125218
-0.126481
-0.0159745
0.0172382
0.126464
-0.125418
-0.0591484
0.0581028
0.124147
-0.124327
-0.10573
0.105908
0.12786
-0.135604
-0.126525
0.13427
0.145354
-0.152455
-0.133443
0.140541
0.15254
-0.100998
-0.267304
0.234572
0.0130075
-0.00871962
-0.111383
0.129607
0.0354998
-0.260584
-1.13384
0.498969
0.424782
-0.500537
-1.51574
1.59149
0.311227
-0.353526
-0.47916
-0.0018781
1.06945
-1.653
0.124975
0.021009
1.76896
-1.63413
1.0904
-1.04169
0.026386
-0.0350648
0.00740778
-0.0107379
0.127135
-0.385195
-0.372945
0.173828
0.221769
0.00691392
-0.274657
0.00713738
-0.027518
1.80335
0.224689
-2.0532
-3.58959
3.73749
5.1726
-5.3205
-3.88863
4.04209
4.76711
-4.92056
-4.19777
4.36696
4.13272
-4.30191
-4.55984
4.77819
3.22607
-3.44443
-5.00857
5.23698
2.32695
-2.55536
-5.45013
5.64153
1.62066
-1.81207
-5.80785
5.9505
1.09914
-1.24179
-6.07157
6.17442
0.719468
-0.822315
-6.26135
6.33529
0.45423
-0.528169
-6.39795
6.45116
0.27473
-0.327941
-6.49617
6.53429
0.148862
-0.186982
-6.56648
6.59383
0.0528353
-0.0801856
-6.6174
6.63813
-0.0292591
0.00852402
-6.65652
6.67264
-0.0991481
0.0830279
-6.68652
6.69833
-0.153855
0.142042
-6.70822
6.71567
-0.187542
0.18009
-6.71975
6.7193
-0.187078
0.187527
-6.71422
6.70572
-0.16726
0.175765
-6.69536
6.68394
-0.154344
0.165762
-6.67185
6.659
-0.148511
0.161365
-6.64547
6.63121
-0.151308
0.16557
-6.61638
6.60161
-0.167897
0.182669
-6.58868
6.57854
-0.199412
0.209555
-6.56939
6.55912
-0.203354
0.213625
-6.54759
6.53535
-0.177149
0.189386
-6.52317
6.51143
-0.141431
0.153166
-6.50064
6.49101
-0.105568
0.115189
-6.4828
6.47603
-0.0740256
0.0807954
-6.47072
6.46678
-0.0488924
0.0528347
-6.46411
6.46243
-0.0329576
0.0346389
-6.46117
6.45948
-0.0303931
0.0320816
-6.45677
6.45313
-0.0347795
0.0384214
-6.44922
6.4457
-0.0314977
0.0350135
-6.44312
6.44183
-0.0176402
0.0189332
-6.44202
6.44372
0.00139878
-0.00309823
-6.44668
6.45049
0.0176299
-0.0214453
-6.45469
6.45914
0.0254536
-0.0299022
-6.46367
6.4678
0.019939
-0.02406
-6.47053
6.47093
-0.00200758
0.00161075
-0.252978
0.265774
-0.0127962
0.0268638
-0.0383616
-0.161655
0.179982
0.0589303
-0.0741949
-0.0989126
0.114177
0.0874199
-0.0989924
-0.0229739
0.0345459
0.106393
-0.112486
-0.0036531
0.0105463
0.119898
-0.124527
-0.0193284
0.022562
0.125755
-0.124359
-0.0564386
0.0550421
0.120428
-0.115181
-0.103039
0.0979204
0.111527
-0.112557
-0.138278
0.138641
0.11771
-0.120063
-0.14272
0.145264
0.10885
-0.0790678
-0.224153
0.203076
0.0173146
0.0893161
-0.763725
0.657095
-0.190314
0.0922058
-0.308973
1.38936
0.00471089
0.000703665
-0.336192
0.0558661
-2.29429e-07
-2.87278e-05
-7.55877e-07
3.05336e-06
0.0572647
-0.869494
-0.071344
0.032819
1.3554
-1.35589
0.973603
-0.890761
0.360637
-0.0165575
0.0378111
-0.0943122
0.0107043
-0.012971
-0.0190506
0.0210235
-0.00667524
0.0305417
0.0199998
-0.0416971
-2.5631
3.60323
4.80713
-5.77806
-3.75462
3.90709
5.46135
-5.61382
-4.06739
4.23188
5.0781
-5.24258
-4.40165
4.57708
4.47198
-4.6474
-4.76186
4.956
3.64744
-3.84157
-5.1533
5.34657
2.76355
-2.95682
-5.52632
5.68781
1.98696
-2.14844
-5.82744
5.94618
1.37139
-1.49013
-6.04577
6.12954
0.914488
-0.998251
-6.19996
6.25972
0.593921
-0.653678
-6.31095
6.35555
0.375847
-0.420444
-6.3945
6.42881
0.22239
-0.256705
-6.45924
6.48668
0.107036
-0.134474
-6.51182
6.53525
0.0132468
-0.0366736
-6.55716
6.5776
-0.0649221
0.0444835
-6.59644
6.61377
-0.12748
0.110157
-6.62937
6.64288
-0.169553
0.156041
-6.65358
6.66094
-0.183894
0.176542
-6.66474
6.66561
-0.179252
0.178383
-6.66427
6.66141
-0.172623
0.175482
-6.65734
6.65231
-0.170002
0.175037
-6.64645
6.64001
-0.175666
0.182104
-6.63327
6.62688
-0.192862
0.199255
-6.62175
6.61818
-0.216188
0.219758
-6.61541
6.61224
-0.220006
0.22317
-6.60833
6.60365
-0.197497
0.202173
-6.59852
6.59322
-0.161446
0.166746
-6.58809
6.58336
-0.122199
0.126924
-6.57935
6.57616
-0.0856572
0.0888434
-6.5739
6.57253
-0.0553888
0.0567541
-6.57217
6.57284
-0.0350697
0.0343957
-6.57408
6.57472
-0.0326176
0.0319856
-6.57362
6.5709
-0.0415361
0.0442568
-6.56765
6.56484
-0.038129
0.0409392
-6.56299
6.56242
-0.0198341
0.0204054
-6.56328
6.56559
0.0051261
-0.00743255
-6.56909
6.57324
0.0254272
-0.0295763
-6.57738
6.58146
0.0342037
-0.0382778
-6.58589
6.59045
0.0283918
-0.0329483
-6.59386
6.59461
-0.00105095
0.000302525
-0.273197
0.273245
-2.76081e-05
0.0192041
-0.0297416
-0.21386
0.230413
0.0457909
-0.0602587
-0.128189
0.142504
0.0753412
-0.0865248
-0.0468856
0.0605671
0.095068
-0.106078
-0.0177848
0.028092
0.113921
-0.117218
-0.0262527
0.0295408
0.124319
-0.128798
-0.0547323
0.0528633
0.126493
-0.120429
-0.0916565
0.0855929
0.110412
-0.105708
-0.134969
0.123164
0.107709
-0.115996
-0.150632
0.158918
0.119476
-0.106181
-0.179461
0.166166
0.0655122
0.01202
-0.562309
0.484777
-0.123269
0.246288
-1.38953
1.26651
-0.347594
0.256032
-0.796276
1.62692
-0.000128915
-7.11508e-20
-0.000127871
2.56664e-06
8.60333e-22
-0.000998057
0.000998057
6.38783e-20
0.385579
-0.81211
0.740574
-0.579029
0.77396
-0.00739044
0.417042
-0.703647
0.00316737
0.0114396
-0.0195621
0.00508802
-0.0281135
2.68134
0.631588
-2.8084
-3.53515
3.71322
5.98344
-6.16151
-3.8936
4.07167
5.77912
-5.9572
-4.24887
4.42583
5.41274
-5.5897
-4.60232
4.77809
4.82228
-4.99805
-4.95237
5.12571
4.02303
-4.19637
-5.2941
5.4533
3.1311
-3.2903
-5.59864
5.72733
2.29221
-2.42089
-5.83779
5.93066
1.59522
-1.68809
-6.0096
6.07719
1.07237
-1.13996
-6.13553
6.18675
0.707529
-0.758751
-6.23276
6.27487
0.462336
-0.504445
-6.31363
6.34943
0.290579
-0.326382
-6.38265
6.41377
0.162907
-0.194022
-6.44324
6.47139
0.0618963
-0.0900439
-6.49829
6.5241
-0.0217636
-0.00405424
-6.54837
6.57117
-0.090344
0.0675465
-6.59231
6.61142
-0.139889
0.12078
-6.62809
6.64197
-0.165925
0.152055
-6.65291
6.66106
-0.173705
0.165555
-6.66686
6.67073
-0.174764
0.170892
-6.67307
6.67421
-0.176728
0.175591
-6.67448
6.67413
-0.185231
0.185581
-6.67359
6.6734
-0.202201
0.202393
-6.6741
6.67585
-0.220439
0.218686
-6.67817
6.68042
-0.223453
0.22121
-6.6821
6.68316
-0.203716
0.202661
-6.68358
6.68343
-0.169245
0.169394
-6.68285
6.68209
-0.129479
0.130245
-6.68143
6.68107
-0.0904592
0.0908251
-6.6811
6.6815
-0.0570929
0.0566956
-6.68243
6.6845
-0.032849
0.0307821
-6.6877
6.69065
-0.030189
0.0272355
-6.69126
6.68922
-0.0466067
0.0486432
-6.68652
6.68444
-0.0434026
0.0454799
-6.68337
6.6834
-0.0206767
0.020647
-6.6846
6.68702
0.00985705
-0.0122736
-6.69051
6.69455
0.0337163
-0.0377535
-6.69809
6.70086
0.0418102
-0.0445847
-6.70422
6.70855
0.0375154
-0.0418482
-6.71257
6.71395
0.000675684
-0.00205668
-0.265988
0.253207
0.0127813
-0.000527502
-0.0130295
-0.242999
0.241974
0.0278825
-0.0431189
-0.157131
0.172622
0.0611221
-0.0778582
-0.07597
0.092094
0.0923846
-0.105053
-0.0389724
0.051641
0.115696
-0.118938
-0.0385575
0.0490907
0.119408
-0.128965
-0.0547202
0.0596645
0.13446
-0.140363
-0.0815238
0.0751901
0.135
-0.106464
-0.111496
0.101611
0.0891539
-0.0865294
-0.120887
0.11171
0.127654
-0.145792
-0.164411
0.151943
0.128332
-0.0872226
-0.431086
0.237266
0.0246674
0.00345438
-0.771257
5.82749e-05
-0.0174152
0.0470873
-1.18401
0.00276357
-0.000621598
-1.2138e-18
6.37074e-05
0.000376926
-1.59734e-22
-1.10784e-08
1.28675e-20
1.10784e-08
0.0112089
-0.148012
0.413062
-0.19684
0.217955
-0.0344015
0.683634
-0.703206
-0.00733968
0.0283764
0.0153566
-0.0362574
-2.05795
3.4701
5.35797
-6.57509
-3.66235
3.85565
6.34685
-6.54016
-4.04986
4.24004
6.14163
-6.33181
-4.42573
4.60773
5.76741
-5.94942
-4.7818
4.94989
5.16985
-5.33794
-5.10923
5.25768
4.3568
-4.50524
-5.39395
5.51567
3.43036
-3.55208
-5.62156
5.7152
2.53148
-2.62512
-5.79653
5.86836
1.76826
-1.84009
-5.93415
5.99687
1.20232
-1.26504
-6.04324
6.0533
0.80964
-0.785166
-6.06198
6.08856
0.548665
-0.496578
-6.12284
6.15704
0.365297
-0.330716
-6.20096
6.25528
0.228303
-0.218086
-6.32004
6.39031
0.121153
-0.134814
-6.45751
6.51384
0.0323676
-0.0598845
-6.55363
6.58334
-0.0421931
0.0124793
-6.60959
6.63382
-0.0991498
0.0749185
-6.65562
6.67472
-0.135481
0.116375
-6.69098
6.70436
-0.154579
0.141197
-6.71509
6.72343
-0.164462
0.156121
-6.72983
6.73471
-0.172251
0.16737
-6.73858
6.74183
-0.183781
0.180533
-6.74492
6.74845
-0.200412
0.196879
-6.75288
6.75833
-0.214901
0.209454
-6.76442
6.77043
-0.216911
0.210902
-6.77612
6.78129
-0.199401
0.194236
-6.78576
6.78936
-0.167519
0.163918
-6.79203
6.79393
-0.129522
0.127622
-6.79536
6.79658
-0.0902252
0.0890004
-6.7978
6.79886
-0.0558357
0.0547689
-6.79956
6.80089
-0.0287514
0.0274195
-6.80394
6.80834
-0.0233582
0.0189575
-6.81113
6.81009
-0.0502745
0.0513084
-6.80868
6.8082
-0.0469437
0.0474277
-6.80851
6.80638
-0.0202682
0.0145428
-6.76172
6.64636
0.014427
-0.00353495
-6.48968
6.18972
0.0413583
1.4728e-22
-5.2843
4.26028
0.0462818
2.90839e-22
-4.25867
4.26961
0.0461796