/*--------------------------------*- C++ -*----------------------------------*\
| =========                 |                                                 |
| \\      /  F ield         | OpenFOAM: The Open Source CFD Toolbox           |
|  \\    /   O peration     | Version:  v1912                                 |
|   \\  /    A nd           | Website:  www.openfoam.com                      |
|    \\/     M anipulation  |                                                 |
\*---------------------------------------------------------------------------*/
FoamFile
{
    version     2.0;
    format      ascii;
    class       volScalarField;
    location    "24";
    object      alpha.water;
}
// * * * * * * * * * * * * * * * * * * * * * * * * * * * * * * * * * * * * * //

dimensions      [0 0 0 0 0 0 0];


internalField   nonuniform List<scalar> 
20320
(
1
1
1
1
1
1
1
1
1
1
1
1
1
1
1
1
1
1
1
1
1
1
1
1
1
1
1
1
1
1
1
1
1
1
1
1
1
1
1
1
1
1
1
1
1
1
1
1
1
1
1
1
1
1
1
1
1
1
1
1
1
1
1
1
1
1
1
1
1
1
1
1
1
1
1
1
1
1
1
1
1
1
1
1
1
1
1
1
1
1
1
1
1
1
1
1
1
1
1
1
1
1
1
1
1
1
1
1
1
1
1
1
1
1
1
1
1
1
1
1
1
1
1
1
1
1
1
1
1
1
1
1
1
1
1
1
1
1
1
1
1
1
1
1
1
1
1
1
1
1
1
1
1
1
1
1
1
1
1
1
1
1
1
1
1
1
1
1
1
1
1
1
1
1
1
1
1
1
1
1
1
1
1
1
1
1
1
1
1
1
1
1
1
1
1
1
1
1
1
1
1
1
1
1
1
1
1
1
1
1
1
1
1
1
1
1
1
1
1
1
1
1
1
1
1
1
1
1
1
1
1
1
1
1
1
1
1
1
0.999999
1
1
1
1
1
1
1
1
1
1
1
1
1
1
1
1
1
1
1
0.999999
1
1
1
1
1
1
1
1
1
1
1
1
1
1
1
1
1
1
1
1
1
1
1
1
1
1
1
1
1
1
1
1
1
1
1
1
1
1
1
1
1
1
1
1
1
1
1
1
1
1
1
1
1
1
1
1
1
1
1
1
1
1
1
1
1
1
1
1
1
1
1
1
1
1
1
1
1
1
1
1
1
1
1
1
1
1
1
1
1
1
1
1
1
1
1
1
1
1
1
1
1
1
1
1
1
1
1
1
1
1
1
1
1
1
1
1
1
1
1
1
1
1
1
1
1
1
1
1
1
1
1
1
1
1
1
1
1
1
1
1
0.999999
0.99981
0.999977
0.999987
0.999877
0.999979
0.999996
1
0.999983
0.999987
1
0.937358
0.650487
0.872507
0.889146
0.853573
1
1
0.805588
0.320544
0.00920562
0.00969632
0.00924188
0.00924732
0.0281618
0.136978
0.148505
0.13488
0.109915
0.0745566
0.0478543
0.0339196
0.0247473
0.0164367
0.00728964
0.00702413
0.00699248
0.00697157
0.00697852
0.00698904
0.0070077
0.0070203
0.00703651
0.051657
0.0613699
0.977013
1
1
1
1
1
1
1
1
1
1
1
1
1
1
1
0.992546
0.988961
0.999939
0.998485
0.999855
0.999737
1
0.999996
0.999775
1
0.959723
0.66538
0.911018
1
1
0.996931
0.995904
0.857461
0.499047
0.00914138
0.00966792
0.00924188
0.421777
1
1
1
1
1
1
1
1
0.999852
0.997077
0.981882
0.945883
0.925183
0.924643
0.964582
1
1
1
1
1
1
0.99997
1
1
1
1
1
1
1
1
1
1
1
1
1
1
1
0.972256
0.995088
0.937416
1
0.999631
0.999945
1
0.999956
0.999804
1
1
0.551557
1
1
0.988539
0.92149
0.988609
0.0100604
0.0957471
0.0630376
0.012401
0.605674
1
1
1
1
1
1
1
1
1
1
1
1
1
1
1
1
1
1
1
1
1
1
1
1
1
1
1
1
1
1
1
1
1
1
1
1
1
1
0.999892
0.996366
0.864514
0.999998
1
1
1
0.999972
0.999997
0.999994
0.908683
0.107708
0.3229
1
0.20688
0.90511
0.991197
0.0100604
0.195071
0.0781441
0.194442
1
1
1
1
1
1
1
1
1
1
1
1
1
1
1
1
1
1
1
1
1
1
1
1
1
1
1
1
1
1
1
1
1
1
1
1
1
1
1
1
0.832512
0.999997
0.999999
0.957138
0.99972
1
0.999642
0.998556
0.999489
0.991326
1
0.539286
0.0150999
1.48658e-06
0.361615
0.997464
0.0326856
0.00834188
0.00834784
0.974721
1
1
1
1
1
1
1
1
1
1
1
1
1
1
1
1
1
1
1
1
1
1
1
1
1
1
1
1
1
1
1
1
1
1
1
1
1
1
1
0.999969
0.991906
0.998826
0.991586
0.96069
0.927018
0.988632
1
0.981763
1
1
1
1
0.836995
5.61637e-06
2.45012e-19
0.819628
0.410671
0.0083484
0.388053
1
1
1
1
1
1
1
1
1
1
1
1
1
1
1
1
1
1
1
1
1
1
1
1
1
1
1
1
1
1
1
1
1
1
1
1
1
1
1
1
1
0.996362
0.991464
0.994111
0.999991
0.98598
0.91478
0.975509
0.957544
0.645876
0.978313
0.90432
0.234946
0.388013
0.000188759
1.55168e-22
0.539556
0.357669
0.0083484
0.952787
1
1
1
1
1
1
1
1
1
0.994419
0.983724
0.979653
0.981084
0.988184
0.996811
1
1
1
1
1
1
1
1
1
1
1
1
1
1
1
1
1
1
1
0.999899
0.985134
0.942161
0.697492
0.643232
0.443132
1
0.835903
0.984906
0.994016
0.999854
1
0.99937
0.919831
0.962689
0.805824
0.409106
4.44723e-20
-4.09785e-22
-3.04052e-20
4.89649e-22
1.39914e-07
0.506204
0.313209
0.0567518
1
1
1
1
1
1
0.995822
0.611104
0.124399
5.02764e-21
-1.77599e-20
-2.25884e-20
-3.06472e-20
-2.13021e-20
-1.25731e-20
-5.59564e-21
0.00040285
0.0109948
0.0385133
0.0721626
0.10613
0.146542
0.200864
0.266885
0.371146
0.420471
0.417521
0.360585
0.228121
0.123351
0.0565342
0.0169873
0.0040159
-1.82438e-20
1.77839e-22
-1.64278e-22
-7.00013e-21
-1.63421e-20
-2.25298e-20
-2.58247e-20
-2.68877e-20
0.994704
0.8359
0.998908
0.999841
0.99998
0.999988
1
1
1
1
0.249366
2.59055e-10
3.91898e-12
-6.7845e-27
1.21392e-07
-1.18926e-25
0.91535
0.0116353
0.738864
1
1
1
1
1
0.727982
-5.46907e-19
-6.14026e-21
-1.58823e-20
-1.9789e-20
-1.75564e-20
-1.8207e-20
-2.09222e-20
-2.26609e-20
-2.2699e-20
-2.26151e-20
-2.38668e-20
-2.63294e-20
-2.83688e-20
-2.86892e-20
-2.77317e-20
-2.60527e-20
-2.44177e-20
-2.41805e-20
-2.47059e-20
1.83835e-25
-4.33105e-25
-3.24524e-20
-3.46349e-20
-3.41296e-20
-3.21477e-20
-2.91755e-20
-2.6223e-20
-2.43358e-20
-2.33688e-20
-2.2724e-20
-2.21536e-20
-2.13701e-20
-2.05308e-20
-1.97991e-20
-1.91417e-20
0.998196
0.949559
0.994627
0.955648
0.999704
0.999989
1
1
0.986436
0.984395
0.868906
6.8223e-10
1.28029e-08
-9.49866e-27
2.03199e-07
0.0899043
0.742314
0.00843505
0.998938
1
1
1
1
0.656216
-1.44084e-19
-1.60725e-20
-1.47479e-20
-1.39986e-20
-1.28021e-20
-1.18278e-20
-1.16795e-20
-1.21453e-20
-1.25328e-20
-1.25434e-20
-1.24473e-20
-1.26285e-20
-1.32582e-20
-1.42797e-20
-1.55039e-20
-1.67655e-20
-1.81096e-20
-1.95804e-20
-2.10774e-20
-2.23316e-20
-2.30039e-20
-2.28442e-20
-2.18321e-20
-2.02221e-20
-1.84307e-20
-1.68496e-20
-1.56596e-20
-1.47882e-20
-1.4117e-20
-1.36079e-20
-1.31332e-20
-1.25671e-20
-1.20509e-20
-1.16736e-20
-1.13715e-20
-1.10825e-20
1
1
0.748227
0.96473
0.999916
0.999991
1
0.911735
0.995559
0.993964
1
0.300713
1.40744e-07
5.14579e-07
2.21999e-09
0.877932
0.134856
0.410285
1
1
1
1
0.906182
-4.9247e-19
-1.7334e-20
-1.70182e-20
-1.37965e-20
-1.09518e-20
-9.09109e-21
-8.13053e-21
-7.78701e-21
-7.75461e-21
-7.8071e-21
-7.85903e-21
-7.93451e-21
-8.08588e-21
-8.34116e-21
-8.68617e-21
-9.09054e-21
-9.51445e-21
-9.93715e-21
-1.0339e-20
-1.06724e-20
-1.08693e-20
-1.08712e-20
-1.0664e-20
-1.03005e-20
-9.88145e-21
-9.50665e-21
-9.22799e-21
-9.02456e-21
-8.8263e-21
-8.58718e-21
-8.30633e-21
-7.97365e-21
-7.59849e-21
-7.25652e-21
-6.98864e-21
-6.77111e-21
-6.55826e-21
0.869307
1
0.73883
0.999915
0.990192
0.999994
0.711853
0.985159
1
1
1
1
0.099351
-7.03994e-26
0.34653
1
-4.50553e-20
0.936361
1
1
1
1
0.028994
-7.7716e-21
-1.426e-20
-1.31326e-20
-1.048e-20
-8.28438e-21
-6.73423e-21
-5.85341e-21
-5.46645e-21
-5.34399e-21
-5.31085e-21
-5.29159e-21
-5.28901e-21
-5.33037e-21
-5.42901e-21
-5.57135e-21
-5.73011e-21
-5.8771e-21
-5.98272e-21
-6.04073e-21
-6.05176e-21
-6.02031e-21
-5.95555e-21
-5.87299e-21
-5.79354e-21
-5.7359e-21
-5.70506e-21
-5.68486e-21
-5.64029e-21
-5.53549e-21
-5.36056e-21
-5.13255e-21
-4.8723e-21
-4.60602e-21
-4.36786e-21
-4.17063e-21
-4.00281e-21
-3.84657e-21
0.987161
0.955822
0.993341
0.763818
0.979581
0.980791
0.876229
1
0.99434
0.810407
0.910238
1
0.994229
0.957008
1
0.274777
0.0370005
1
1
1
1
0.416537
-5.71288e-20
-1.81071e-20
-1.18164e-20
-9.22462e-21
-7.29887e-21
-5.78787e-21
-4.7429e-21
-4.11149e-21
-3.771e-21
-3.59268e-21
-3.48782e-21
-3.42111e-21
-3.39184e-21
-3.40627e-21
-3.46171e-21
-3.54418e-21
-3.63583e-21
-3.72277e-21
-3.78145e-21
-3.80502e-21
-3.79707e-21
-3.76732e-21
-3.72766e-21
-3.68834e-21
-3.65526e-21
-3.62759e-21
-3.59662e-21
-3.54724e-21
-3.46311e-21
-3.33571e-21
-3.17224e-21
-2.99091e-21
-2.80929e-21
-2.64194e-21
-2.4998e-21
-2.38371e-21
-2.28661e-21
-2.20037e-21
0.994421
0.994421
0.710359
0.577036
1
0.943422
0.998473
0.743411
0.996658
0.93763
0.841832
0.824074
1
0.999957
1
-3.08856e-25
0.793818
1
1
1
1
-2.3948e-19
-1.44337e-20
-1.05244e-20
-7.79601e-21
-6.14671e-21
-4.83463e-21
-3.85049e-21
-3.17452e-21
-2.73614e-21
-2.45749e-21
-2.27843e-21
-2.16307e-21
-2.09456e-21
-2.06487e-21
-2.06669e-21
-2.09116e-21
-2.12886e-21
-2.17187e-21
-2.21798e-21
-2.25756e-21
-2.28007e-21
-2.28437e-21
-2.27273e-21
-2.24921e-21
-2.21755e-21
-2.17942e-21
-2.13376e-21
-2.07712e-21
-2.0053e-21
-1.91608e-21
-1.81197e-21
-1.70068e-21
-1.5915e-21
-1.49107e-21
-1.40312e-21
-1.32903e-21
-1.26723e-21
-1.21426e-21
-1.16671e-21
0.992878
0.941026
0.947086
0.988478
0.997789
0.734985
0.857819
0.712719
1
1
1
0.959942
1
1
0.338978
1.54456e-19
1
1
1
1
0.308755
-6.71821e-20
-1.60707e-20
-8.56327e-21
-5.64722e-21
-4.20602e-21
-3.19955e-21
-2.50359e-21
-2.03265e-21
-1.71343e-21
-1.49656e-21
-1.35087e-21
-1.25673e-21
-1.20091e-21
-1.17328e-21
-1.1653e-21
-1.17003e-21
-1.18222e-21
-1.19781e-21
-1.21526e-21
-1.23419e-21
-1.24469e-21
-1.24354e-21
-1.23071e-21
-1.20754e-21
-1.17593e-21
-1.1375e-21
-1.09312e-21
-1.04309e-21
-9.87777e-22
-9.28314e-22
-8.67088e-22
-8.07269e-22
-7.51597e-22
-7.01577e-22
-6.57735e-22
-6.19989e-22
-5.87551e-22
-5.59147e-22
-5.33537e-22
0.52086
0.153494
0.542146
0.877412
0.0925103
0.959285
0.99524
0.998497
1
1
1
1
1
1
-2.25064e-21
0.444918
1
1
1
1
-7.07079e-19
-1.76402e-20
-1.03624e-20
-6.03482e-21
-3.98787e-21
-2.82863e-21
-2.06988e-21
-1.56817e-21
-1.23026e-21
-9.99401e-22
-8.42592e-22
-7.3834e-22
-6.71291e-22
-6.3013e-22
-6.06592e-22
-5.94699e-22
-5.90189e-22
-5.89938e-22
-5.91331e-22
-5.92297e-22
-5.92958e-22
-5.9223e-22
-5.84685e-22
-5.70488e-22
-5.50661e-22
-5.26542e-22
-4.99422e-22
-4.70302e-22
-4.39922e-22
-4.08958e-22
-3.78179e-22
-3.48493e-22
-3.20796e-22
-2.95714e-22
-2.7353e-22
-2.54271e-22
-2.3779e-22
-2.23716e-22
-2.11523e-22
-2.00695e-22
8.43423e-10
0.632764
0.329116
0.17408
0.570243
1
1
1
1
1
1
1
1
0.688373
-2.42833e-19
0.920747
1
1
1
0.414384
2.05961e-36
-1.28738e-20
-6.6174e-21
-4.18257e-21
-2.76591e-21
-1.86691e-21
-1.29645e-21
-9.31966e-22
-6.93742e-22
-5.36316e-22
-4.3296e-22
-3.65933e-22
-3.2291e-22
-2.95539e-22
-2.78272e-22
-2.67433e-22
-2.60493e-22
-2.55572e-22
-2.51152e-22
-2.45968e-22
-2.39409e-22
-2.32313e-22
-2.24622e-22
-2.14249e-22
-2.01902e-22
-1.88356e-22
-1.74252e-22
-1.60092e-22
-1.46247e-22
-1.3301e-22
-1.2064e-22
-1.09353e-22
-9.93037e-23
-9.05487e-23
-8.3052e-23
-7.67162e-23
-7.13941e-23
-6.68947e-23
-6.30035e-23
-5.95397e-23
7.66914e-10
8.49466e-10
0.0716631
0.413331
0.615008
0.429958
0.0970253
0.15673
0.566341
0.852639
1
1
1
0.136843
-1.8276e-18
1
1
1
1
0.00644757
-3.86233e-21
-6.00336e-21
-4.49825e-21
-2.99093e-21
-1.8935e-21
-1.19482e-21
-7.72764e-22
-5.17083e-22
-3.5934e-22
-2.61105e-22
-1.99799e-22
-1.61315e-22
-1.36799e-22
-1.20836e-22
-1.10121e-22
-1.02583e-22
-9.68589e-23
-9.20025e-23
-8.73463e-23
-8.24467e-23
-7.70696e-23
-7.12597e-23
-6.55687e-23
-6.03951e-23
-5.51527e-23
-4.98204e-23
-4.46858e-23
-3.98908e-23
-3.55142e-23
-3.15962e-23
-2.81493e-23
-2.51678e-23
-2.26287e-23
-2.04924e-23
-1.8708e-23
-1.72199e-23
-1.59711e-23
-1.49054e-23
-1.397e-23
-1.31269e-23
2.75959e-10
4.50984e-08
5.4741e-12
3.25865e-14
3.19851e-14
3.14014e-14
6.24827e-14
1.22474e-13
6.18777e-14
6.18776e-14
0.136588
0.60476
0.366596
-2.44268e-22
0.640005
1
1
1
0.76809
1.42783e-19
-9.00297e-21
-5.74272e-21
-3.63196e-21
-2.17316e-21
-1.25606e-21
-7.26038e-22
-4.29894e-22
-2.63337e-22
-1.68261e-22
-1.13356e-22
-8.11724e-23
-6.18076e-23
-4.97098e-23
-4.17875e-23
-3.62985e-23
-3.22288e-23
-2.89652e-23
-2.61323e-23
-2.3511e-23
-2.09911e-23
-1.85406e-23
-1.61808e-23
-1.39611e-23
-1.1956e-23
-1.02762e-23
-8.93245e-24
-7.78041e-24
-6.76441e-24
-5.89665e-24
-5.16384e-24
-4.54816e-24
-4.03252e-24
-3.60152e-24
-3.24148e-24
-2.94046e-24
-2.6879e-24
-2.4741e-24
-2.28999e-24
-2.12742e-24
-1.98068e-24
1.21156e-08
1.90028e-09
2.00528e-11
4.60905e-12
2.01615e-12
3.56079e-12
2.12707e-11
1.18574e-10
6.93252e-11
-5.09427e-32
4.18075e-25
-3.36997e-21
2.45975e-10
-1.52934e-30
0.98456
1
1
1
0.119531
-2.1759e-20
-6.24001e-21
-4.73544e-21
-2.81972e-21
-1.52605e-21
-7.93704e-22
-4.13061e-22
-2.19901e-22
-1.21115e-22
-6.99287e-23
-4.29595e-23
-2.83237e-23
-2.00056e-23
-1.49943e-23
-1.17695e-23
-9.54461e-24
-7.89888e-24
-6.60132e-24
-5.52528e-24
-4.60412e-24
-3.80539e-24
-3.11504e-24
-2.52707e-24
-2.03679e-24
-1.63752e-24
-1.31953e-24
-1.07084e-24
-8.78777e-25
-7.3309e-25
-6.25736e-25
-5.42887e-25
-4.74935e-25
-4.17786e-25
-3.69696e-25
-3.29138e-25
-2.94845e-25
-2.65794e-25
-2.41087e-25
-2.19861e-25
-2.01326e-25
-1.84858e-25
9.20174e-07
5.24174e-13
1.71124e-11
6.40223e-12
1.24274e-11
1.1773e-10
3.32923e-10
1.41829e-10
2.98236e-11
2.4878e-05
5.7893e-05
-2.6252e-31
1.49292e-12
0.062189
1
1
1
1
3.04056e-19
-7.71944e-21
-5.66403e-21
-3.73445e-21
-2.05293e-21
-1.00847e-21
-4.69322e-22
-2.16834e-22
-1.01813e-22
-4.93633e-23
-2.52229e-23
-1.38457e-23
-8.23401e-24
-5.28122e-24
-3.60546e-24
-2.5779e-24
-1.90064e-24
-1.42599e-24
-1.07757e-24
-8.14212e-25
-6.12594e-25
-4.58282e-25
-3.4127e-25
-2.53784e-25
-1.89356e-25
-1.42515e-25
-1.08738e-25
-8.44175e-26
-6.68043e-26
-5.38843e-26
-4.4231e-26
-3.68603e-26
-3.11042e-26
-2.65143e-26
-2.27883e-26
-1.9721e-26
-1.71697e-26
-1.50409e-26
-1.32573e-26
-1.17606e-26
-1.05103e-26
-9.46224e-27
1.05854e-06
1.14078e-29
1.94465e-11
6.79177e-12
1.46769e-10
8.02047e-10
2.07971e-09
3.12701e-09
3.17999e-11
3.52858e-05
0.000508394
-3.3896e-23
-6.92545e-31
0.807057
1
1
1
0.40755
-2.40389e-20
-8.15423e-21
-4.46537e-21
-2.73588e-21
-1.39875e-21
-6.21506e-22
-2.56614e-22
-1.03492e-22
-4.18767e-23
-1.74275e-23
-7.68274e-24
-3.67389e-24
-1.92076e-24
-1.08867e-24
-6.57382e-25
-4.14923e-25
-2.69132e-25
-1.77054e-25
-1.17115e-25
-7.75165e-26
-5.12843e-26
-3.39799e-26
-2.26469e-26
-1.52686e-26
-1.04748e-26
-7.34874e-27
-5.28785e-27
-3.90478e-27
-2.95467e-27
-2.2841e-27
-1.7974e-27
-1.43475e-27
-1.1582e-27
-9.43311e-28
-7.73972e-28
-6.39187e-28
-5.31203e-28
-4.44365e-28
-3.74363e-28
-3.17847e-28
-2.72141e-28
-2.35301e-28
8.01015e-07
1.47948e-12
3.35985e-11
1.1458e-11
1.25571e-10
2.59533e-09
7.29274e-09
1.56059e-09
2.98256e-11
9.50087e-05
0.000572023
6.04312e-14
-2.64616e-19
1
1
1
1
0.0258507
-3.83121e-21
-4.66087e-21
-3.42372e-21
-1.95631e-21
-9.0452e-22
-3.57e-22
-1.2845e-22
-4.4137e-23
-1.49484e-23
-5.17359e-24
-1.90621e-24
-7.69249e-25
-3.42095e-25
-1.65414e-25
-8.51039e-26
-4.55784e-26
-2.49822e-26
-1.38568e-26
-7.73575e-27
-4.34349e-27
-2.46089e-27
-1.41512e-27
-8.31863e-28
-5.03241e-28
-3.14866e-28
-2.04165e-28
-1.3706e-28
-9.49235e-29
-6.74979e-29
-4.90268e-29
-3.62072e-29
-2.70842e-29
-2.04657e-29
-1.55951e-29
-1.19757e-29
-9.26808e-30
-7.23484e-30
-5.70457e-30
-4.55157e-30
-3.68218e-30
-3.02614e-30
-2.52875e-30
0.00018881
2.21612e-09
5.34053e-11
3.32506e-11
1.42648e-10
9.53283e-10
1.65207e-10
1.23328e-11
1.19236e-05
0.00144842
6.32492e-11
6.63284e-11
0.52607
1
1
1
0.958444
-4.76159e-20
-5.78212e-21
-4.5322e-21
-2.70978e-21
-1.35882e-21
-5.53048e-22
-1.89902e-22
-5.80634e-23
-1.64615e-23
-4.49509e-24
-1.24323e-24
-3.6751e-25
-1.20073e-25
-4.34941e-26
-1.71323e-26
-7.15027e-27
-3.0903e-27
-1.3624e-27
-6.08524e-28
-2.75316e-28
-1.26765e-28
-5.9888e-29
-2.92961e-29
-1.49601e-29
-8.01763e-30
-4.51404e-30
-2.66156e-30
-1.63354e-30
-1.03619e-30
-6.7452e-31
-4.47912e-31
-3.02059e-31
-2.06223e-31
-1.42289e-31
-9.91737e-32
-6.98633e-32
-4.98163e-32
-3.60412e-32
-2.65363e-32
-1.99547e-32
-1.53833e-32
-1.21996e-32
-9.96626e-33
0.0115893
5.39273e-10
5.33536e-11
1.01099e-10
8.52095e-11
4.20454e-11
1.21944e-11
2.36699e-05
0.00206466
0.000612471
5.62105e-10
2.21619e-18
0.97687
1
1
1
0.233577
-1.08365e-20
-7.06371e-21
-3.90344e-21
-2.0401e-21
-8.97025e-22
-3.16687e-22
-9.2492e-23
-2.32659e-23
-5.21959e-24
-1.09449e-24
-2.29377e-25
-5.14755e-26
-1.28661e-26
-3.5764e-27
-1.07714e-27
-3.41371e-28
-1.11519e-28
-3.71958e-29
-1.2667e-29
-4.43515e-30
-1.61433e-30
-6.18251e-31
-2.51742e-31
-1.0963e-31
-5.10524e-32
-2.52734e-32
-1.31768e-32
-7.16156e-33
-4.02006e-33
-2.31358e-33
-1.3579e-33
-8.10069e-34
-4.90362e-34
-3.0112e-34
-1.87773e-34
-1.1916e-34
-7.71981e-35
-5.12652e-35
-3.50624e-35
-2.48248e-35
-1.82825e-35
-1.40506e-35
-1.12558e-35
0.0116044
4.35963e-05
1.05306e-08
1.05156e-10
1.58154e-10
4.48477e-11
1.21944e-11
2.63326e-05
0.00258
-3.47394e-23
9.25768e-09
0.188957
1
1
1
1
1.80342e-18
-1.18398e-20
-5.1596e-21
-2.9795e-21
-1.4519e-21
-5.58751e-22
-1.68345e-22
-4.06433e-23
-8.06561e-24
-1.35521e-24
-2.04e-25
-3.00353e-26
-4.72582e-27
-8.31802e-28
-1.62513e-28
-3.40978e-29
-7.47417e-30
-1.68828e-30
-3.93203e-31
-9.54111e-32
-2.44996e-32
-6.76697e-33
-2.03736e-33
-6.72889e-34
-2.43188e-34
-9.5228e-35
-3.98575e-35
-1.75839e-35
-8.08369e-36
-3.83887e-36
-1.87195e-36
-9.33935e-37
-4.759e-37
-2.47637e-37
-1.31744e-37
-7.18249e-38
-4.02641e-38
-2.33074e-38
-1.39987e-38
-8.76652e-39
-5.75002e-39
-3.96189e-39
-2.86675e-39
-2.16302e-39
0.00430644
0.000712743
9.40077e-10
1.22801e-08
3.59165e-10
3.67157e-11
2.37661e-05
0.00133624
0.000242847
2.33594e-07
9.36728e-19
0.901496
1
1
1
0.626986
5.47605e-21
-5.43549e-21
-3.91752e-21
-2.23864e-21
-9.83957e-22
-3.26273e-22
-8.20144e-23
-1.57744e-23
-2.33709e-24
-2.72349e-25
-2.6646e-26
-2.45181e-27
-2.3811e-28
-2.57491e-29
-3.05486e-30
-3.83585e-31
-5.01182e-32
-6.85361e-33
-9.97687e-34
-1.58444e-34
-2.80705e-35
-5.63307e-36
-1.28585e-36
-3.31051e-37
-9.45105e-38
-2.93514e-38
-9.7465e-39
-3.41384e-39
-1.24914e-39
-4.74325e-40
-1.86121e-40
-7.52978e-41
-3.13813e-41
-1.34781e-41
-5.97422e-42
-2.73906e-42
-1.30269e-42
-6.44812e-43
-3.33297e-43
-1.8045e-43
-1.02547e-43
-6.1169e-44
-3.81463e-44
-2.45777e-44
2.00827e-05
0.000855533
1.95346e-09
1.2245e-08
3.5311e-10
2.10577e-10
5.34436e-07
0.00179247
5.30948e-06
1.60002e-06
0.0505108
1
1
1
1
0.0892041
-1.91438e-20
-5.67703e-21
-3.24853e-21
-1.65217e-21
-6.29747e-22
-1.76345e-22
-3.59504e-23
-5.2464e-24
-5.3734e-25
-3.87184e-26
-2.08454e-27
-9.65619e-29
-4.50479e-30
-2.26535e-31
-1.19484e-32
-6.98922e-34
-4.21812e-35
-2.7434e-36
-2.05338e-37
-1.87022e-38
-2.16584e-39
-3.00701e-40
-4.87741e-41
-9.00042e-42
-1.84337e-42
-4.11364e-43
-9.85745e-44
-2.51014e-44
-6.73721e-45
-1.89385e-45
-5.55209e-46
-1.69201e-46
-5.34794e-47
-1.75163e-47
-5.9431e-48
-2.08952e-48
-7.62276e-49
-2.88967e-49
-1.14024e-49
-4.69168e-50
-2.01448e-50
-9.01492e-51
-4.18129e-51
-1.98152e-51
1.99625e-05
-7.31105e-23
8.5753e-10
4.21477e-08
3.48608e-08
3.95519e-08
2.4236e-05
6.69407e-05
3.78465e-05
-6.79863e-25
0.866636
1
1
1
1
-1.89743e-19
-1.11957e-20
-4.51971e-21
-2.53695e-21
-1.14881e-21
-3.7533e-22
-8.69262e-23
-1.383e-23
-1.43313e-24
-9.0419e-26
-3.28748e-27
-6.86511e-29
-9.194e-31
-1.5187e-32
-3.17477e-34
-5.83806e-36
-8.88774e-38
-1.18768e-39
-1.68582e-41
-3.21753e-43
-9.38517e-45
-4.22015e-46
-2.72357e-47
-2.33116e-48
-2.49471e-49
-3.26098e-50
-4.71617e-51
-7.38779e-52
-1.23944e-52
-2.20438e-53
-4.12103e-54
-8.04909e-55
-1.6343e-55
-3.43476e-56
-7.45552e-57
-1.67158e-57
-3.95088e-58
-1.21118e-58
-1.04689e-58
-2.3085e-58
-6.10949e-58
-1.62348e-57
-4.21512e-57
-1.05531e-56
-2.52472e-56
0.00113756
-1.77577e-25
2.87818e-07
1.15718e-06
6.64187e-11
7.69991e-09
9.31707e-05
0.000153123
-1.72456e-23
0.0407791
1
1
1
1
0.271473
2.05961e-36
-5.50398e-21
-3.50747e-21
-1.87382e-21
-7.43507e-22
-2.05709e-22
-3.83783e-23
-4.52044e-24
-3.00973e-25
-9.59302e-27
-1.10798e-28
-2.89174e-31
-1.94423e-33
-1.52202e-35
-6.90834e-38
-7.51147e-41
-4.15148e-45
-1.53196e-48
-6.20947e-53
-4.12221e-61
-5.15152e-63
-5.97357e-65
-1.08771e-66
-1.91554e-66
-7.62186e-66
-2.89103e-65
-1.05546e-64
-3.78432e-64
-1.32934e-63
-4.53172e-63
-1.48681e-62
-4.73372e-62
-1.4464e-61
-4.32598e-61
-1.25129e-60
-3.56279e-60
-1.00297e-59
-2.80136e-59
-7.86151e-59
-2.2194e-58
-6.3042e-58
-1.79745e-57
-5.10649e-57
-1.42799e-56
-3.86206e-56
0.00113733
1.84201e-27
4.61695e-07
2.96253e-10
6.64187e-11
8.96366e-07
7.56013e-06
0.000158589
-6.82845e-24
0.876551
1
1
1
1
-3.39766e-19
-5.57892e-21
-4.38656e-21
-2.68405e-21
-1.29542e-21
-4.45032e-22
-1.02337e-22
-1.47949e-23
-1.19432e-24
-4.33249e-26
-4.47276e-28
-2.96486e-31
-8.51286e-34
-2.82552e-36
-2.29837e-39
-3.66185e-45
-1.29382e-51
-9.11108e-56
-1.4324e-57
-2.12875e-59
-2.92962e-61
-3.68601e-63
-4.22556e-65
-7.18712e-67
-1.24553e-66
-5.18375e-66
-2.04359e-65
-7.62654e-65
-2.70176e-64
-9.13586e-64
-2.97539e-63
-9.48273e-63
-2.9689e-62
-8.95661e-62
-2.63821e-61
-7.48257e-61
-2.10577e-60
-5.81517e-60
-1.60897e-59
-4.52101e-59
-1.29067e-58
-3.77598e-58
-1.13088e-57
-3.4453e-57
-1.05251e-56
-3.1157e-56
6.53165e-06
1.46082e-09
1.82485e-08
1.40927e-09
1.23717e-07
3.26875e-08
0.000336252
-2.26703e-22
0.147223
1
1
1
1
0.521047
-4.9895e-21
-4.04461e-21
-3.33075e-21
-1.95287e-21
-8.36634e-22
-2.44802e-22
-4.54712e-23
-4.8099e-24
-2.34628e-25
-3.32325e-27
-1.16897e-30
-1.31885e-33
-2.29226e-36
-6.82092e-40
-3.25585e-48
-2.13701e-52
-3.87058e-54
-6.87877e-56
-1.1627e-57
-1.81572e-59
-2.57147e-61
-3.27489e-63
-3.7459e-65
-4.72974e-67
-4.24766e-67
-1.88603e-66
-7.93878e-66
-3.14421e-65
-1.1733e-64
-4.1299e-64
-1.37374e-63
-4.32631e-63
-1.29497e-62
-3.72141e-62
-1.04437e-61
-2.87276e-61
-7.82131e-61
-2.06926e-60
-5.58544e-60
-1.52122e-59
-4.26115e-59
-1.24772e-58
-3.79026e-58
-1.19055e-57
-3.79326e-57
-1.16257e-56
5.20141e-10
1.51548e-08
1.34318e-08
1.12359e-07
7.52157e-08
0.000403631
0.000109025
1.52233e-14
0.956136
1
1
1
1
0.0251173
-4.98439e-21
-4.35035e-21
-2.69844e-21
-1.36005e-21
-5.02804e-22
-1.22475e-22
-1.76114e-23
-1.24725e-24
-2.9438e-26
-5.40216e-29
-5.69862e-33
-7.16035e-36
-1.59586e-39
-8.02419e-49
-7.63275e-51
-1.5446e-52
-3.10908e-54
-6.0247e-56
-1.08231e-57
-1.75695e-59
-2.54625e-61
-3.2853e-63
-3.77928e-65
-4.00406e-67
-6.85656e-68
-3.24176e-67
-1.50846e-66
-6.54178e-66
-2.64228e-65
-9.94252e-65
-3.48903e-64
-1.14451e-63
-3.52079e-63
-1.02039e-62
-2.801e-62
-7.33889e-62
-1.85224e-61
-4.57649e-61
-1.16714e-60
-2.96158e-60
-7.93499e-60
-2.22005e-59
-6.49885e-59
-1.99997e-58
-6.24e-58
-1.87468e-57
4.33312e-10
4.05064e-07
4.9914e-09
1.72943e-07
0.000255404
0.000469349
1.83853e-14
0.562464
1
1
1
1
0.759865
-5.54192e-20
-5.86052e-21
-3.80368e-21
-2.01349e-21
-8.87525e-22
-2.79226e-22
-5.48541e-23
-5.73926e-24
-2.34974e-25
-1.57032e-27
-6.24403e-32
-5.67091e-35
-1.45447e-38
-1.23097e-47
-2.45125e-49
-5.5181e-51
-1.24938e-52
-2.7558e-54
-5.66565e-56
-1.04906e-57
-1.72841e-59
-2.53332e-61
-3.30923e-63
-3.85868e-65
-4.02517e-67
-7.7113e-69
-2.27543e-68
-1.21541e-67
-6.02963e-67
-2.75514e-66
-1.15468e-65
-4.43169e-65
-1.55968e-64
-5.0486e-64
-1.51059e-63
-4.20595e-63
-1.10007e-62
-2.73779e-62
-6.58502e-62
-1.55912e-61
-3.70265e-61
-8.97322e-61
-2.24675e-60
-6.10361e-60
-1.74361e-59
-5.05479e-59
-1.53971e-58
4.64862e-06
3.17576e-06
9.58963e-09
5.59872e-05
0.000188661
2.2212e-14
0.034084
1
1
1
1
1
0.0692393
-5.93502e-21
-5.15336e-21
-2.80716e-21
-1.40064e-21
-5.40954e-22
-1.41478e-22
-2.14762e-23
-1.49061e-24
-2.63961e-26
-3.99894e-30
-3.22839e-33
-2.76339e-37
-3.10575e-46
-6.90397e-48
-1.71746e-49
-4.33296e-51
-1.07438e-52
-2.48983e-54
-5.17211e-56
-9.55462e-58
-1.57949e-59
-2.33583e-61
-3.08857e-63
-3.65485e-65
-3.87017e-67
-3.79679e-69
-8.20948e-70
-4.54876e-69
-2.47357e-68
-1.26422e-67
-6.00824e-67
-2.61881e-66
-1.03548e-65
-3.69099e-65
-1.18657e-64
-3.45759e-64
-9.22456e-64
-2.2888e-63
-5.39041e-63
-1.23531e-62
-2.82972e-62
-6.64193e-62
-1.62947e-61
-4.2175e-61
-1.14604e-60
-3.2155e-60
-9.25415e-60
1.26328e-05
2.62359e-08
2.42987e-11
6.22681e-05
4.23482e-12
1.13638e-11
0.967301
1
1
1
1
0.812055
-8.01652e-20
-5.38469e-21
-3.47259e-21
-2.01202e-21
-9.19051e-22
-3.0409e-22
-6.4349e-23
-7.15947e-24
-2.82804e-25
-1.01942e-27
-9.09893e-31
-1.01752e-33
-6.9591e-40
-1.68577e-46
-4.59767e-48
-1.28144e-49
-3.53512e-51
-9.14527e-53
-2.11827e-54
-4.37944e-56
-8.10427e-58
-1.34539e-59
-2.00457e-61
-2.67907e-63
-3.21239e-65
-3.45427e-67
-3.3317e-69
-4.98354e-71
-1.26093e-70
-7.10303e-70
-3.77087e-69
-1.86774e-68
-8.57195e-68
-3.6332e-67
-1.41876e-66
-5.04544e-66
-1.61162e-65
-4.59747e-65
-1.18118e-64
-2.78861e-64
-6.24496e-64
-1.37945e-63
-3.13811e-63
-7.62258e-63
-1.99338e-62
-5.34886e-62
-1.32898e-61
-2.6718e-61
2.42988e-11
4.73004e-09
1.39403e-05
2.52909e-07
-1.59056e-19
0.838805
1
1
1
1
1
0.0604708
-1.00143e-20
-3.62585e-21
-2.62682e-21
-1.41133e-21
-5.60197e-22
-1.55609e-22
-2.6006e-23
-1.9898e-24
-3.47077e-26
-8.40623e-29
-3.4152e-31
-3.63333e-34
-8.71999e-41
-1.05477e-46
-3.22131e-48
-9.81985e-50
-2.82175e-51
-7.28113e-53
-1.67879e-54
-3.46437e-56
-6.41483e-58
-1.06796e-59
-1.6e-61
-2.15625e-63
-2.61415e-65
-2.84849e-67
-2.78731e-69
-2.49567e-71
-3.07764e-72
-1.69194e-71
-9.31609e-71
-4.77939e-70
-2.26868e-69
-9.9293e-69
-3.98757e-68
-1.45729e-67
-4.82699e-67
-1.45617e-66
-3.98671e-66
-9.81749e-66
-2.20092e-65
-4.66411e-65
-9.86676e-65
-2.19731e-64
-5.22545e-64
-1.24548e-63
-2.60894e-63
-4.15525e-63
2.42988e-11
1.81838e-06
1.62253e-07
1.26936e-19
0.754075
1
1
1
1
1
0.671571
-2.20781e-21
-4.57981e-21
-3.42263e-21
-1.99946e-21
-9.17649e-22
-3.12306e-22
-7.25257e-23
-9.48182e-24
-4.694e-25
-4.34738e-27
-3.97601e-29
-1.05827e-31
-1.0327e-34
-1.07054e-41
-6.88424e-47
-2.30406e-48
-7.3351e-50
-2.10445e-51
-5.40091e-53
-1.24048e-54
-2.5541e-56
-4.72576e-58
-7.8787e-60
-1.18481e-61
-1.60703e-63
-1.96581e-65
-2.166e-67
-2.14721e-69
-1.91557e-71
-2.0669e-73
-3.2667e-73
-1.86306e-72
-9.92822e-72
-4.89915e-71
-2.22745e-70
-9.26891e-70
-3.49734e-69
-1.1903e-68
-3.65101e-68
-1.00446e-67
-2.47848e-67
-5.57849e-67
-1.15346e-66
-2.22569e-66
-4.1957e-66
-8.09049e-66
-1.58792e-65
-2.892e-65
-4.17867e-65
3.20377e-06
5.26016e-08
-1.83043e-19
0.820142
1
1
1
1
1
1
1.90687e-19
-7.02814e-21
-4.69297e-21
-2.77834e-21
-1.37938e-21
-5.46713e-22
-1.60784e-22
-3.17175e-23
-3.36444e-24
-1.19519e-25
-2.5185e-27
-1.72081e-29
-2.40135e-32
-2.07583e-35
-1.00912e-42
-4.57059e-47
-1.60576e-48
-5.1187e-50
-1.4601e-51
-3.72772e-53
-8.52352e-55
-1.7494e-56
-3.23076e-58
-5.38702e-60
-8.11948e-62
-1.10597e-63
-1.36198e-65
-1.51416e-67
-1.51751e-69
-1.36947e-71
-1.11918e-73
-5.47361e-75
-2.79551e-74
-1.55976e-73
-8.06467e-73
-3.83966e-72
-1.66988e-71
-6.56834e-71
-2.32242e-70
-7.35186e-70
-2.06935e-69
-5.15303e-69
-1.13937e-68
-2.2517e-68
-4.02029e-68
-6.64151e-68
-1.0398e-67
-1.58375e-67
-2.33903e-67
-3.11854e-67
0.209319
0.112766
1
1
1
1
1
1
1
0.265409
-2.01974e-20
-6.50341e-21
-3.9563e-21
-2.01822e-21
-8.71301e-22
-3.03031e-22
-7.90838e-23
-1.40172e-23
-1.38629e-24
-6.32574e-26
-1.64747e-27
-6.16406e-30
-3.49134e-33
-2.55576e-36
-7.12693e-44
-2.96351e-47
-1.04653e-48
-3.31586e-50
-9.39826e-52
-2.38543e-53
-5.42898e-55
-1.10958e-56
-2.04379e-58
-3.40295e-60
-5.13151e-62
-7.00703e-64
-8.66773e-66
-9.70037e-68
-9.80132e-70
-8.93065e-72
-7.32879e-74
-5.76293e-76
-2.33988e-76
-1.38513e-75
-7.72041e-75
-3.96506e-74
-1.85905e-73
-7.8761e-73
-2.98636e-72
-1.00613e-71
-2.98392e-71
-7.73052e-71
-1.74382e-70
-3.42823e-70
-5.90095e-70
-8.98362e-70
-1.23202e-69
-1.57185e-69
-1.95883e-69
-2.40352e-69
1
1
1
1
1
1
1
1
1
1
1
1
1
1
1
1
1
1
1
1
1
1
1
1
1
1
1
1
1
1
1
1
1
1
1
1
1
1
1
1
1
1
1
1
1
1
1
1
1
1
1
1
1
1
1
1
1
1
1
1
1
1
1
1
1
1
1
1
1
1
1
1
1
1
1
1
1
1
1
1
1
1
1
1
1
1
1
1
1
1
1
1
1
1
1
1
1
1
1
1
1
1
1
1
1
1
1
1
1
1
1
1
1
1
1
1
1
1
1
1
1
1
1
1
1
1
1
1
1
1
1
1
1
1
1
1
1
1
1
1
1
1
1
1
1
1
1
1
1
1
1
1
1
1
1
1
1
1
1
1
1
1
1
1
1
1
1
1
1
1
1
1
1
1
1
1
1
1
1
1
1
1
1
1
1
1
1
1
1
1
1
1
1
1
1
1
1
1
1
1
1
1
1
1
1
1
1
1
1
1
1
1
1
1
1
1
1
1
1
1
1
1
1
1
1
1
1
1
1
1
1
1
1
1
1
1
1
1
1
1
1
1
1
1
1
1
1
1
1
1
1
1
1
1
0.997613
0.984972
0.952376
0.887603
0.780184
0.574856
-1.21592e-29
0.19629
0.187323
0.1715
0.170724
0.165327
0.149348
0.125761
0.0976979
0.0677199
0.0378448
0.00242369
-7.1616e-22
-7.04389e-22
-3.74083e-22
-2.54368e-22
-1.93737e-22
-1.51824e-22
-1.28201e-22
-4.7266e-23
-1.40091e-30
-9.76087e-30
-5.08609e-29
-2.09422e-28
-6.94873e-28
-1.59339e-27
-2.55095e-27
-3.33454e-27
-4.39359e-27
-6.66486e-27
-1.15611e-26
-2.09725e-26
-2.96637e-26
-3.26053e-26
-3.01953e-26
-2.49111e-26
-1.90121e-26
-1.4084e-26
-1.09032e-26
-8.13228e-27
-1.87352e-31
-9.77271e-31
-4.09858e-30
-2.14706e-29
-5.61781e-29
-1.12111e-28
-1.90407e-28
-2.94811e-28
-4.37139e-28
-6.40339e-28
-9.19357e-28
-1.17232e-27
-1.19018e-27
-9.99599e-28
-7.4272e-28
-5.12021e-28
-3.38796e-28
-2.23083e-28
-1.5155e-28
-1.03226e-28
-3.83032e-32
-3.9509e-32
-1.28731e-31
-4.11069e-31
-1.3491e-30
-2.99398e-30
-5.63063e-30
-9.45162e-30
-1.45252e-29
-2.05185e-29
-2.6142e-29
-2.89519e-29
-2.73823e-29
-2.26926e-29
-1.70747e-29
-1.20042e-29
-8.0724e-30
-5.31455e-30
-3.4838e-30
-2.24482e-30
-5.87212e-33
-1.65587e-33
-4.13569e-33
-1.29375e-32
-3.95825e-32
-1.00667e-31
-2.05226e-31
-3.59336e-31
-5.52193e-31
-7.50926e-31
-9.01889e-31
-9.51607e-31
-8.85113e-31
-7.37397e-31
-5.61229e-31
-3.97419e-31
-2.66173e-31
-1.71064e-31
-1.06267e-31
-6.32923e-32
-6.99844e-34
-6.70883e-35
-1.38646e-34
-4.71459e-34
-1.47183e-33
-3.95282e-33
-8.4072e-33
-1.48102e-32
-2.22617e-32
-2.9083e-32
-3.33854e-32
-3.39346e-32
-3.08223e-32
-2.53167e-32
-1.90432e-32
-1.32684e-32
-8.64515e-33
-5.3031e-33
-3.0673e-33
-1.66323e-33
-6.98208e-35
-1.86941e-36
-4.31413e-36
-1.73633e-35
-5.7714e-35
-1.53249e-34
-3.27285e-34
-5.5861e-34
-8.00781e-34
-9.94161e-34
-1.08997e-33
-1.06816e-33
-9.43509e-34
-7.56158e-34
-5.52806e-34
-3.70295e-34
-2.28141e-34
-1.29698e-34
-6.81638e-35
-3.31216e-35
-5.25902e-36
-3.53941e-38
-1.11089e-37
-5.40481e-37
-1.90127e-36
-5.00694e-36
-1.02161e-35
-1.65327e-35
-2.23e-35
-2.63168e-35
-2.77651e-35
-2.63539e-35
-2.24961e-35
-1.72453e-35
-1.18756e-35
-7.36878e-36
-4.14493e-36
-2.13151e-36
-1.01175e-36
-4.47501e-37
-9.08747e-38
-1.71402e-39
-2.07569e-39
-1.1694e-38
-4.2116e-38
-1.0937e-37
-2.13668e-37
-3.24764e-37
-4.15626e-37
-4.74356e-37
-4.87839e-37
-4.46952e-37
-3.60667e-37
-2.55604e-37
-1.601e-37
-8.98435e-38
-4.5981e-38
-2.18475e-38
-9.77182e-39
-4.15008e-39
-7.22737e-41
-6.41612e-41
-2.63783e-41
-1.43823e-40
-4.94226e-40
-1.23565e-39
-2.30395e-39
-3.31873e-39
-4.11618e-39
-4.64695e-39
-4.69437e-39
-4.10625e-39
-3.06622e-39
-1.97124e-39
-1.11817e-39
-5.77031e-40
-2.77798e-40
-1.26349e-40
-5.44554e-41
-2.22827e-41
-4.32074e-45
-5.75044e-44
-1.26231e-43
-5.93818e-43
-1.84972e-42
-4.40448e-42
-7.87194e-42
-1.09089e-41
-1.33762e-41
-1.51235e-41
-1.49456e-41
-1.23016e-41
-8.38136e-42
-4.87675e-42
-2.54676e-42
-1.24258e-42
-5.73414e-43
-2.48949e-43
-1.01485e-43
-3.91761e-44
1
1
1
1
1
1
1
1
1
1
1
1
1
1
1
1
1
1
1
1
1
1
1
1
1
1
1
1
1
1
1
1
1
1
1
1
1
1
1
1
1
1
1
1
1
1
1
1
1
1
1
1
1
1
1
1
1
1
1
1
1
1
1
1
1
1
1
1
1
1
1
1
1
1
1
1
1
1
1
1
1
1
1
1
1
1
1
1
1
1
1
1
1
1
1
1
1
1
1
1
1
1
1
1
1
1
1
1
1
1
1
1
1
1
1
1
1
1
0.975481
0.427148
1
1
1
1
1
1
1
1
1
1
1
0.937441
0.334758
-2.38479e-20
-4.9799e-20
1
1
1