/*--------------------------------*- C++ -*----------------------------------*\
| =========                 |                                                 |
| \\      /  F ield         | OpenFOAM: The Open Source CFD Toolbox           |
|  \\    /   O peration     | Version:  v1912                                 |
|   \\  /    A nd           | Website:  www.openfoam.com                      |
|    \\/     M anipulation  |                                                 |
\*---------------------------------------------------------------------------*/
FoamFile
{
    version     2.0;
    format      ascii;
    class       volScalarField;
    location    "24";
    object      epsilon;
}
// * * * * * * * * * * * * * * * * * * * * * * * * * * * * * * * * * * * * * //

dimensions      [0 2 -3 0 0 0 0];


internalField   nonuniform List<scalar> 
20320
(
4.44127e-05
0.000214373
0.000220234
0.000226036
0.000231735
0.000237286
0.000242632
0.000247704
0.00025242
0.000256685
0.00026039
0.000263408
0.000265593
0.000266763
0.000266686
0.000265035
0.000262399
0.000278375
0.000490408
0.00135307
4.40137e-05
4.39266e-05
4.46719e-05
4.64358e-05
4.97404e-05
5.52424e-05
6.37558e-05
7.63042e-05
9.4203e-05
0.000119095
0.000152979
0.000198202
0.000257394
0.000333268
0.000428193
0.000542742
0.000688405
0.00104365
0.00225111
0.00394489
4.44249e-05
4.49251e-05
4.61365e-05
4.81671e-05
5.14595e-05
5.66281e-05
6.45498e-05
7.65176e-05
9.44673e-05
0.000121193
0.000160568
0.000217676
0.00029878
0.00041094
0.000560666
0.000751967
0.00102567
0.00177429
0.00375805
0.0061454
4.5014e-05
4.65088e-05
4.87931e-05
5.19147e-05
5.63362e-05
6.26996e-05
7.19226e-05
8.53779e-05
0.000105205
0.000134698
0.000178787
0.000244492
0.000341082
0.000479482
0.000669728
0.000920832
0.00132588
0.00248649
0.00510097
0.00820151
4.57431e-05
4.8571e-05
5.22963e-05
5.69042e-05
6.28784e-05
7.08992e-05
8.19329e-05
9.74279e-05
0.000119658
0.000152182
0.000200547
0.000273154
0.00038192
0.00054157
0.00076544
0.00107004
0.00161748
0.00319001
0.0063355
0.0101505
4.65911e-05
5.10946e-05
5.667e-05
6.32406e-05
7.13012e-05
8.15609e-05
9.50267e-05
0.000113211
0.000138487
0.000174577
0.000227342
0.000305997
0.000424424
0.000600868
0.00085277
0.00120902
0.00191277
0.00389173
0.00749684
0.012025
4.753e-05
5.40217e-05
6.18505e-05
7.08854e-05
8.16186e-05
9.47721e-05
0.000111379
0.000132999
0.000162095
0.000202521
0.000260332
0.000345199
0.000472269
0.000662508
0.000937816
0.00134463
0.00221595
0.00459125
0.00860738
0.0138613
4.8525e-05
5.7271e-05
6.77339e-05
7.97459e-05
9.37848e-05
0.000110572
0.000131142
0.000157078
0.000190926
0.000236657
0.000300479
0.000392363
0.000528264
0.000731053
0.00102689
0.00148367
0.00252937
0.00528699
0.00968342
0.015692
4.95344e-05
6.07291e-05
7.41481e-05
8.96206e-05
0.000107613
0.000128841
0.000154316
0.000185628
0.000225382
0.000277657
0.000348805
0.00044903
0.000594867
0.0008105
0.00112598
0.001633
0.00285578
0.00597994
0.0107411
0.0175466
5.05091e-05
6.42445e-05
8.0836e-05
0.000100169
0.000122728
0.000149234
0.000180675
0.00021863
0.000265746
0.0003262
0.000406482
0.000517008
0.000674792
0.000904991
0.00124118
0.00179979
0.00319926
0.00667533
0.011799
0.0194546
5.1395e-05
6.76305e-05
8.74536e-05
0.000110896
0.000138528
0.000171124
0.000209684
0.000255783
0.000312102
0.000382924
0.00047486
0.000598549
0.000771463
0.00101958
0.00137968
0.00199262
0.00356647
0.00738364
0.0128806
0.0214524
5.21375e-05
7.06746e-05
9.35847e-05
0.000121167
0.000154183
0.000193572
0.000240437
0.000296403
0.000364232
0.000448331
0.000555455
0.000696491
0.000889417
0.00116103
0.00155103
0.00222314
0.00396893
0.00812336
0.0140196
0.0235943
5.26872e-05
7.31609e-05
9.87813e-05
0.000130255
0.00016868
0.000215346
0.000271627
0.000339353
0.000421494
0.000522677
0.000649891
0.000814379
0.00103476
0.00133885
0.00176898
0.00250905
0.00442715
0.00892636
0.0152694
0.0259436
5.30067e-05
7.48973e-05
0.000102619
0.000137419
0.000180914
0.000234982
0.000301549
0.000382944
0.000482625
0.000605698
0.000759655
0.000956379
0.00121552
0.00156641
0.00205396
0.00287854
0.00497784
0.00984876
0.0167195
0.0286148
5.30764e-05
7.5747e-05
0.000104767
0.000142021
0.000189823
0.00025092
0.000328176
0.000424891
0.000545528
0.000696233
0.000885621
0.00112692
0.00144173
0.00186226
0.00243676
0.00337801
0.00568749
0.0109931
0.0185292
0.0318185
5.28982e-05
7.56534e-05
0.000105045
0.000143634
0.000194557
0.000261704
0.00034933
0.000462362
0.000607096
0.000791734
0.00102726
0.00132976
0.00172496
0.00225109
0.00296322
0.00408464
0.00667922
0.01256
0.0210162
0.035981
5.24951e-05
7.46516e-05
0.000103467
0.000142128
0.000194637
0.000266211
0.00036294
0.00049215
0.000663113
0.000887695
0.0011814
0.00156617
0.00207616
0.00276286
0.00369843
0.00512457
0.00818311
0.0149656
0.0248831
0.0420871
5.19072e-05
7.28613e-05
0.000100232
0.000137704
0.00019006
0.000263875
0.00036738
0.000511028
0.000708403
0.000977195
0.00134072
0.00183168
0.00250069
0.00342674
0.00472459
0.00669062
0.01062
0.0191217
0.0319145
0.0528603
5.11852e-05
7.0465e-05
9.5694e-05
0.000130861
0.000181323
0.000254845
0.000361831
0.000516322
0.000737431
0.00105106
0.00149251
0.00211233
0.00298995
0.00425625
0.00612024
0.00903393
0.014688
0.027019
0.0473229
0.0784283
5.03827e-05
6.76745e-05
9.02878e-05
0.000122297
0.00016934
0.000240008
0.000346554
0.000506568
0.000745334
0.00109892
0.0016188
0.00238141
0.00351052
0.00522219
0.00790101
0.0123568
0.0212475
0.0422898
0.0868776
0.179624
3.63039
9.58862
14.0528
17.3681
19.2358
20.4078
22.4441
29.4555
48.7539
84.1771
128.161
169.134
238.305
345.927
494.756
713.814
891.875
791.061
890.581
2411.44
5304.35
8449.85
8931.99
4170.78
1997.8
1276.7
915.741
703.214
560.59
458.807
385.258
328.61
282.264
242.034
204.568
171.019
143.696
123.461
109.945
100.085
91.8699
84.0871
76.2978
69.3995
64.1779
60.7844
58.4026
56.5534
54.9667
53.5014
52.0913
50.7187
49.4233
48.26
47.255
46.3979
45.6433
44.8581
43.9371
42.9218
6.83714
3.84022
5.25506
6.50434
7.46873
8.26612
9.41582
12.4669
20.7564
38.057
66.415
104.989
145.747
182.513
225.177
297.024
397.799
498.111
705.045
1514.73
3264.97
5726.96
3768.35
1706.6
880.059
552.748
397.259
310.149
254.353
214.564
184.113
159.606
138.856
120.353
103.44
88.1662
74.9309
64.0788
55.3974
48.5176
42.9835
38.3947
34.5067
31.2922
28.583
26.3211
24.4922
22.9953
21.7368
20.6506
19.6957
18.8471
18.0862
17.3992
16.7786
16.2198
15.7158
15.2482
14.8023
14.3793
8.82608
3.82624
4.78336
5.87917
6.85168
7.76906
9.09662
12.2127
20.1734
36.9722
65.7652
106.915
147.842
186.074
225.619
296.525
434.455
649.071
979.818
1744.5
3272.02
2193.56
1341.76
831.233
549.551
392.11
297.512
236.848
195.757
166.363
144.203
126.626
111.978
99.1963
87.6523
77.1792
67.8156
59.6419
52.5825
46.5505
41.4394
37.0931
33.3746
30.2078
27.553
25.3152
23.4328
21.8472
20.4997
19.34
18.3298
17.441
16.6528
15.9503
15.3233
14.7625
14.257
13.7919
13.3558
12.9473
10.5724
4.34871
5.05324
6.11875
7.15786
8.20911
9.73241
13.0831
21.2953
38.49
67.516
110.705
158.394
204.74
254.841
319.426
489.004
837.094
1445.06
2870.42
2452.61
1306.33
788.643
522.075
373.891
284.911
226.918
186.761
157.751
136.031
119.223
105.769
94.5966
85.0024
76.4922
68.7974
61.8232
55.5251
49.8569
44.8157
40.3866
36.5162
33.1437
30.2313
27.7455
25.6166
23.7903
22.2238
20.8762
19.7098
18.692
17.797
17.0058
16.3053
15.6848
15.1329
14.6349
14.1753
13.743
13.3384
12.295
5.05999
5.64128
6.72335
7.84898
9.02889
10.7218
14.2845
22.8136
40.8272
70.7812
112.721
162.917
221.778
297.807
351.004
520.202
972.495
1915.35
3490.16
1628.05
872.118
532.886
362.192
267.725
210.546
172.749
146.018
126.185
110.897
98.7341
88.784
80.417
73.1955
66.8221
61.0535
55.774
50.9156
46.4457
42.3735
38.7095
35.4427
32.5528
30.0222
27.8237
25.9117
24.2469
22.7985
21.5376
20.4368
19.4705
18.6171
17.8618
17.1956
16.6095
16.0896
15.6178
15.1775
14.7594
14.3665
13.9288
5.90336
6.44918
7.59
8.82179
10.1279
11.9594
15.6688
24.4032
43.3278
75.7192
120.199
173.708
238.178
320.519
402.38
535.657
999.406
2278.84
1844.13
994.212
575.68
367.916
258.097
195.571
157.096
131.548
113.504
100.088
89.6311
81.1558
74.0887
68.0551
62.7882
58.1101
53.861
49.9284
46.2576
42.8295
39.6554
36.7509
34.1219
31.7665
29.6766
27.8337
26.2097
24.7779
23.5159
22.4029
21.4195
20.548
19.7727
19.0837
18.4782
17.95
17.4821
17.0501
16.6381
16.2412
15.867
15.9596
6.89743
7.45869
8.70098
10.0672
11.5067
13.4487
17.2236
25.9636
45.3867
80.6725
131.079
193.987
276.081
391.371
504.36
571.684
981.786
2170.62
1120.5
634.462
390.028
260.457
188.24
145.7
119.032
101.254
88.7884
79.5832
72.4146
66.5801
61.692
57.5011
53.8259
50.5401
47.55
44.7529
42.1069
39.6008
37.2431
35.0499
33.0356
31.2085
29.5693
28.1084
26.8074
25.646
24.6062
23.6716
22.8291
22.0708
21.3916
20.7872
20.2574
19.8008
19.3988
19.0079
18.6211
18.2423
17.8872
18.5321
8.10393
8.69514
10.0789
11.6162
13.2106
15.2474
18.997
27.4935
46.665
83.9483
141.368
218.494
326.1
469.39
637.677
661.301
1030.09
1271.93
734.617
439.84
281.11
193.001
142.37
112.074
92.9676
80.0664
70.9355
64.293
59.244
55.2146
51.9015
49.1122
46.7028
44.5738
42.6374
40.8039
39.0614
37.3793
35.7528
34.1981
32.7377
31.3942
30.1814
29.0969
28.1247
27.2419
26.4297
25.6734
24.9634
24.304
23.7127
23.2065
22.7554
22.3547
21.9474
21.5222
21.1195
20.7376
20.3819
21.8912
9.60211
10.2174
11.7791
13.5342
15.3221
17.4622
21.1131
29.0898
47.0956
84.0049
144.782
228.663
349.91
540.422
684.239
802.266
1315.51
934.706
544.825
332.802
215.824
150.075
112.371
90.022
76.0689
65.7379
58.4638
53.2813
49.5082
46.6715
44.4599
42.6844
41.2219
40.0043
39.0138
38.1974
37.3756
36.4768
35.5116
34.519
33.5386
32.6152
31.7799
31.039
30.3741
29.747
29.1335
28.5156
27.8667
27.161
26.3566
25.542
24.8954
24.274
23.6433
23.0212
22.4855
22.0313
21.6526
26.1441
11.4915
12.1188
13.8902
15.9272
17.9719
20.2618
23.8051
31.0864
47.1774
80.189
138.554
223.141
351.729
565.115
715.922
1050.54
1486.75
782.929
442.781
267.18
172.893
121.215
92.5546
75.833
63.9797
55.589
49.6494
45.4721
42.5202
40.4177
38.8774
37.7166
36.8277
36.1543
35.6455
35.2266
34.8849
34.5271
34.0733
33.5377
32.963
32.3958
31.8653
31.3776
30.9149
30.4388
29.9178
29.3229
28.6187
27.8006
26.927
26.0849
25.3017
24.6109
24.0038
23.3534
22.7466
22.2318
21.828
31.6981
13.8896
14.5184
16.5403
18.9519
21.3565
23.8972
27.4269
34.0632
48.1241
76.6544
128.297
211.52
342.511
546.3
826.934
1481.75
1300.61
663.948
366.844
218.238
141.191
100.724
79.4443
65.3081
55.3571
48.2571
43.2348
39.7213
37.285
35.615
34.4706
33.6824
33.1458
32.7958
32.5554
32.335
32.1698
32.0467
31.8857
31.6586
31.3793
31.0715
30.7497
30.4165
30.0587
29.6472
29.153
28.552
27.8354
27.0466
26.2644
25.5049
24.764
24.1159
23.5313
22.9007
22.2866
21.7552
21.3468
39.0617
16.9407
17.5701
19.9112
22.8279
25.7615
28.7298
32.4703
38.7922
51.3629
76.4921
123.032
204.495
348.267
595.688
1111.5
2197.42
1067.5
546.121
298.896
177.305
116.38
85.9639
69.2561
57.5119
48.8427
42.5853
38.1732
35.102
32.9999
31.5996
30.697
30.1405
29.8284
29.686
29.6274
29.5663
29.5223
29.5176
29.5121
29.4666
29.371
29.2256
29.031
28.7853
28.4794
28.0948
27.6144
27.0311
26.3639
25.6695
24.9998
24.3435
23.699
23.1141
22.5553
21.9612
21.3787
20.8701
20.4807
49.0813
20.8171
21.4632
24.2366
27.8515
31.5912
35.2879
39.6329
46.2464
58.4344
82.3362
128.098
214.525
388.559
776.196
1687.7
1831.76
862.271
436.762
238.424
143.073
97.1874
75.3198
61.5282
51.1387
43.46
37.86
33.8861
31.1225
29.2452
28.0192
27.2677
26.8565
26.6879
26.6837
26.7596
26.8374
26.9106
26.9991
27.0904
27.1527
27.1653
27.1156
26.9954
26.8003
26.5252
26.1627
25.7095
25.1753
24.591
24.0031
23.4372
22.8788
22.3271
21.8016
21.2782
20.7334
20.2056
19.7455
19.3932
62.6273
25.6839
26.4033
29.8056
34.4227
39.4131
44.3712
49.92
57.7346
71.16
97.0129
148.431
254.414
495.375
1116.2
2920.04
1445.74
674.145
340.614
187.312
115.706
83.0673
66.934
54.9548
45.7386
38.8326
33.7558
30.1184
27.577
25.8526
24.738
24.0775
23.7515
23.6682
23.7505
23.9205
24.1075
24.2862
24.4605
24.6259
24.7615
24.8426
24.8525
24.7806
24.6225
24.3778
24.0484
23.6422
23.1779
22.6859
22.197
21.7212
21.2472
20.7728
20.3032
19.8269
19.3426
18.8823
18.4838
18.1785
83.7722
31.7276
32.6133
36.9878
43.0814
50.0129
57.116
64.8406
75.21
92.1478
124.25
189.942
334.07
686.567
1655.41
2381.67
1080.65
512.485
260.913
146.344
94.9778
73.114
59.7156
49.1945
41.0121
34.7702
30.1233
26.7561
24.3831
22.7653
21.7198
21.1081
20.8233
20.7802
20.9061
21.1305
21.3898
21.6479
21.8935
22.1186
22.3088
22.4398
22.494
22.4618
22.341
22.1355
21.8538
21.51
21.1248
20.7224
20.3209
19.9231
19.5217
19.114
18.7015
18.2829
17.8673
17.4799
17.1469
16.8912
115.315
39.3315
40.3354
46.1637
54.4817
64.4636
75.1706
86.778
101.783
125.429
169.874
262.049
468.036
988.751
2388.98
1818.65
810.703
386.152
198.142
115.006
80.1544
64.9517
53.4035
44.1605
36.8319
31.1522
26.8697
23.731
21.4958
19.9582
18.9565
18.3666
18.0923
18.0561
18.191
18.434
18.7281
19.0331
19.3269
19.5953
19.8235
19.9938
20.0864
20.0932
20.015
19.8586
19.6359
19.3628
19.0579
18.7383
18.4144
18.0867
17.7512
17.4066
17.0553
16.7021
16.3587
16.0439
15.7747
15.5675
137.564
48.4462
49.6634
57.6139
69.3471
84.1813
100.912
119.431
142.576
177.672
243.391
381.669
687.734
1429.65
3380.88
1375.02
610.379
288.558
149.823
91.9521
70.0373
57.88
47.92
39.7217
33.0961
27.8918
23.9263
20.991
18.8793
17.4109
16.4413
15.8589
15.5772
15.5261
15.6451
15.8785
16.1754
16.4958
16.8119
17.1044
17.3565
17.5525
17.6789
17.7258
17.6944
17.5934
17.4353
17.2348
17.007
16.7635
16.5106
16.2488
15.9768
15.6957
15.4092
15.1245
14.8526
14.6065
14.3968
14.2352
134.857
58.0223
60.4146
71.4434
88.2578
110.945
137.607
168.386
205.873
260.185
359.887
577.535
1064.62
2228.84
2515.94
1034.43
451.933
211.56
113.295
75.7438
62.1266
51.8544
43.1112
35.7473
29.7099
24.9195
21.2401
18.4948
16.5025
15.1019
14.1627
13.5842
13.2878
13.2107
13.299
13.5037
13.7802
14.0906
14.4057
14.7033
14.9655
15.1772
15.3275
15.4108
15.4274
15.3832
15.2898
15.1594
15.0034
14.83
14.6435
14.4453
14.2363
14.019
13.7983
13.5813
13.3767
13.1934
13.0379
12.9186
145.384
66.6957
71.9902
87.2174
110.936
145.514
184.833
235.754
300.904
392.052
541.355
883.831
1744.12
3507.73
1879.4
753.995
320.751
151.227
86.7198
65.1738
55.4142
46.5826
38.8027
32.1286
26.5995
22.1828
18.7712
16.211
14.3396
13.0111
12.107
11.5352
11.2249
11.1195
11.1712
11.3375
11.5793
11.8627
12.1593
12.4468
12.7068
12.9253
13.0926
13.2045
13.2618
13.2701
13.2373
13.1715
13.081
12.9718
12.8476
12.7105
12.5628
12.4077
12.2502
12.0965
11.9531
11.8258
11.719
11.6383
160.518
72.1782
80.3691
98.2027
123.614
156.62
199.655
260.995
356.471
512.136
774.894
1295.27
2707.65
3682.68
1299.81
503.561
214.437
106.472
68.5959
57.7797
49.731
41.9433
34.9035
28.7996
23.7184
19.6474
16.4934
14.1176
12.3717
11.1221
10.2604
9.70237
9.38373
9.25369
9.27007
9.39576
9.59721
9.84458
10.1122
10.3789
10.6275
10.8451
11.0229
11.1569
11.2477
11.2989
11.3161
11.3054
11.2723
11.2209
11.154
11.0738
10.9833
10.886
10.7863
10.6891
10.5994
10.5212
10.4575
10.4115
159.277
73.9147
82.8267
100.508
123.43
152.737
193.934
254.014
348.102
506.134
793.275
1398.06
2961.95
1875.34
738.438
302.569
136.972
76.1376
57.3375
51.8233
44.8859
37.8325
31.3494
25.7189
21.0388
17.2931
14.3905
12.2002
10.5847
9.42104
8.60975
8.07402
7.75527
7.60787
7.59454
7.68308
7.84478
8.05394
8.28822
8.52868
8.75998
8.97048
9.1524
9.3018
9.4181
9.50336
9.56102
9.59496
9.60878
9.60546
9.58744
9.55713
9.51708
9.47041
9.42079
9.37219
9.32837
9.29247
9.26632
9.25059
137.987
72.6518
81.109
97.5666
118.454
145.433
183.937
240.605
326.11
461.589
695.211
1143
1676.36
830.595
378.819
172.642
87.8584
57.5403
51.1323
46.839
40.6101
34.0916
28.0666
22.854
18.545
15.1106
12.4548
10.4507
8.96942
7.89761
7.14412
6.63887
6.32872
6.17267
6.13765
6.19566
6.32221
6.49554
6.69664
6.90932
7.12035
7.3196
7.50004
7.65774
7.79131
7.90129
7.98945
8.05795
8.109
8.14466
8.16688
8.17762
8.17918
8.17417
8.16554
8.1565
8.15016
8.14904
8.15434
8.16418
108.352
69.7775
77.3653
91.7428
110.498
135.744
172.13
224.71
298.233
400.621
570.486
846.966
708.004
391.458
198.18
101
59.8022
47.261
46.7803
42.6561
36.7481
30.6195
25.0008
20.1808
16.2275
13.0954
10.6821
8.86347
7.51842
6.5425
5.8525
5.38476
5.09124
4.935
4.88669
4.92192
5.0198
5.16207
5.3329
5.51876
5.70861
5.8938
6.06816
6.22775
6.37061
6.49627
6.60517
6.69825
6.77672
6.84185
6.89503
6.93777
6.97191
6.99957
7.0232
7.04545
7.069
7.09598
7.12679
7.15703
76.2755
67.6242
73.0582
84.5794
100.819
124.033
158
205.608
264.896
340.53
481.965
561.847
361.703
206.647
111.883
63.5781
44.7581
42.5172
43.0584
38.8451
33.1422
27.3558
22.1253
17.6886
14.083
11.2463
9.07043
7.4346
6.22556
5.34744
4.72468
4.29971
4.0292
3.8799
3.82573
3.84546
3.92126
4.03787
4.1823
4.34355
4.51247
4.6819
4.84649
5.00251
5.14768
5.28085
5.40165
5.51018
5.60688
5.69241
5.76762
5.83362
5.89177
5.94378
5.99171
6.03787
6.08458
6.1336
6.18454
6.23066
73.6583
62.6358
67.8916
76.828
90.5777
111.501
142.492
183.961
229.92
307.414
406.366
348.083
210.297
120.574
68.4436
43.9936
37.2808
40.6107
39.8192
35.3223
29.7468
24.281
19.4337
15.3763
12.1119
9.56268
7.61742
6.1597
5.08425
4.30378
3.75
3.37106
3.12789
2.99073
2.93643
2.94647
3.00572
3.10157
3.22342
3.36239
3.51117
3.66387
3.81594
3.96402
4.10578
4.23973
4.365
4.48116
4.58813
4.6861
4.7755
4.85704
4.93174
5.00096
5.06643
5.13017
5.19421
5.25992
5.3261
5.38391
91.3254
54.8682
60.4876
68.8387
81.0042
99.9928
128.072
163.203
209.857
291.885
325.949
217.849
130.029
74.7376
45.11
33.8602
34.3562
38.6482
36.6707
31.9449
26.5269
21.3919
16.9296
13.2468
10.3151
8.04339
6.31965
5.03327
4.08722
3.4025
2.91758
2.58588
2.37236
2.25044
2.19968
2.20408
2.25086
2.32968
2.43202
2.55086
2.68038
2.81586
2.95354
3.09047
3.22449
3.35401
3.4779
3.59547
3.70628
3.81021
3.90736
3.99817
4.08332
4.16391
4.2414
4.3175
4.39398
4.47175
4.54878
4.61455
114.85
49.9729
53.6715
62.0136
73.6163
91.5555
117.743
150.021
203.871
265.793
229.286
141.299
82.9126
48.3019
32.3465
29.1227
34.2306
36.5851
33.5775
28.6716
23.466
18.688
14.6159
11.3019
8.69146
6.68488
5.17176
4.04841
3.2262
2.63382
2.21601
1.9311
1.74771
1.64226
1.5969
1.59797
1.63488
1.69926
1.78437
1.88473
1.99584
2.11396
2.23608
2.35973
2.48297
2.60428
2.72252
2.83682
2.9466
3.05152
3.15147
3.24665
3.33753
3.42496
3.51011
3.59441
3.67924
3.76508
3.84915
3.91958
109.598
48.168
49.6913
57.6792
69.6185
87.5977
113.468
147.986
204.724
228.033
155.481
93.4794
53.8445
32.8493
25.7465
27.7025
34.4114
34.1751
30.43
25.5008
20.5698
16.1735
12.4945
9.5402
7.23709
5.48132
4.16646
3.19676
2.49175
1.98738
1.63377
1.39398
1.23983
1.15066
1.11116
1.10991
1.13836
1.18988
1.25931
1.34246
1.4359
1.53678
1.64273
1.75177
1.86226
1.97284
2.08243
2.19018
2.29541
2.39768
2.49678
2.59269
2.68575
2.77656
2.86599
2.95516
3.04503
3.13553
3.22323
3.2955
84.1376
47.2808
47.5937
55.5728
68.829
88.3161
115.949
156.428
202.964
177.002
108.128
62.3804
35.6673
24.1893
22.9458
28.4333
33.3223
31.5895
27.3348
22.4703
17.8566
13.855
10.5656
7.95801
5.94563
4.4248
3.29523
2.46906
1.87468
1.45344
1.16033
0.962362
0.835365
0.761501
0.727758
0.724691
0.74548
0.785123
0.839842
0.906681
0.983114
1.06703
1.1566
1.25032
1.34686
1.44508
1.54404
1.64294
1.74113
1.83815
1.9337
2.02769
2.12026
2.2118
2.30292
2.39431
2.48643
2.57866
2.66702
2.73863
72.6674
42.4731
44.7996
54.1168
70.0854
93.332
125.324
168.724
195.857
130.104
75.1195
41.3046
24.5373
19.8466
22.5953
30.2775
31.626
28.7417
24.2712
19.5941
15.3384
11.7378
8.82709
6.54905
4.80903
3.50638
2.54868
1.85873
1.36726
1.02165
0.783273
0.623628
0.521719
0.462242
0.434189
0.429858
0.443933
0.472769
0.513756
0.564953
0.624748
0.691825
0.764908
0.842967
0.924825
1.00961
1.09656
1.185
1.27436
1.36418
1.45417
1.54414
1.63414
1.72434
1.81503
1.90643
1.99846
2.08985
2.17621
2.245
68.9704
36.9521
41.2341
52.5372
71.941
101.037
140.401
182.914
161.583
93.1394
50.1595
26.9438
18.2326
18.2903
23.9446
30.2043
29.4254
25.7764
21.2785
16.886
13.0217
9.82125
7.2746
5.30574
3.818
2.7173
1.92309
1.35652
0.957057
0.67979
0.491393
0.367168
0.288921
0.243445
0.221421
0.216588
0.22495
0.244055
0.272368
0.30884
0.352662
0.403123
0.459557
0.521291
0.587701
0.658098
0.732
0.80867
0.887705
0.968734
1.05144
1.13565
1.22126
1.30828
1.39665
1.48614
1.57602
1.66431
1.74631
1.81039
63.4485
32.3608
37.8722
50.9922
73.7363
108.828
155.592
186.993
116.669
62.0331
31.2958
17.925
15.2873
18.6239
26.3081
29.1779
26.9445
22.8382
18.4298
14.372
10.9123
8.10332
5.9007
4.21895
2.96335
2.05468
1.40642
0.949611
0.63283
0.417661
0.275385
0.184619
0.129514
0.0984912
0.0834782
0.0793427
0.0832293
0.0937678
0.110409
0.132973
0.161385
0.195558
0.235338
0.280482
0.330698
0.385646
0.444997
0.508418
0.575552
0.646226
0.719961
0.796652
0.876072
0.958045
1.04223
1.1279
1.2137
1.29692
1.37248
1.43011
52.1799
28.5964
35.1246
50.1084
75.8853
116.273
171.356
144.177
75.6182
36.8715
18.6221
13.2384
14.6379
20.3587
27.5986
27.4482
24.1687
19.9162
15.7417
12.0648
9.0127
6.57924
4.6979
3.27936
2.24406
1.50604
0.98667
0.62761
0.385252
0.22681
0.127661
0.0692654
0.0375543
0.0219773
0.0152756
0.0133164
0.0143185
0.0178669
0.0242307
0.0339612
0.0476636
0.0658635
0.0889405
0.117116
0.150469
0.188985
0.232586
0.281173
0.334611
0.392765
0.455462
0.522518
0.593695
0.668575
0.74647
0.826268
0.906006
0.982299
1.04956
1.09885
41.239
25.1621
32.9345
50.7413
79.7156
128.144
166.155
87.9136
42.2162
19.7322
11.8599
11.603
15.5716
23.2299
26.9937
24.9855
21.1968
17.0595
13.2344
9.97193
7.3214
5.24215
3.65683
2.48403
1.64743
1.05918
0.653604
0.381606
0.206312
0.0998885
0.0411782
0.0136019
0.00358636
0.000934747
0.00036541
0.000258458
0.000294626
0.000472884
0.000943659
0.00205542
0.00442394
0.00891266
0.0164824
0.0280013
0.0441349
0.0653478
0.0919458
0.124129
0.162014
0.205657
0.255043
0.310032
0.370348
0.435453
0.504485
0.575903
0.647301
0.714638
0.771593
0.809536
32.1865
22.1283
31.4228
53.3651
94.6229
148.801
96.2999
45.9949
20.5495
10.8485
9.304
11.8721
17.6768
25.2018
25.2695
22.2076
18.252
14.3678
10.9435
8.10112
5.83472
4.08357
2.76909
1.82473
1.1609
0.703824
0.398568
0.203955
0.0888709
0.0293996
0.00594482
0.000592506
7.92174e-05
5.09491e-05
4.78536e-05
4.69461e-05
4.66317e-05
4.69067e-05
4.84362e-05
5.39164e-05
7.42699e-05
0.000154755
0.000465095
0.00148059
0.00412677
0.00966268
0.0193421
0.0341759
0.0548864
0.0819556
0.115661
0.156041
0.202851
0.255481
0.312812
0.373004
0.433164
0.488715
0.532361
0.551823
26.2152
20.0846
32.2114
63.7301
116.564
105.545
48.0347
20.6275
9.94627
7.55561
9.07909
13.367
20.7572
24.6164
22.8662
19.3084
15.4439
11.8996
8.89155
6.4547
4.54608
3.09375
2.03336
1.2873
0.773618
0.431141
0.21401
0.0876612
0.0252467
0.00366422
0.000218927
5.49612e-05
4.89768e-05
4.76569e-05
4.67367e-05
4.60366e-05
4.55465e-05
4.52533e-05
4.51421e-05
4.52239e-05
4.55656e-05
4.63182e-05
4.80842e-05
5.38292e-05
7.88051e-05
0.000201364
0.000758415
0.0027092
0.00773663
0.0177028
0.0340304
0.0574817
0.0881868
0.125635
0.16861
0.214987
0.261423
0.302665
0.330064
0.326914
25.1491
21.0801
40.8601
102.726
106.004
47.028
19.7272
8.98756
6.19916
7.00777
10.1212
15.7952
22.8808
22.8936
20.0889
16.4206
12.8222
9.67397
7.08193
5.02746
3.44598
2.26846
1.4347
0.859666
0.476105
0.233267
0.0928373
0.0249493
0.00306005
0.000157323
5.38334e-05
4.99352e-05
4.85296e-05
4.73715e-05
4.64313e-05
4.56851e-05
4.5124e-05
4.47387e-05
4.45157e-05
4.44567e-05
4.45927e-05
4.49334e-05
4.54428e-05
4.60988e-05
4.69854e-05
4.84776e-05
5.2326e-05
6.89383e-05
0.00016739
0.000746504
0.00321021
0.0100274
0.0232648
0.0435455
0.070096
0.100869
0.132352
0.158999
0.17185
0.155097
37.4215
33.4945
78.3578
116.185
46.6865
18.3228
7.89668
5.06776
5.48179
7.75359
12.0244
19.066
22.1278
20.405
17.1779
13.6608
10.4272
7.69895
5.50987
3.80922
2.5233
1.59917
0.959037
0.530998
0.259634
0.10265
0.0270227
0.003125
0.000151945
5.49667e-05
5.11929e-05
4.96144e-05
4.8285e-05
4.71388e-05
4.61867e-05
4.54089e-05
4.47943e-05
4.43355e-05
4.40263e-05
4.38692e-05
4.38853e-05
4.40845e-05
4.44431e-05
4.49355e-05
4.55715e-05
4.63972e-05
4.74903e-05
4.90013e-05
5.13936e-05
5.69819e-05
8.33008e-05
0.000275845
0.00149238
0.00599526
0.0157433
0.0303411
0.04714
0.0614573
0.0661938
0.0513821
96.2383
125.854
109.103
39.762
14.5303
6.17962
3.97455
4.2822
6.07842
9.29141
14.6968
20.1965
20.1635
17.6474
14.3625
11.1236
8.29149
5.97915
4.16908
2.78964
1.77677
1.06943
0.593959
0.291621
0.116083
0.0308885
0.00360764
0.000169296
5.70222e-05
5.27511e-05
5.09737e-05
4.94501e-05
4.81206e-05
4.69702e-05
4.59994e-05
4.51873e-05
4.45257e-05
4.40067e-05
4.36279e-05
4.33898e-05
4.33018e-05
4.33701e-05
4.35852e-05
4.39345e-05
4.44186e-05
4.50607e-05
4.59106e-05
4.70511e-05
4.86129e-05
5.07668e-05
5.38032e-05
5.86754e-05
7.07185e-05
0.000132704
0.000534751
0.0022264
0.0059196
0.010124
0.0113654
0.00657658
32.7087
50.7921
18.5987
7.57417
3.90956
2.94631
3.33821
4.81722
7.46878
11.5098
17.6545
19.3281
17.8934
14.9443
11.751
8.84756
6.42565
4.51201
3.05148
1.9626
1.19063
0.664399
0.328115
0.132333
0.0363077
0.00451482
0.000210411
6.02161e-05
5.48638e-05
5.28004e-05
5.1026e-05
4.94666e-05
4.81023e-05
4.69185e-05
4.59071e-05
4.50483e-05
4.43345e-05
4.37566e-05
4.33097e-05
4.29911e-05
4.28042e-05
4.27539e-05
4.28394e-05
4.30536e-05
4.33903e-05
4.3859e-05
4.44957e-05
4.53652e-05
4.65551e-05
4.81685e-05
5.03488e-05
5.33348e-05
5.74597e-05
6.32155e-05
7.19308e-05
8.78982e-05
0.000123539
0.000184604
0.000203488
0.0001278
4.95496e-05
6.46994e-05
8.44599e-05
0.000112785
0.000155278
0.000220851
0.000322957
0.00048206
0.000729266
0.00111143
0.00169886
0.00260033
0.00399766
0.0062233
0.00992273
0.016517
0.030444
0.0675252
0.183003
0.798643
4.87047e-05
6.16897e-05
7.85364e-05
0.000102927
0.000140132
0.000198853
0.00029288
0.000444327
0.000688667
0.00108226
0.00171404
0.00272716
0.0043673
0.00709571
0.0118514
0.0207669
0.0401545
0.0931987
0.263764
1.09822
4.78756e-05
5.87158e-05
7.27034e-05
9.31318e-05
0.000124707
0.000175419
0.000258456
0.000395971
0.000625295
0.00100879
0.00164957
0.00271992
0.00452112
0.00762159
0.0131839
0.0237982
0.0462825
0.102627
0.264052
0.666645
4.70913e-05
5.58925e-05
6.7202e-05
8.38682e-05
0.000109898
0.000152214
0.000222589
0.000341548
0.000545149
0.000896312
0.00150352
0.00255407
0.00437999
0.00760145
0.0134531
0.0245411
0.0468889
0.0965919
0.213371
0.466348
4.63739e-05
5.33077e-05
6.22137e-05
7.54883e-05
9.64024e-05
0.00013064
0.000188047
0.000286239
0.000457151
0.000758436
0.00129289
0.00224306
0.00393627
0.00697553
0.012516
0.0228476
0.0426547
0.0819907
0.161734
0.322179
4.57388e-05
5.10178e-05
5.78463e-05
6.81993e-05
8.46536e-05
0.000111658
0.000156968
0.000234668
0.000370786
0.000613331
0.00104983
0.00183892
0.00326804
0.00586099
0.0105856
0.0192462
0.0351708
0.0643801
0.117535
0.210796
4.51942e-05
4.90512e-05
5.41428e-05
6.20758e-05
7.48223e-05
9.57231e-05
0.000130576
0.000189975
0.000293615
0.000478071
0.000810537
0.00141384
0.00251146
0.0045071
0.00812565
0.0146537
0.0262973
0.0466026
0.0807499
0.134925
4.4743e-05
4.74123e-05
5.10947e-05
5.7094e-05
6.68753e-05
8.28509e-05
0.000109186
0.000153482
0.000229777
0.000363923
0.000603004
0.00103233
0.00180557
0.00319604
0.00568241
0.0100841
0.01774
0.0306498
0.0513804
0.0824866
4.43848e-05
4.60898e-05
4.86654e-05
5.31621e-05
6.06211e-05
7.27342e-05
9.2411e-05
0.000124944
0.000179998
0.000274926
0.000440545
0.00073111
0.0012412
0.00213313
0.00368096
0.00633725
0.0108143
0.0181336
0.0295369
0.0461455
4.41181e-05
4.50554e-05
4.67746e-05
5.01574e-05
5.58661e-05
6.49915e-05
7.94957e-05
0.000103127
0.000142482
0.000208758
0.00032121
0.000512507
0.000836787
0.00138131
0.00228561
0.00377162
0.00618034
0.0100026
0.0158823
0.0246011
4.39657e-05
4.42735e-05
4.54848e-05
4.8504e-05
5.38839e-05
6.33668e-05
8.1432e-05
0.00011703
0.000185869
0.000315232
0.00054924
0.000953297
0.0016237
0.00270176
0.0044088
0.0071229
0.0114952
0.0186348
0.0305409
0.0514108
7.01622e-05
5.3079e-05
0.000101135
0.000296022
0.000964409
0.00254425
0.00521811
0.00877864
0.0128561
0.0171948
0.0217868
0.0269266
0.0331844
0.0411052
0.0514839
0.0656013
0.0853291
0.113776
0.15368
0.211184
0.143303
0.0223653
0.0523818
0.0751732
0.0854963
0.0883361
0.088808
0.0893741
0.090848
0.0934309
0.0974102
0.104198
0.116568
0.135321
0.160871
0.194771
0.237874
0.289566
0.360464
0.481544
2.83518
0.911804
0.570409
0.395518
0.304053
0.254097
0.225488
0.208858
0.199676
0.195182
0.194394
0.200922
0.230237
0.271172
0.325797
0.396698
0.478112
0.549211
0.664615
0.835763
0.847878
0.653152
0.472359
0.406208
0.356194
0.317924
0.294747
0.282276
0.275993
0.270127
0.259278
0.26008
0.278019
0.294509
0.325277
0.373943
0.433862
0.487496
0.571866
0.668435
0.28252
0.198187
0.167591
0.171348
0.175202
0.176993
0.178356
0.179947
0.181619
0.183162
0.187081
0.199011
0.210051
0.214896
0.221704
0.23409
0.250801
0.271916
0.309775
0.354545
0.148206
0.0866078
0.0693009
0.0728559
0.0804518
0.0877057
0.09387
0.0990791
0.103754
0.108687
0.115302
0.123962
0.130743
0.133634
0.134931
0.136694
0.13977
0.145512
0.156771
0.171071
0.0796978
0.0419824
0.0308756
0.0326096
0.0374491
0.0428781
0.0479982
0.0527066
0.0571694
0.0616893
0.0664857
0.0711286
0.0743934
0.0757148
0.075669
0.0750709
0.074572
0.0748658
0.0765755
0.0790172
0.0388597
0.0169709
0.0115761
0.012963
0.0158347
0.0191821
0.0225604
0.0258073
0.0289089
0.0318612
0.0345786
0.0367991
0.0381733
0.038567
0.0381429
0.037189
0.035994
0.0348168
0.0337897
0.0327073
0.016267
0.00420482
0.00274561
0.00363939
0.00505093
0.00672581
0.00852305
0.0103078
0.0120086
0.0135548
0.0148533
0.0157884
0.0162591
0.016235
0.0157682
0.0149585
0.0139174
0.012741
0.0114766
0.010101
0.00605538
0.000655588
0.00034835
0.000551169
0.000916492
0.00141892
0.00202297
0.00267717
0.00331881
0.00389455
0.00434896
0.00463308
0.00471501
0.00458958
0.00427942
0.00382736
0.00328549
0.00270441
0.00212541
0.00157996
0.00316168
0.000322298
7.14367e-05
7.76763e-05
0.000108505
0.000161643
0.00023899
0.000336235
0.000441316
0.000538818
0.000612353
0.000648859
0.000642101
0.000594465
0.000516158
0.000421997
0.000327076
0.000243038
0.000176274
0.000128196
0.0033982
0.00024135
4.97039e-05
4.43461e-05
4.53809e-05
4.78151e-05
5.14839e-05
5.62558e-05
6.16427e-05
6.67821e-05
7.06592e-05
7.24879e-05
7.20316e-05
6.96762e-05