/*--------------------------------*- C++ -*----------------------------------*\
| =========                 |                                                 |
| \\      /  F ield         | OpenFOAM: The Open Source CFD Toolbox           |
|  \\    /   O peration     | Version:  v1912                                 |
|   \\  /    A nd           | Website:  www.openfoam.com                      |
|    \\/     M anipulation  |                                                 |
\*---------------------------------------------------------------------------*/
FoamFile
{
    version     2.0;
    format      ascii;
    class       volScalarField;
    location    "24";
    object      k;
}
// * * * * * * * * * * * * * * * * * * * * * * * * * * * * * * * * * * * * * //

dimensions      [0 2 -2 0 0 0 0];


internalField   nonuniform List<scalar> 
20320
(
0.00413919
0.00425436
0.00433155
0.0044073
0.00448107
0.00455234
0.00462046
0.00468463
0.0047439
0.0047972
0.00484325
0.0048806
0.00490754
0.00492195
0.004921
0.00490068
0.00486809
0.00506319
0.00738269
0.0145223
0.00415082
0.0041492
0.00419452
0.00429047
0.00445752
0.00471619
0.00508475
0.00557856
0.00621134
0.0069942
0.00793562
0.00904082
0.0103107
0.011739
0.0133071
0.0149489
0.0166591
0.0202366
0.0314116
0.0380085
0.00417746
0.00421765
0.00430402
0.00444261
0.00465889
0.00498457
0.00545852
0.00612816
0.00705001
0.00828437
0.00988688
0.0118975
0.0143293
0.0171572
0.0202883
0.023473
0.0266527
0.0337122
0.0509255
0.0560711
0.00421534
0.00431977
0.00447382
0.00467886
0.00496061
0.00535185
0.00589489
0.00664594
0.00768155
0.00910054
0.0110194
0.013556
0.0167987
0.0207597
0.0252797
0.0298824
0.0346996
0.0456962
0.0675562
0.0711024
0.0042618
0.00445063
0.00469262
0.00498418
0.0053506
0.00582474
0.00644917
0.00728187
0.0084052
0.00993275
0.0120153
0.0148362
0.0185811
0.0233521
0.0289665
0.0347733
0.0413801
0.0565352
0.0821459
0.0840251
0.00431523
0.00460765
0.00495825
0.00535858
0.00583274
0.0064128
0.00714058
0.00807396
0.00929642
0.0109261
0.013127
0.0161189
0.0201638
0.0254664
0.0318734
0.038686
0.0472272
0.0665936
0.095276
0.0954986
0.00437366
0.00478572
0.00526305
0.00579285
0.00639722
0.00710649
0.0079609
0.00901703
0.0103584
0.0121042
0.0144229
0.0175508
0.0217966
0.0274455
0.0343975
0.0420404
0.0526039
0.0760886
0.107339
0.106021
0.00443475
0.00497861
0.00559759
0.00627549
0.00703167
0.00789405
0.00890006
0.0101039
0.0115884
0.0134725
0.0159256
0.0191909
0.0236025
0.0294969
0.0368262
0.0451644
0.0577659
0.0851578
0.118615
0.115951
0.00449587
0.00517872
0.00594968
0.00679071
0.00771836
0.00875765
0.00994213
0.0113228
0.0129802
0.0150325
0.0176481
0.0210726
0.0256529
0.0317537
0.0393683
0.0483135
0.0629046
0.0939169
0.129341
0.125557
0.00455409
0.00537704
0.00630421
0.00731817
0.0084335
0.00967238
0.0110641
0.0126552
0.0145232
0.0167838
0.0196033
0.0232266
0.0280066
0.0343207
0.0421911
0.0516981
0.0681783
0.102491
0.139744
0.135073
0.00460633
0.00556348
0.00664355
0.00783335
0.00914731
0.0106059
0.0122347
0.0140754
0.0162008
0.0187231
0.021805
0.0256883
0.0307273
0.0373027
0.0454553
0.055517
0.0737458
0.111036
0.150072
0.144742
0.00464963
0.00572746
0.00694862
0.00830869
0.00982498
0.0115191
0.0134144
0.0155482
0.0179883
0.0208425
0.0242673
0.0285
0.0338929
0.0408248
0.0493447
0.0599962
0.0798096
0.119775
0.160634
0.154874
0.0046814
0.00585893
0.00720057
0.00871577
0.010429
0.0123673
0.0145557
0.0170291
0.0198518
0.0231264
0.0270028
0.031712
0.0376022
0.0450481
0.054097
0.0654365
0.0866774
0.129054
0.171885
0.165825
0.00469976
0.00594943
0.00738275
0.00902801
0.0109219
0.0131033
0.0156042
0.0184627
0.0217434
0.025546
0.0300154
0.0353766
0.0419745
0.0501816
0.060035
0.0722739
0.0948524
0.139451
0.184531
0.178186
0.00470375
0.00599322
0.00748288
0.00922383
0.0112705
0.0136802
0.0165009
0.0197826
0.0235981
0.0280515
0.0332894
0.0395368
0.0471423
0.0564881
0.0676012
0.0811644
0.105184
0.151975
0.19977
0.192989
0.00469353
0.00598818
0.00749484
0.00928968
0.0114493
0.014057
0.0171867
0.0209131
0.0253308
0.0305634
0.0367744
0.0442054
0.0532306
0.064275
0.0773862
0.0930978
0.11913
0.168504
0.219868
0.212212
0.00467033
0.00593606
0.00741967
0.00922218
0.011445
0.0142035
0.017608
0.0217735
0.0268364
0.0329634
0.0403637
0.04933
0.0603092
0.0738455
0.0901132
0.109504
0.13916
0.192673
0.249533
0.240149
0.00463626
0.00584234
0.00726551
0.00902891
0.0112587
0.0141051
0.0177239
0.022286
0.0279934
0.0350891
0.0438714
0.0547425
0.0683072
0.0853751
0.106502
0.132221
0.169211
0.231646
0.299652
0.287756
0.00459404
0.00571534
0.00704644
0.00872758
0.0109063
0.0137669
0.0175145
0.0223881
0.0286784
0.0367423
0.0470226
0.0601122
0.0769007
0.0986953
0.126905
0.16304
0.214591
0.298656
0.397375
0.390458
0.00454662
0.00556501
0.00678037
0.00834348
0.0104174
0.0132145
0.016987
0.0220461
0.0287868
0.0377122
0.0494664
0.0649225
0.0854025
0.112996
0.150625
0.202297
0.279582
0.411728
0.604213
0.700688
1.60426
2.12898
2.74634
3.16232
3.38514
3.52199
3.75496
4.50495
6.30209
9.05797
11.9653
14.3698
18.0883
23.232
29.5247
37.6913
43.65
40.1329
43.8421
86.1425
144.805
197.222
204.573
120.93
74.419
55.2796
44.328
37.1922
31.987
27.9876
24.9083
22.4046
20.2525
18.2971
16.3788
14.548
12.9568
11.7029
10.8253
10.1666
9.60476
9.06065
8.49432
7.97464
7.56237
7.28898
7.0953
6.94421
6.81408
6.69323
6.57587
6.46074
6.35066
6.25056
6.16358
6.08886
6.02304
5.95482
5.8743
5.78402
2.45353
5.80911
7.4756
8.65646
9.45773
10.0621
10.8948
12.9284
17.5518
25.1665
34.3856
42.9963
52.5018
64.9374
78.8043
96.2047
115.249
126.027
135.789
199.441
346.536
476.626
333.179
206.531
143.588
110.636
91.0876
78.0855
68.5666
61.1066
54.9712
49.6975
44.9585
40.5558
36.4039
32.6723
29.5208
27.0734
25.2162
23.6362
22.2263
20.9262
19.7031
18.5372
17.6425
16.997
16.5048
16.1077
15.7638
15.4477
15.1453
14.8522
14.5745
14.3236
14.1047
13.9128
13.734
13.5505
13.3498
13.1354
2.91752
7.33932
9.43592
10.9977
12.1522
13.0969
14.3024
16.8147
22.2819
31.6515
44.004
57.2354
69.795
85.1556
101.053
120.624
148.542
180.189
214.908
295.274
434.371
330.966
237.401
177.144
139.839
115.532
98.4841
85.9266
76.3365
68.7628
62.5715
57.3081
52.636
48.3328
44.3528
40.7423
37.5729
34.8956
32.6198
30.6188
28.8295
27.2014
25.7023
24.3487
23.2413
22.3718
21.6802
21.1127
20.6257
20.189
19.7828
19.398
19.0385
18.7148
18.4314
18.1814
17.9483
17.7129
17.4624
17.2018
3.30044
8.55178
10.9812
12.8398
14.2842
15.5165
17.0187
19.8474
25.7841
36.2051
50.4305
66.9256
83.1916
101.18
120.781
139.124
172.846
226.394
295.916
433.242
390.43
266.512
196.555
154.103
127.209
108.929
95.4629
85.0346
76.7399
70.0028
64.4046
59.6185
55.3938
51.5526
48.0163
44.7815
41.8737
39.3013
37.0143
34.9575
33.0953
31.3971
29.8473
28.4686
27.311
26.3672
25.5961
24.9537
24.4009
23.9079
23.4531
23.0252
22.6276
22.2719
21.9621
21.689
21.4328
21.1736
20.8999
20.6187
3.66035
9.67426
12.4295
14.552
16.2497
17.7255
19.4629
22.5045
28.7049
39.8775
55.5497
73.5754
92.1505
113.68
140.066
156.347
189.743
260.303
369.324
508.629
318.944
220.633
166.167
133.631
112.968
98.8206
88.3038
80.0508
73.3841
67.8771
63.2212
59.185
55.5976
52.3385
49.3355
46.5655
44.0317
41.7306
39.6374
37.727
35.981
34.3837
32.932
31.6453
30.5489
29.6368
28.8791
28.2399
27.6859
27.19
26.7318
26.2996
25.8979
25.5416
25.2348
24.9652
24.709
24.4463
24.1686
23.8855
3.98963
10.7878
13.8922
16.2748
18.2036
19.8863
21.8016
24.9668
31.2515
42.9155
60.0873
80.2332
101.202
124.565
151.989
175.792
202.13
275.878
428.556
367.23
250.404
181.117
140.24
115.258
99.2134
88.1688
79.9762
73.5817
68.4272
64.1436
60.4763
57.2561
54.3692
51.7365
49.3063
47.0494
44.957
43.0244
41.241
39.597
38.084
36.6966
35.4384
34.324
33.3669
32.5618
31.8855
31.3082
30.8013
30.3417
29.9129
29.5056
29.1256
28.7925
28.5116
28.2658
28.0255
27.7722
27.5036
27.2325
4.38215
11.9473
15.4335
18.0897
20.243
22.1054
24.1449
27.3476
33.5457
45.3225
63.7927
86.6291
111.352
139.699
174.337
203.675
215.788
282.257
426.973
283.63
200.078
149.759
118.925
99.6647
87.173
78.5429
72.1605
67.2291
63.2855
60.0126
57.2036
54.7345
52.5238
50.5138
48.6655
46.9483
45.3407
43.8382
42.4357
41.1285
39.9154
38.7987
37.787
36.8935
36.1262
35.4785
34.9296
34.4529
34.0233
33.6216
33.2391
32.8742
32.5352
32.2423
32.0027
31.7974
31.5787
31.3384
31.0832
30.8326
4.85643
13.2211
17.1133
20.0653
22.4474
24.4742
26.5921
29.7433
35.6864
47.1292
66.285
91.7892
121.117
155.91
195.622
234.118
234.889
291.744
320.601
225.807
164.433
126.048
102.148
87.185
77.5086
70.8266
65.798
61.8687
58.7751
56.2641
54.1488
52.3277
50.7331
49.3152
48.0427
46.8799
45.7773
44.7443
43.7659
42.8334
41.9502
41.1273
40.3822
39.7323
39.1831
38.7241
38.3303
37.9753
37.6357
37.2951
36.9548
36.6328
36.3549
36.1139
35.9098
35.6887
35.4331
35.1776
34.925
34.6836
5.4434
14.7118
19.0052
22.2757
24.9003
27.0878
29.2528
32.2697
37.7807
48.4256
67.181
93.881
125.355
163.36
212.258
242.974
256.744
327.014
263.291
187.67
138.847
108.193
89.3508
77.8232
70.4885
65.4309
61.1143
57.7623
55.1819
53.1802
51.594
50.3007
49.2232
48.3158
47.5623
46.9696
46.4974
46.024
45.5172
44.981
44.4363
43.9072
43.4261
43.0191
42.6927
42.4315
42.1975
41.9607
41.6959
41.373
40.9684
40.4498
39.8961
39.4764
39.0674
38.6413
38.2017
37.8197
37.4998
37.2417
6.14657
16.5006
21.2119
24.81
27.702
30.0621
32.2641
35.0936
40.0297
49.4791
66.3351
92.0905
123.923
163.658
215.967
243.523
287.734
340.994
228.886
161.33
119.833
94.7545
80.0058
71.4181
65.9663
61.3715
57.6426
54.7219
52.507
50.847
49.6089
48.6655
47.9316
47.3631
46.9453
46.6563
46.4365
46.2759
46.1149
45.9011
45.6419
45.3662
45.108
44.8894
44.7136
44.5631
44.3992
44.1861
43.8907
43.4747
42.9314
42.3153
41.7103
41.1431
40.6475
40.2268
39.7454
39.2836
38.8991
38.6167
7.01116
18.6658
23.8415
27.7781
30.9771
33.5443
35.8043
38.4451
42.7564
50.8437
65.3575
88.2447
119.474
159.1
206.431
252.05
335.371
303.251
200.459
140.374
105.001
84.7578
73.6246
67.5868
62.7112
58.5768
55.1597
52.4784
50.4601
48.984
47.9343
47.1965
46.6812
46.3358
46.1309
46.0176
45.9234
45.8775
45.8735
45.8528
45.7943
45.7077
45.6109
45.5134
45.4142
45.2982
45.1336
44.8874
44.5306
44.0486
43.4789
42.9004
42.3337
41.7715
41.2897
40.868
40.3856
39.9008
39.4892
39.1969
8.08557
21.2917
27.0081
31.3177
34.8766
37.7206
40.1005
42.6216
46.389
53.205
65.514
85.5512
114.929
155.427
206.171
281.529
404.808
261.315
173.627
122.296
93.1792
77.5615
69.6819
64.9176
60.5543
56.5611
53.2147
50.6001
48.6452
47.24
46.2761
45.6482
45.2667
45.0697
45.0103
45.0245
45.0399
45.0759
45.1537
45.2404
45.3056
45.3404
45.3438
45.3142
45.2463
45.1278
44.9365
44.6499
44.2552
43.7651
43.2344
42.7203
42.2151
41.7137
41.2683
40.8482
40.3802
39.9095
39.5086
39.2276
9.44478
24.462
30.8312
35.58
39.5776
42.8192
45.4425
48.0004
51.436
57.3117
67.9469
85.994
114.251
157.498
226.064
342.748
355.195
224.175
149.369
106.875
83.9891
72.7112
67.4762
63.2077
58.8083
54.8109
51.4381
48.7896
46.8129
45.4045
44.4595
43.8783
43.5722
43.4714
43.5159
43.6349
43.7589
43.8851
44.0337
44.1928
44.336
44.4448
44.5067
44.5124
44.4544
44.3242
44.1099
43.8027
43.4071
42.9511
42.4839
42.0373
41.598
41.163
40.7548
40.3478
39.909
39.4778
39.1152
38.8637
11.1482
28.2872
35.4201
40.7198
45.2864
49.1172
52.2111
55.0419
58.4848
63.957
73.8015
91.3016
121.157
172.761
268.278
459.397
302.667
190.703
128.33
94.2788
77.2409
69.8105
66.0244
61.6769
57.1821
53.0916
49.639
46.9079
44.8597
43.4005
42.4295
41.8502
41.575
41.529
41.644
41.8467
42.0696
42.2902
42.5144
42.7374
42.9399
43.0996
43.1999
43.2283
43.1781
43.0452
42.8274
42.5284
42.1642
41.7656
41.3683
40.9871
40.6105
40.2343
39.8643
39.4856
39.0914
38.7171
38.4096
38.1993
13.5809
32.8294
40.8521
46.8989
52.2432
56.9444
60.8603
64.3226
68.25
74.0432
84.2439
103.057
137.615
202.741
331.967
411.195
252.7
161.383
110.726
84.4751
72.6647
68.3574
64.6119
60.0773
55.4851
51.2929
47.74
44.9067
42.7636
41.2265
40.1994
39.5892
39.3098
39.2833
39.4374
39.6984
39.9999
40.3056
40.6049
40.89
41.1459
41.35
41.4844
41.5378
41.5055
41.3884
41.1921
40.9285
40.6181
40.2881
39.9612
39.6433
39.3256
39.0035
38.6772
38.3424
38.0063
37.6993
37.4548
37.2908
16.8673
38.1048
47.177
54.2337
60.6831
66.686
71.9493
76.6139
81.6551
88.641
100.58
122.882
165.207
248.302
413.123
347.496
212.089
136.9
96.5028
77.2441
69.9194
67.1117
63.0583
58.3581
53.6528
49.3615
45.7102
42.7755
40.5332
38.9076
37.8082
37.1453
36.8348
36.7986
36.9626
37.2543
37.6083
37.9795
38.344
38.6867
38.9917
39.2405
39.4137
39.5016
39.5027
39.4221
39.2703
39.0631
38.821
38.5647
38.3082
38.0533
37.794
37.5271
37.2532
36.9755
36.7071
36.4721
36.2923
36.175
19.0384
43.9056
54.3236
62.7365
70.8012
78.7745
86.1684
92.9208
99.9598
109.173
124.433
152.908
206.653
309.746
504.983
292.893
178.751
116.641
85.3474
72.2428
68.5578
65.6532
61.3374
56.4725
51.6558
47.2755
43.5398
40.5174
38.1855
36.4742
35.2979
34.5711
34.2119
34.1438
34.2934
34.5902
34.9699
35.3829
35.7961
36.1871
36.5369
36.828
37.0458
37.1795
37.2292
37.2029
37.1134
36.977
36.8114
36.6317
36.4465
36.2566
36.0587
35.852
35.6395
35.4284
35.2325
35.0698
34.9528
34.8806
18.8592
49.7699
62.0788
72.3084
82.6484
93.6589
104.324
114.528
124.86
137.661
157.939
196.238
268.275
402.407
427.524
246.46
150.003
99.7941
76.8929
69.1002
67.3993
64.0094
59.4097
54.3847
49.4743
45.0274
41.2307
38.1426
35.7395
33.9546
32.7067
31.914
31.4978
31.384
31.5016
31.7826
32.1647
32.5967
33.04
33.4667
33.8548
34.1864
34.4485
34.6347
34.7449
34.7856
34.7699
34.7125
34.6276
34.5262
34.4142
34.2924
34.1605
34.0198
33.8754
33.7359
33.6135
33.5205
33.4628
33.4334
19.8941
55.1397
70.0741
82.5965
95.851
111.199
125.526
141.015
157.541
177.018
203.668
255.632
361.824
528.938
357.889
203.977
124.424
86.0079
70.8032
67.5282
65.9214
62.0772
57.2265
52.0742
47.1021
42.6204
38.7926
35.6664
33.2154
31.375
30.0677
29.2148
28.7414
28.5763
28.6516
28.9026
29.2696
29.7018
30.1582
30.6074
31.0255
31.394
31.7006
31.9398
32.1125
32.2256
32.2891
32.3139
32.3111
32.2887
32.2513
32.2007
32.1386
32.068
31.9951
31.9282
31.8771
31.8499
31.8476
31.8588
21.3309
58.614
75.9951
90.1099
103.994
118.409
134.039
152.793
177.348
210.592
256.094
327.597
479.106
553.467
287.931
162.94
102.118
75.2519
66.7471
66.4503
64.1357
59.8678
54.7963
49.5496
44.5511
40.0699
36.2437
33.1091
30.6361
28.7616
27.411
26.5091
25.9846
25.7695
25.7993
26.0129
26.3539
26.7728
27.2287
27.689
28.1284
28.5283
28.8767
29.168
29.4025
29.5854
29.7247
29.8288
29.9058
29.9612
29.9987
30.0205
30.0296
30.0303
30.0287
30.0322
30.0485
30.0824
30.1319
30.1814
21.2997
59.6648
78.2523
92.8271
105.906
119.161
134.979
154.815
181.214
218.048
272.138
361.504
532.149
381.639
212.972
126.04
84.0293
67.4112
64.4073
65.0122
62.0497
57.4144
52.1493
46.8381
41.8469
37.4001
33.6084
30.495
28.0261
26.1397
24.764
23.8275
23.2621
23.0033
22.9901
23.165
23.475
23.8729
24.3191
24.7812
25.2339
25.6588
26.0436
26.3825
26.6744
26.9225
27.1322
27.3095
27.4598
27.5875
27.6957
27.7875
27.866
27.9356
28.0021
28.0718
28.1505
28.241
28.3388
28.4245
19.4309
58.6255
77.6806
92.3201
105.114
118.202
134.27
155.064
182.213
218.416
269.407
346.626
404.679
251.034
152.636
97.0794
70.5857
62.1267
63.4062
63.1162
59.6278
54.7032
49.3041
43.9712
39.0233
34.6441
30.9174
27.8529
25.4127
23.5356
22.1533
21.1977
20.6039
20.3111
20.2614
20.4007
20.6792
21.0528
21.4837
21.9408
22.3998
22.8426
23.2569
23.636
23.9778
24.2831
24.5551
24.7976
25.014
25.2076
25.3813
25.5378
25.6805
25.8136
25.9423
26.0718
26.2068
26.3486
26.4907
26.61
16.6018
55.7538
75.2967
89.6819
102.268
115.612
132.23
153.556
179.695
210.753
253.06
306.024
258.037
171.515
111.228
76.359
61.2261
58.9543
62.2259
60.9009
56.9056
51.7527
46.2859
40.9825
36.1169
31.8371
28.2031
25.212
22.8223
20.9743
19.6027
18.6431
18.0343
17.7183
17.6404
17.7494
17.999
18.3478
18.7605
19.208
19.6671
20.1206
20.5563
20.9669
21.3488
21.7014
22.0256
22.3234
22.597
22.8485
23.0802
23.2946
23.495
23.685
23.8693
24.0523
24.2378
24.4259
24.6083
24.7577
13.1881
51.0962
71.5606
85.6026
97.8197
111.223
128.043
148.937
171.819
196.57
234.623
245.98
179.401
122.465
83.3492
62.0335
55.0974
57.5779
60.4294
58.2791
53.8971
48.602
43.1346
37.912
33.1668
29.0161
25.4988
22.602
20.2819
18.4799
17.1345
16.1849
15.5733
15.2446
15.1467
15.2316
15.4557
15.7806
16.1736
16.6078
17.0616
17.5187
17.9674
18.3999
18.8116
19.2004
19.566
19.9087
20.2294
20.5297
20.8111
21.0757
21.3263
21.5662
21.7994
22.0298
22.2603
22.4901
22.709
22.8854
12.9471
45.6155
66.2679
80.3826
92.2862
105.46
121.834
140.992
159.332
185.156
211.594
184.905
130.438
89.9678
64.1479
52.4314
51.5506
57.1509
58.2816
55.3854
50.6823
45.311
39.9004
34.8036
30.2121
26.2154
22.8354
20.0506
17.8154
16.074
14.7679
13.8403
13.2363
12.9037
12.793
12.8588
13.0603
13.3621
13.7342
14.1517
14.5952
15.0492
15.5027
15.9476
16.3788
16.7933
17.1894
17.5665
17.9247
18.2645
18.5872
18.8941
19.1877
19.4707
19.7466
20.0188
20.2894
20.5565
20.808
21.0079
15.0085
42.843
60.3353
74.4374
86.3886
99.2807
114.733
131.156
149.266
176.119
181.496
136.632
95.8751
67.0415
51.0235
46.4944
50.1747
56.0096
55.7377
52.2515
47.3245
41.9411
36.6354
31.7007
27.2899
23.4675
20.2407
17.5819
15.4448
13.776
12.5203
11.6242
11.0358
10.7055
10.5867
10.6365
10.8171
11.0958
11.4452
11.843
12.2712
12.7159
13.1664
13.615
14.0563
14.4864
14.9032
15.3051
15.6915
16.0625
16.4185
16.7606
17.0905
17.4106
17.7239
18.0329
18.3391
18.6393
18.9192
19.1391
17.5464
42.4555
56.1388
69.3104
81.2387
93.9146
108.355
122.772
142.675
161.286
141.847
101.26
70.527
50.8633
42.6334
43.4894
50.5204
54.4178
52.9341
48.9389
43.8748
38.5414
33.3833
28.6405
24.4315
20.7987
17.7378
15.2165
13.1886
11.6025
10.406
9.54873
8.9815
8.6575
8.5328
8.56765
8.7271
8.98142
9.30587
9.68033
10.0886
10.5181
10.9588
11.4033
11.8462
12.2833
12.7119
13.1301
13.5367
13.9312
14.3135
14.6844
15.0451
15.3973
15.7433
16.0849
16.4225
16.7515
17.0555
17.2914
17.0757
43.1094
54.3884
66.1275
77.8594
90.3001
103.868
117.929
137.268
140.591
106.698
74.7108
52.0379
40.1122
37.9945
42.7819
50.9243
52.326
49.8628
45.5037
40.3823
35.1532
30.1793
25.6525
21.6615
18.2303
15.3451
12.9708
11.0614
9.56721
8.43759
7.62525
7.08301
6.767
6.6366
6.65544
6.792
7.01947
7.31585
7.66315
8.04688
8.45557
8.88019
9.3137
9.75072
10.1871
10.6199
11.0469
11.4665
11.8779
12.2807
12.675
13.0616
13.4417
13.8164
14.1868
14.5518
14.9051
15.2284
15.4761
14.3777
43.1574
53.5963
64.3975
76.1315
88.5514
101.625
116.319
129.546
113.827
80.1393
54.7471
39.1402
33.7823
36.1983
43.7893
50.124
49.923
46.6544
42.0129
36.8944
31.8119
27.0516
22.7601
18.9989
15.7781
13.077
10.8578
9.07723
7.68455
6.62923
5.86528
5.34996
5.04282
4.90663
4.90825
5.01943
5.21666
5.48082
5.79644
6.15066
6.53318
6.93562
7.35159
7.77594
8.20461
8.63458
9.06351
9.48971
9.91202
10.3298
10.7428
11.1511
11.5551
11.9552
12.3507
12.7388
13.1116
13.4489
13.7037
13.0847
40.3571
51.6651
62.625
75.0261
88.1437
101.347
114.789
118.79
87.8438
59.3024
39.9476
30.9554
30.8297
36.4709
45.7494
48.7069
47.1394
43.3045
38.4988
33.4448
28.5465
24.0223
19.98
16.4579
13.4543
10.9444
8.89574
7.25433
5.96796
4.9901
4.27838
3.79309
3.49719
3.35652
3.34116
3.42588
3.59039
3.8183
4.09664
4.41471
4.76406
5.13732
5.52898
5.93354
6.34728
6.76737
7.19146
7.61781
8.04513
8.47252
8.89934
9.32514
9.74937
10.171
10.5876
10.9945
11.3812
11.7264
11.9832
12.6886
36.7397
48.5379
60.0897
73.3711
87.7521
101.691
112.189
98.0488
65.722
42.5324
29.6159
26.6131
30.2734
38.2387
45.9855
46.7191
44.0777
39.844
34.9844
30.0575
25.3772
21.1087
17.3258
14.0488
11.2696
8.97072
7.09851
5.59937
4.42502
3.53187
2.88011
2.43273
2.15498
2.01496
1.98516
2.04337
2.17258
2.35979
2.59484
2.86953
3.17708
3.51181
3.86881
4.24407
4.63392
5.03607
5.4474
5.8665
6.29208
6.72294
7.15812
7.59639
8.03622
8.47496
8.9082
9.32846
9.72296
10.0688
10.3215
12.0586
33.3474
44.9923
56.8611
70.6637
85.7663
99.7838
104.313
73.3005
46.3322
29.6021
23.4458
25.1371
31.3867
40.8629
45.2616
44.3244
40.8638
36.3451
31.5061
26.7553
22.3216
18.3229
14.8072
11.7808
9.24837
7.16271
5.46968
4.11977
3.06796
2.27321
1.69786
1.30628
1.0638
0.937921
0.90139
0.93456
1.02459
1.16323
1.34465
1.56415
1.81754
2.10096
2.41074
2.74364
3.0968
3.46797
3.85521
4.25678
4.67184
5.09801
5.53425
5.97834
6.42754
6.87744
7.32119
7.74845
8.14333
8.48145
8.72232
10.6335
30.1357
41.3609
53.2869
67.0026
81.6456
95.5865
80.4454
50.135
30.2705
21.1351
20.8325
25.6311
33.7196
42.4443
43.7745
41.4793
37.4759
32.8284
28.0903
23.5588
19.3949
15.6775
12.4332
9.68085
7.39609
5.52462
4.01689
2.82783
1.91638
1.2452
0.779233
0.482341
0.314155
0.233376
0.207782
0.219688
0.262902
0.337318
0.444692
0.586417
0.762697
0.972516
1.21401
1.48491
1.78299
2.10625
2.45309
2.82204
3.21177
3.62064
4.04663
4.48673
4.93637
5.3888
5.83471
6.26052
6.6468
6.96647
7.18369
9.12904
26.836
37.5728
49.5568
62.48
76.9931
83.181
52.1766
30.566
19.2846
17.2151
20.7229
27.4691
36.9994
42.2085
41.4374
38.2341
33.9451
29.318
24.7594
20.4861
16.6101
13.1819
10.2261
7.75466
5.71638
4.06314
2.75127
1.74178
1.00049
0.49753
0.202037
0.0671075
0.0230887
0.0119764
0.0096488
0.0103318
0.0138649
0.0227004
0.0419801
0.0794415
0.14378
0.242023
0.377913
0.552173
0.763814
1.01117
1.29254
1.60627
1.95071
2.32385
2.7227
3.14301
3.57844
4.02029
4.45603
4.86877
5.23451
5.52082
5.69083
7.77154
23.5795
33.6581
45.3862
59.3529
72.3692
51.3581
29.6356
17.4158
14.134
16.5908
22.1642
30.2817
39.3173
40.7681
38.5768
34.7816
30.3716
25.8639
21.5417
17.5551
13.9794
10.8481
8.20167
6.0065
4.21616
2.78934
1.69029
0.889916
0.366422
0.0969472
0.0157109
0.00560179
0.00486675
0.00474134
0.00468764
0.00466113
0.00466015
0.00470081
0.00484827
0.00534819
0.0071404
0.0134257
0.0319615
0.075069
0.155319
0.280715
0.454061
0.674887
0.941169
1.24991
1.59672
1.97533
2.37704
2.79002
3.19846
3.58118
3.9089
4.13963
4.20799
6.80676
20.7848
30.3605
42.5726
55.445
48.6939
27.2567
15.2418
11.4769
13.1797
17.7771
24.6072
33.8693
39.1145
38.4592
35.3499
31.2338
26.8334
22.5138
18.4646
14.7828
11.5144
8.70627
6.36398
4.44373
2.90683
1.72062
0.861219
0.314677
0.0624363
0.00841651
0.00504737
0.00483593
0.00475039
0.00468633
0.00463715
0.00460252
0.00458166
0.00457351
0.00457847
0.00459963
0.00464113
0.00471653
0.00489671
0.00552711
0.00823696
0.0192812
0.0535856
0.131243
0.266664
0.463725
0.718335
1.02173
1.36155
1.72187
2.08233
2.41648
2.68784
2.84078
2.77007
6.65036
19.3783
29.3462
45.2508
42.7765
23.5291
12.8141
9.20966
10.4503
14.2488
19.948
27.8044
36.3831
37.6342
35.5278
31.8739
27.6517
23.3739
19.299
15.5503
12.1846
9.24011
6.76277
4.72066
3.07826
1.80599
0.883961
0.304642
0.0523546
0.00719062
0.00506975
0.00490581
0.0048108
0.00473031
0.00466448
0.00461192
0.00457219
0.00454478
0.00452884
0.00452451
0.00453393
0.00455769
0.00459316
0.00463828
0.00469645
0.00478086
0.00494009
0.00542513
0.0077406
0.0196148
0.0635569
0.168064
0.343305
0.578692
0.853406
1.14112
1.4092
1.6144
1.69184
1.52475
8.70673
21.3911
33.8908
39.0577
20.0736
10.4723
7.34307
8.32115
11.516
16.2492
22.8024
31.6511
35.9954
35.1533
32.1771
28.2668
24.0946
20.0271
16.2428
12.8154
9.77431
7.17875
5.02492
3.28314
1.9273
0.940361
0.319154
0.0521765
0.00709741
0.00515653
0.00499183
0.00488533
0.00479348
0.00471365
0.00464686
0.00459196
0.00454834
0.00451563
0.00449349
0.00448215
0.00448308
0.00449695
0.00452208
0.00455663
0.0046012
0.00465882
0.0047344
0.00483634
0.00498429
0.00524665
0.00605124
0.0105572
0.0347185
0.110333
0.24899
0.428518
0.611239
0.750357
0.784178
0.622764
16.4203
35.722
30.6768
14.8128
7.68389
5.73162
6.70402
9.41088
13.4453
18.8455
26.2606
33.2141
34.1717
32.0956
28.6303
24.6443
20.6243
16.8288
13.3698
10.2789
7.59039
5.33856
3.50484
2.06979
1.01875
0.350311
0.057794
0.00744679
0.00527612
0.0050954
0.00497717
0.00487311
0.00478135
0.00470127
0.00463315
0.00457579
0.00452879
0.00449172
0.00446453
0.00444734
0.00444083
0.00444544
0.00446047
0.00448503
0.00451911
0.00456424
0.00462375
0.00470312
0.00481081
0.00495727
0.00515817
0.00545276
0.00599449
0.00781565
0.0170153
0.049562
0.110081
0.170024
0.183676
0.11279
8.03361
12.8054
6.99792
4.78706
4.53534
5.60461
7.84112
11.274
15.962
21.9866
29.7827
32.5663
31.7293
28.7852
25.0214
21.0776
17.2862
13.8107
10.7059
7.97188
5.64973
3.73194
2.22091
1.10893
0.393452
0.0687481
0.00823437
0.00544127
0.0052299
0.00509631
0.00497765
0.00487195
0.0047784
0.00469638
0.00462567
0.00456517
0.00451452
0.00447327
0.0044412
0.00441821
0.0044046
0.00440074
0.00440657
0.00442159
0.00444535
0.00447846
0.00452337
0.00458444
0.00466746
0.00477901
0.00492793
0.00512854
0.00539939
0.00576378
0.0062722
0.00704171
0.00834312
0.0101383
0.0105536
0.00809747
0.00449683
0.00540165
0.00648657
0.00790593
0.00983054
0.0124914
0.0161783
0.0212676
0.0282596
0.0378195
0.0508305
0.0685167
0.0927495
0.12662
0.17513
0.246394
0.360162
0.571988
0.987774
1.82559
0.00444575
0.00523295
0.00617976
0.00743833
0.00917912
0.0116402
0.0151338
0.0200843
0.0270814
0.0369429
0.0507967
0.0702418
0.0977339
0.137389
0.196317
0.286982
0.436784
0.719148
1.2756
2.40324
0.00439503
0.0050626
0.00586855
0.00695721
0.00849076
0.0107015
0.0139057
0.0185498
0.0252786
0.0350227
0.0491115
0.0694719
0.0990569
0.142756
0.209061
0.312795
0.481953
0.779081
1.31649
1.96174
0.00434651
0.00489732
0.00556588
0.00648469
0.00780147
0.00973154
0.012576
0.0167728
0.0229743
0.0321532
0.0457433
0.0658654
0.0957563
0.140626
0.209222
0.31612
0.485263
0.75881
1.18801
1.74234
0.00430166
0.00474275
0.00528294
0.00604029
0.00714416
0.00878459
0.0112323
0.014889
0.0203659
0.028595
0.0409827
0.0596477
0.0878203
0.13055
0.195925
0.296702
0.451593
0.685479
1.02366
1.47844
0.00426157
0.00460308
0.00502785
0.00563862
0.00654465
0.00790618
0.00995401
0.0130351
0.0176826
0.0247178
0.0353934
0.0516204
0.0763214
0.113973
0.171446
0.259003
0.390534
0.581616
0.845596
1.18289
0.0042269
0.00448096
0.00480561
0.0052887
0.00601956
0.00712773
0.00880059
0.0113229
0.0151331
0.0209023
0.0296489
0.0429264
0.0631099
0.0937943
0.140334
0.210416
0.314042
0.461734
0.660482
0.907723
0.00419799
0.00437759
0.00461827
0.00499448
0.00557659
0.0064647
0.00780528
0.00982355
0.0128637
0.0174438
0.0243314
0.0346723
0.0501898
0.0734512
0.108205
0.159718
0.234757
0.340448
0.481467
0.656509
0.00417489
0.00429306
0.00446586
0.00475552
0.00521441
0.00591723
0.00697523
0.00856225
0.0109435
0.0145053
0.0197981
0.0276066
0.0390558
0.0557539
0.0799801
0.114887
0.164523
0.233292
0.32451
0.438354
0.00415761
0.00422621
0.0043452
0.00456831
0.00492914
0.0054772
0.00629254
0.00751137
0.00933314
0.0120274
0.0159666
0.0216607
0.0297949
0.0412745
0.0573278
0.0796535
0.110504
0.152625
0.209041
0.283068
0.00414648
0.00417426
0.00425444
0.00443015
0.00469568
0.00507334
0.00563405
0.00650136
0.00787964
0.0101245
0.0137997
0.0196846
0.0288155
0.0425632
0.0628886
0.0928561
0.137222
0.203176
0.302123
0.454603
0.00421696
0.00417015
0.00443069
0.00559202
0.0100158
0.021316
0.0413582
0.0689365
0.101447
0.137
0.175437
0.218721
0.270623
0.334468
0.414454
0.516519
0.648272
0.821442
1.04315
1.331
0.258793
0.0690995
0.17708
0.278836
0.348531
0.396497
0.436981
0.47729
0.520054
0.56631
0.618385
0.684765
0.779168
0.90314
1.05526
1.23847
1.452
1.69235
1.99755
2.45138
3.31539
1.58179
1.26138
1.08374
1.00185
0.972495
0.972082
0.989406
1.01919
1.05772
1.10656
1.1844
1.34995
1.5561
1.80463
2.09614
2.40548
2.67615
3.07722
3.61641
1.67429
1.5418
1.38182
1.35221
1.33016
1.31537
1.32346
1.3509
1.39005
1.42663
1.44666
1.5086
1.63235
1.75255
1.9189
2.13654
2.37773
2.59248
2.8997
3.22844
0.909282
0.862726
0.857422
0.921329
0.979601
1.02861
1.07459
1.1204
1.16594
1.21102
1.26602
1.3531
1.43767
1.49792
1.56331
1.64564
1.73922
1.84669
2.0134
2.19537
0.568548
0.528967
0.524068
0.577928
0.643646
0.705459
0.761505
0.812919
0.861759
0.911708
0.969286
1.03589
1.09275
1.12958
1.15604
1.18116
1.20919
1.24744
1.30842
1.37801
0.32644
0.307163
0.30108
0.342342
0.396329
0.451315
0.502709
0.550457
0.595717
0.640221
0.685072
0.727575
0.760403
0.779809
0.788613
0.791359
0.792063
0.79508
0.803755
0.81334
0.160772
0.141489
0.139283
0.171564
0.212302
0.254959
0.29617
0.334781
0.370816
0.404247
0.434382
0.459223
0.476097
0.483809
0.483347
0.476754
0.466232
0.453785
0.440339
0.424224
0.0666842
0.0401315
0.0417566
0.0610156
0.0856411
0.112623
0.140071
0.166288
0.190471
0.211897
0.229631
0.242537
0.249601
0.250466
0.245563
0.235834
0.222391
0.206227
0.187883
0.167222
0.0254494
0.00838264
0.00861165
0.0133821
0.0212132
0.0315358
0.0434338
0.0558227
0.0675708
0.0778326
0.0857984
0.0907886
0.0923692
0.0904665
0.0853855
0.0777248
0.068247
0.0577448
0.0469382
0.0364581
0.0142736
0.00537479
0.00447345
0.00470864
0.00546182
0.006789
0.00871411
0.0111019
0.0136408
0.0159647
0.0177087
0.0185966
0.0185021
0.017479
0.0157431
0.0136123
0.0114225
0.00944865
0.00785838
0.00670457
0.0161136
0.00521398
0.00423525
0.00410571
0.00412089
0.00418899
0.0042973
0.00444159
0.00460883
0.00477517
0.00491205
0.00499687
0.00502185
0.00499589
0.00493886
0.00487247
0.00481294
0.00476843
0.0047402
0.0047249
0.0107374
0.00467477
0.00417552
0.0040982
0.00408863
0.00409051
0.00409557
0.00410392
0.00411696
0.00413581
0.00416076
0.00419109
0.00422511
0.00426049
0.00429474
0.00432571
0.00435195
0.00437266
0.00438746
0.00439641
1.09203
1.86619
2.3769
2.89753
3.39135
3.77538
4.00603
4.10476
4.09027
4.01617
3.94937
3.85837
3.76533
3.69793
3.6998
2.27382
5.68966
7.45158
8.64696
9.63712
10.0954
10.1587
9.92944
9.48842
8.90705
8.24444
7.5518
6.86284
6.18851
5.51159
2.93773
3.37414
4.87061
6.73566
8.18447
8.56349
8.1761
7.48764
6.71113
5.94451
5.23532
4.60765
4.0758
3.65617
3.38252
2.51141
3.03669
3.2586
3.41273
3.44948
3.41543
3.36408
3.25805
3.10827
2.94041
2.77994
2.65422
2.59861
2.66279
2.91327
1.98635
2.50006
2.83837
2.99247
3.02007
2.97465
2.89061
2.78455
2.6669
2.55465
2.47874
2.48607
2.63777
3.00044
3.63564
1.57376
1.96867
2.29157
2.51114
2.62963
2.6593
2.62249
2.54378
2.4594
2.4203
2.49141
2.743
3.23676
4.01727
5.11979
1.20149
1.50863
1.77605
1.97947
2.10544
2.16225
2.17372
2.18194
2.25172
2.45938
2.87517
3.55129
4.52046
5.801
7.41236
0.867192
1.0949
1.30233
1.46761
1.58541
1.68702
1.8212
2.05566
2.45973
3.09079
3.98662
5.16596
6.63964
8.43026
10.5726
0.578048
0.734997
0.889712
1.04679
1.24906
1.54526
1.98649
2.61894
3.48268
4.60252
5.98489
7.64259
9.61926
11.9261
14.1722