/*--------------------------------*- C++ -*----------------------------------*\
| =========                 |                                                 |
| \\      /  F ield         | OpenFOAM: The Open Source CFD Toolbox           |
|  \\    /   O peration     | Version:  v1912                                 |
|   \\  /    A nd           | Website:  www.openfoam.com                      |
|    \\/     M anipulation  |                                                 |
\*---------------------------------------------------------------------------*/
FoamFile
{
    version     2.0;
    format      ascii;
    class       volScalarField;
    location    "24";
    object      nut;
}
// * * * * * * * * * * * * * * * * * * * * * * * * * * * * * * * * * * * * * //

dimensions      [0 2 -1 0 0 0 0];


internalField   nonuniform List<scalar> 
20320
(
0.0347189
0.00759872
0.00766735
0.0077341
0.00779856
0.00786033
0.00791892
0.00797372
0.008024
0.00806895
0.00810758
0.00813878
0.00816122
0.00817319
0.00817241
0.00815552
0.00812827
0.0082882
0.0100026
0.0140279
0.0352308
0.0352731
0.0354464
0.0356779
0.0359517
0.036237
0.0364974
0.0367062
0.0368594
0.0369679
0.0370487
0.037115
0.0371723
0.0372141
0.0372193
0.0370569
0.0362827
0.0353153
0.039448
0.0329587
0.0353542
0.0356365
0.0361365
0.036878
0.0379613
0.0394881
0.041543
0.0441714
0.0473522
0.0509662
0.0547901
0.0585251
0.0618501
0.0644698
0.0660738
0.0659446
0.062333
0.0576491
0.0621084
0.0460437
0.0355272
0.03611
0.0369182
0.0379519
0.039312
0.0411136
0.0434839
0.0465596
0.0504783
0.0553372
0.0611258
0.0676461
0.0744624
0.080893
0.0858794
0.0872756
0.0817308
0.0755815
0.080523
0.0554776
0.0357357
0.0367036
0.0378967
0.0392904
0.0409776
0.043068
0.0456869
0.048983
0.053137
0.0583469
0.064788
0.0725237
0.0813602
0.0906235
0.0986558
0.101703
0.0952767
0.0901754
0.0958591
0.0625999
0.0359706
0.0373961
0.0390432
0.0408644
0.0429428
0.0453791
0.0482908
0.0518235
0.0561649
0.061544
0.068217
0.0764177
0.0862155
0.0971401
0.107218
0.111408
0.104946
0.102557
0.108976
0.0682575
0.0362213
0.0381565
0.0403064
0.042606
0.045127
0.0479593
0.051211
0.0550203
0.0595739
0.06511
0.0719154
0.0803098
0.0905383
0.102328
0.113548
0.118297
0.112388
0.113488
0.120472
0.072983
0.0364767
0.0389515
0.041633
0.0444457
0.047449
0.0507221
0.0543609
0.0584935
0.0633026
0.0690271
0.0759657
0.0844781
0.0949092
0.107114
0.118859
0.123736
0.118734
0.123448
0.130766
0.0771097
0.0367251
0.0397458
0.0429665
0.046309
0.0498225
0.0535751
0.0576487
0.062159
0.0672803
0.0732479
0.0803629
0.0890023
0.0995628
0.111964
0.123881
0.128646
0.124705
0.13275
0.140174
0.0808602
0.0369552
0.0405036
0.0442485
0.0481189
0.0521571
0.056421
0.060978
0.0659286
0.0714338
0.0777208
0.0850862
0.093911
0.104615
0.117141
0.129077
0.13365
0.130763
0.141626
0.148959
0.0844032
0.0371562
0.0411901
0.0454219
0.049799
0.0543615
0.0591602
0.0642487
0.0697095
0.0756862
0.0823926
0.0901131
0.0992231
0.110148
0.122829
0.134783
0.13921
0.137239
0.150281
0.157363
0.0878932
0.0373189
0.0417737
0.0464339
0.0512769
0.056347
0.061693
0.0673575
0.0734038
0.0799551
0.0872053
0.0954197
0.104958
0.11624
0.129195
0.141287
0.145721
0.144437
0.158942
0.165647
0.0914935
0.037436
0.0422279
0.047239
0.0524881
0.0580313
0.0639233
0.0702003
0.0769085
0.0841494
0.0920925
0.100977
0.111138
0.122978
0.136415
0.14889
0.153594
0.152732
0.167923
0.174139
0.095392
0.0375027
0.042533
0.0478023
0.0533802
0.059343
0.0657609
0.0726723
0.0801124
0.0881634
0.0969687
0.106737
0.117773
0.130452
0.144686
0.157928
0.163318
0.162666
0.177706
0.183298
0.0998621
0.0375171
0.0426774
0.0481012
0.0539154
0.0602249
0.0671261
0.0746711
0.0828956
0.0918708
0.101719
0.112618
0.12484
0.138733
0.154211
0.168787
0.175514
0.175074
0.189088
0.19384
0.105349
0.0374801
0.0426583
0.0481271
0.054074
0.0606389
0.0679547
0.0761015
0.0851324
0.0951226
0.106186
0.118482
0.132257
0.147839
0.165171
0.181889
0.190971
0.191232
0.203458
0.20702
0.112645
0.0373954
0.0424816
0.0478862
0.0538556
0.0605689
0.0682037
0.0768826
0.0866962
0.0977469
0.110165
0.124115
0.139838
0.15767
0.177637
0.197606
0.210593
0.212987
0.223249
0.225213
0.123326
0.0372691
0.0421618
0.0473987
0.0532802
0.0600243
0.0678573
0.0769568
0.0874708
0.0995577
0.113398
0.129202
0.147245
0.167925
0.191436
0.216068
0.235169
0.242645
0.25256
0.253214
0.140981
0.0371097
0.0417209
0.0466978
0.0523866
0.0590403
0.0669326
0.0763014
0.0873687
0.100377
0.115597
0.133333
0.153959
0.178008
0.205972
0.236829
0.264823
0.282165
0.297109
0.300312
0.174952
0.0369265
0.041186
0.0458269
0.0512298
0.0576767
0.0654812
0.0749387
0.086351
0.100064
0.116477
0.136041
0.159294
0.186987
0.220046
0.258438
0.298069
0.331095
0.360767
0.378194
0.245995
0.0638025
0.0425431
0.0483046
0.0518207
0.0536149
0.0547043
0.0565392
0.0620092
0.0733166
0.0877224
0.100539
0.109879
0.123567
0.140421
0.15857
0.179118
0.192268
0.183245
0.194246
0.27695
0.355777
0.414291
0.421688
0.315566
0.249493
0.215419
0.19312
0.177035
0.164265
0.153654
0.144936
0.137479
0.130781
0.124489
0.118023
0.111379
0.105146
0.0998399
0.0959281
0.0929451
0.0903738
0.0878683
0.0851115
0.0824723
0.0801998
0.0786653
0.0775804
0.0767413
0.0760251
0.0753614
0.0747108
0.0740695
0.0734428
0.0728606
0.0723537
0.0719146
0.0715315
0.0711441
0.0706843
0.0701495
0.079241
0.790869
0.957101
1.03686
1.07788
1.10234
1.13454
1.20663
1.33577
1.4978
1.60224
1.58474
1.70213
2.07941
2.48209
2.80442
3.00504
2.86974
2.35372
2.36339
3.31025
3.57005
2.65123
2.24948
2.10846
1.99301
1.8797
1.76935
1.66353
1.56625
1.47716
1.39271
1.31009
1.22996
1.15306
1.08968
1.04674
1.02947
1.03303
1.03633
1.03436
1.02648
1.01253
0.988315
0.98007
0.987827
1.001
1.01548
1.02889
1.04001
1.04816
1.05336
1.05702
1.06125
1.06712
1.07405
1.08019
1.08377
1.08358
1.07992
0.0867965
1.26702
1.67524
1.85152
1.9398
1.98705
2.02385
2.08358
2.21497
2.43869
2.64991
2.7576
2.96547
3.50738
4.07345
4.41622
4.57088
4.50201
4.2423
4.49804
5.18978
4.49429
3.78036
3.39762
3.2025
3.06362
2.93407
2.80562
2.6791
2.55796
2.44355
2.33427
2.22677
2.11949
2.01986
1.93568
1.87354
1.83752
1.82123
1.81257
1.8051
1.79527
1.78143
1.76634
1.76439
1.77935
1.80528
1.83626
1.86773
1.89678
1.92159
1.94172
1.95894
1.97626
1.99529
2.01528
2.03359
2.04737
2.05484
2.0569
0.0927283
1.51355
2.1477
2.42492
2.5655
2.63958
2.6784
2.70982
2.80973
3.06502
3.39017
3.64134
3.93244
4.50015
5.15192
5.45355
5.49859
5.51057
5.45374
5.88515
5.59371
4.89355
4.40892
4.09385
3.89522
3.74819
3.61445
3.48457
3.3598
3.24218
3.13124
3.02447
2.91938
2.81392
2.71271
2.62342
2.55254
2.50362
2.47319
2.4541
2.44083
2.4296
2.41909
2.41278
2.41949
2.44258
2.47852
2.5217
2.56686
2.61001
2.64842
2.68103
2.70971
2.73797
2.76765
2.79769
2.82496
2.84644
2.86054
2.86855
0.0980746
1.66467
2.46475
2.83468
3.02774
3.13186
3.17972
3.19093
3.25059
3.5055
3.92363
4.32219
4.69106
5.24432
5.9289
6.26769
6.22878
6.27068
6.40928
6.67114
5.62344
5.02353
4.66334
4.43728
4.29006
4.17438
4.06243
3.94974
3.84096
3.73911
3.64335
3.55085
3.45945
3.36823
3.27825
3.19639
3.12853
3.07823
3.04444
3.0231
3.01003
3.00207
2.99841
3.00206
3.0187
3.05078
3.09566
3.1482
3.20304
3.25573
3.3031
3.34372
3.37946
3.41445
3.45054
3.4863
3.51829
3.54379
3.56188
3.57403
0.102847
1.77424
2.69327
3.14074
3.38064
3.51424
3.57695
3.58041
3.60195
3.82565
4.29144
4.82002
5.3064
5.86316
6.4865
6.91205
6.86467
6.85385
7.25344
6.58152
5.67604
5.12839
4.811
4.63238
4.52979
4.45356
4.37601
4.29309
4.21034
4.13133
4.05596
3.9823
3.90919
3.8367
3.76527
3.69893
3.64326
3.60155
3.57404
3.55848
3.55189
3.55191
3.55813
3.57293
3.60001
3.64081
3.69287
3.75143
3.81134
3.86823
3.91914
3.96263
4.00063
4.03777
4.07586
4.11312
4.14591
4.17214
4.19184
4.20653
0.108291
1.86249
2.87416
3.38484
3.66338
3.82199
3.90133
3.90801
3.90077
4.07326
4.54003
5.15273
5.7526
6.36198
6.9893
7.40251
7.33061
7.30325
7.55892
6.46157
5.6785
5.17525
4.88715
4.74912
4.69403
4.66438
4.62841
4.58143
4.52929
4.47611
4.42328
4.37055
4.31795
4.2665
4.21743
4.17188
4.13426
4.10766
4.0926
4.08774
4.09106
4.10104
4.11769
4.14285
4.17878
4.22589
4.28163
4.34159
4.40116
4.45647
4.50528
4.54684
4.58304
4.61861
4.65514
4.69085
4.7217
4.7467
4.76668
4.7832
0.114539
1.94124
3.03134
3.59518
3.90401
4.08071
4.17399
4.19116
4.16886
4.28383
4.71044
5.36383
6.04241
6.70869
7.33742
7.7359
7.50879
7.43652
7.27291
6.24677
5.53257
5.08672
4.8657
4.80514
4.82434
4.85627
4.8665
4.85647
4.83576
4.80907
4.77932
4.74816
4.71667
4.68664
4.66035
4.63901
4.62212
4.61286
4.61194
4.61847
4.63137
4.65003
4.67491
4.70751
4.74889
4.79861
4.85389
4.9108
4.96545
5.01466
5.05715
5.09334
5.12578
5.15829
5.19157
5.22301
5.25016
5.27343
5.29367
5.31185
0.121818
2.02866
3.18161
3.79135
4.12306
4.30996
4.4104
4.43897
4.41614
4.48139
4.83538
5.47878
6.18482
6.864
7.50302
7.76523
7.39478
7.31612
6.67481
5.818
5.2135
4.88141
4.78775
4.85073
4.96741
5.06526
5.11343
5.13622
5.14353
5.14121
5.13322
5.12179
5.10874
5.09674
5.08933
5.0893
5.09408
5.10063
5.11183
5.12779
5.14825
5.17331
5.20385
5.24098
5.28497
5.33475
5.38732
5.4392
5.48715
5.5283
5.56155
5.5871
5.60852
5.63378
5.65888
5.68378
5.7053
5.72501
5.74459
5.76491
0.130057
2.13239
3.3415
3.98829
4.33637
4.52572
4.62384
4.65616
4.63914
4.67037
4.93873
5.50877
6.19398
6.85347
7.42812
7.45515
7.09271
7.03877
6.02226
5.29034
4.83713
4.67373
4.75258
4.95977
5.1645
5.29827
5.37948
5.42814
5.45672
5.4724
5.48013
5.48261
5.4822
5.48212
5.48615
5.49615
5.50922
5.52478
5.54326
5.56513
5.59032
5.61927
5.65277
5.69132
5.7346
5.7813
5.8286
5.87335
5.91262
5.94382
5.96674
5.98479
6.00261
6.02123
6.04204
6.06727
6.08788
6.1059
6.12558
6.14863
0.139569
2.2576
3.52363
4.19859
4.55692
4.74188
4.82798
4.85007
4.83014
4.83453
5.01529
5.46264
6.07345
6.65136
7.02037
6.91424
6.83154
6.36358
5.44703
4.83429
4.54671
4.57925
4.84344
5.17493
5.41958
5.57854
5.67448
5.73285
5.7692
5.79184
5.80634
5.81585
5.82269
5.82971
5.83993
5.85419
5.87
5.88835
5.90994
5.93442
5.96173
5.99209
6.02584
6.06291
6.10264
6.14375
6.18384
6.22026
6.25062
6.27348
6.29052
6.30663
6.32399
6.34137
6.36243
6.38798
6.40981
6.42926
6.45112
6.47759
0.15063
2.40843
3.73645
4.43328
4.79563
4.97082
5.03744
5.03519
4.99261
4.96017
5.05003
5.354
5.81325
6.24287
6.42213
6.41767
6.71162
5.75707
4.96805
4.50347
4.40718
4.65217
5.08354
5.47659
5.7382
5.89493
5.98476
6.03651
6.06724
6.08625
6.09921
6.10933
6.11858
6.1289
6.14208
6.15809
6.17505
6.19412
6.21653
6.2416
6.26927
6.29933
6.33163
6.36573
6.40085
6.43577
6.46866
6.49754
6.52088
6.53865
6.55367
6.57015
6.58863
6.60802
6.6313
6.65793
6.68224
6.70525
6.73135
6.7621
0.163572
2.58704
3.98594
4.7009
5.06165
5.22341
5.26673
5.23209
5.14871
5.05895
5.0465
5.19561
5.47627
5.74558
5.92563
6.26467
6.19879
5.24532
4.59746
4.31164
4.43744
4.89593
5.44045
5.84397
6.08652
6.22138
6.28973
6.32231
6.33722
6.34432
6.34917
6.35468
6.36228
6.37287
6.38694
6.40369
6.42149
6.441
6.46343
6.4883
6.51542
6.54439
6.57468
6.60562
6.6364
6.66602
6.69317
6.71661
6.73581
6.75175
6.76744
6.78588
6.80696
6.83004
6.85664
6.88566
6.91372
6.94189
6.97374
7.00941
0.178602
2.80388
4.27645
5.00676
5.36207
5.50896
5.52927
5.46203
5.33203
5.17347
5.05293
5.05445
5.19276
5.42248
5.80324
6.50476
5.7027
4.85515
4.3515
4.27076
4.64067
5.28024
5.86144
6.22991
6.43399
6.53278
6.56964
6.57509
6.56764
6.55737
6.54957
6.54673
6.54962
6.55814
6.57165
6.58864
6.60735
6.6277
6.65043
6.67525
6.70173
6.72966
6.75829
6.78684
6.81455
6.84065
6.86437
6.88516
6.90328
6.92028
6.93877
6.9607
6.9858
7.01357
7.04444
7.07727
7.11033
7.14482
7.18338
7.22431
0.198154
3.05726
4.60549
5.35191
5.70181
5.83528
5.83651
5.74279
5.57407
5.35461
5.14072
5.03246
5.10194
5.38819
5.99138
6.38934
5.31822
4.5738
4.22912
4.3886
5.00342
5.75193
6.29187
6.60308
6.75591
6.81003
6.80934
6.78332
6.74999
6.71927
6.69616
6.68262
6.67875
6.68359
6.69553
6.71242
6.73217
6.75392
6.77773
6.80329
6.82997
6.85763
6.88568
6.91331
6.93986
6.96483
6.98784
7.00895
7.02893
7.04945
7.07257
7.09945
7.12977
7.16305
7.19906
7.23694
7.27603
7.31761
7.36329
7.40943
0.222048
3.32247
4.96611
5.7343
6.08313
6.20865
6.19794
6.08762
5.89571
5.63786
5.35963
5.18601
5.24832
5.612
6.42968
5.97575
4.99365
4.36805
4.23005
4.6693
5.48921
6.24092
6.70127
6.94081
7.03402
7.0393
6.9985
6.93932
6.87878
6.82634
6.78664
6.76118
6.74942
6.74963
6.75942
6.77605
6.797
6.82074
6.84661
6.87408
6.9025
6.93135
6.96044
6.98912
7.01682
7.04325
7.06838
7.09265
7.11709
7.1432
7.17247
7.20553
7.24204
7.28145
7.32334
7.36718
7.41301
7.46199
7.51469
7.56558
0.237137
3.58116
5.34791
6.14831
6.50572
6.63434
6.62212
6.50655
6.30734
6.03743
5.72549
5.51336
5.58863
6.0398
6.7884
5.61505
4.71128
4.24336
4.37566
5.10822
6.03986
6.70234
7.06604
7.22583
7.25611
7.2117
7.13081
7.03872
6.95111
6.87688
6.82034
6.78256
6.76251
6.75776
6.76525
6.7817
6.80418
6.83056
6.85957
6.89036
6.92219
6.95442
6.98658
7.01849
7.04976
7.08023
7.11011
7.14003
7.17102
7.20432
7.24091
7.28106
7.32439
7.37038
7.41864
7.46901
7.52188
7.57813
7.6373
7.69212
0.237364
3.84221
5.741
6.58655
6.96559
7.11598
7.11815
7.01067
6.81534
6.55513
6.23811
6.0011
6.08428
6.53878
6.53828
5.28487
4.48095
4.23661
4.69683
5.67353
6.58074
7.11123
7.3683
7.4465
7.41483
7.32245
7.20323
7.07969
6.96611
6.87081
6.79781
6.74794
6.71973
6.71019
6.71565
6.73235
6.75691
6.78675
6.82009
6.85572
6.89272
6.93037
6.96809
7.00551
7.04256
7.07936
7.11619
7.1537
7.19279
7.23436
7.279
7.32675
7.37724
7.43004
7.48493
7.54202
7.60186
7.6649
7.72964
7.78735
0.245006
4.10273
6.13882
7.03983
7.45355
7.64782
7.67237
7.59127
7.42334
7.19339
6.89614
6.65431
6.75555
7.17837
6.13367
4.96635
4.34391
4.40239
5.20271
6.2971
7.05789
7.44532
7.59583
7.59617
7.5067
7.36991
7.21519
7.06239
6.92443
6.80919
6.72055
6.6592
6.62335
6.60956
6.61362
6.63128
6.65877
6.69306
6.73196
6.77393
6.8178
6.86271
6.90798
6.9532
6.99823
7.04319
7.08852
7.1349
7.183
7.2334
7.28641
7.34193
7.39964
7.45929
7.52084
7.5846
7.65104
7.72015
7.78942
7.84894
0.255115
4.2839
6.46732
7.44157
7.87396
8.05683
8.09889
8.05042
7.9409
7.79367
7.61729
7.45695
7.62981
7.4862
5.74033
4.74514
4.37667
4.78675
5.84533
6.87797
7.44413
7.69073
7.7424
7.67249
7.53137
7.35482
7.16799
6.98836
6.82782
6.69394
6.59066
6.51863
6.47588
6.45861
6.46211
6.48167
6.51307
6.5529
6.59858
6.64821
6.70039
6.75405
6.80839
6.86293
6.91746
6.97209
7.02717
7.0832
7.1407
7.20004
7.26135
7.32455
7.3894
7.45581
7.52393
7.59411
7.66668
7.74106
7.81386
7.87425
0.256351
4.33459
6.65375
7.71595
8.17834
8.36688
8.45511
8.49203
8.49028
8.45441
8.40229
8.41286
8.6046
6.98988
5.52807
4.72536
4.6395
5.37164
6.51139
7.3402
7.71991
7.84185
7.80748
7.67692
7.49113
7.27971
7.06418
6.86012
6.6787
6.52747
6.41051
6.32863
6.27976
6.25979
6.26359
6.28597
6.32226
6.36863
6.4221
6.48044
6.54196
6.60538
6.66977
6.73452
6.79936
6.86431
6.92961
6.99562
7.06267
7.13096
7.20055
7.27133
7.34324
7.41635
7.49092
7.5673
7.64555
7.72454
7.80009
7.86067
0.246257
4.25765
6.69574
7.86201
8.39489
8.6463
8.8213
8.99418
9.16295
9.30159
9.39598
9.46063
8.7922
6.82841
5.53507
4.91303
5.10379
6.03707
7.07637
7.65449
7.87965
7.89987
7.79507
7.61406
7.39033
7.14856
6.90736
6.68092
6.48005
6.31247
6.18261
6.0915
6.03709
6.01503
6.01977
6.04565
6.08752
6.1411
6.20301
6.27064
6.34204
6.41571
6.49055
6.56586
6.64126
6.71667
6.79221
6.86809
6.9445
7.02155
7.09928
7.17764
7.2567
7.33665
7.41778
7.50035
7.58412
7.66744
7.74537
7.80585
0.228937
4.00936
6.5955
7.89007
8.51862
8.86184
9.14212
9.44398
9.74452
9.97824
10.1028
9.95145
8.4639
6.76331
5.61836
5.19568
5.64156
6.61867
7.4494
7.82544
7.93081
7.87247
7.71233
7.49033
7.23457
6.96615
6.70163
6.45434
6.23499
6.05167
5.90926
5.80915
5.74934
5.72532
5.73116
5.76071
5.80834
5.86929
5.93975
6.01677
6.09807
6.18197
6.26723
6.35302
6.43887
6.5246
6.61022
6.69581
6.78146
6.86725
6.9532
7.03938
7.12591
7.21305
7.30106
7.39005
7.47946
7.56711
7.64739
7.70782
0.205221
3.4747
6.30843
7.79743
8.54185
8.97617
9.33889
9.70977
10.0302
10.2122
10.2794
9.6922
8.00827
6.53191
5.58833
5.44737
6.10425
7.0176
7.63275
7.86924
7.88847
7.77145
7.56842
7.31313
7.02996
6.73766
6.45143
6.18415
5.94675
5.74773
5.59257
5.48304
5.41733
5.39078
5.39716
5.42985
5.48273
5.55055
5.6291
5.71504
5.80585
5.8996
5.99495
6.09095
6.18704
6.28292
6.37852
6.47382
6.56884
6.66364
6.75827
6.85283
6.94749
7.0425
7.13804
7.234
7.32949
7.42181
7.50467
7.56529
0.204816
2.98982
5.82147
7.56914
8.46243
8.97706
9.3753
9.72539
9.93739
10.0368
9.91589
8.84009
7.28147
6.04175
5.41096
5.62388
6.41541
7.2385
7.67738
7.816
7.77168
7.60999
7.37296
7.0899
6.78255
6.46811
6.16103
5.87404
5.61836
5.40306
5.23421
5.11409
5.04111
5.01061
5.0161
5.05056
5.10741
5.18098
5.2666
5.36061
5.46021
5.56329
5.66832
5.77427
5.88047
5.98653
6.09226
6.19757
6.30244
6.40691
6.51103
6.61492
6.71872
6.82262
6.92666
7.0305
7.13282
7.2304
7.31632
7.37753
0.221985
3.0108
5.4165
7.24423
8.29178
8.87164
9.25058
9.48615
9.55523
9.56411
9.09555
7.7124
6.36231
5.41241
5.19409
5.74586
6.5949
7.3053
7.62466
7.69199
7.59851
7.40068
7.13508
6.82759
6.49793
6.1622
5.83444
5.52743
5.25268
5.01985
4.83561
4.70281
4.62026
4.58342
4.58567
4.61972
4.67861
4.75623
4.84755
4.94855
5.05615
5.16801
5.28244
5.39826
5.51468
5.6312
5.74753
5.86352
5.97909
6.09424
6.20902
6.32351
6.4378
6.55193
6.66576
6.77861
6.88877
6.99239
7.08195
7.14422
0.24126
3.2462
5.28475
6.97193
8.06853
8.6701
8.97438
9.04255
8.98631
8.80831
7.89785
6.53094
5.39924
4.82045
5.05725
5.84492
6.71062
7.28485
7.51046
7.51793
7.38301
7.15374
6.86238
6.53207
6.18086
5.824
5.47524
5.14741
4.85229
4.59999
4.39785
4.24941
4.15405
4.10757
4.10344
4.13424
4.19272
4.27241
4.3679
4.47479
4.58968
4.70995
4.83371
4.95957
5.08659
5.21416
5.34186
5.46947
5.59688
5.72401
5.85088
5.97751
6.10387
6.22983
6.35496
6.47819
6.59727
6.70775
6.80155
6.86533
0.239439
3.47239
5.35766
6.82319
7.83683
8.37772
8.5573
8.45791
8.2835
7.80121
6.58988
5.37394
4.52628
4.40828
5.04622
5.94625
6.78251
7.21053
7.35349
7.30772
7.13501
6.87652
6.56057
6.20791
5.83518
5.45689
5.08645
4.73663
4.41932
4.14507
3.92183
3.754
3.6418
3.58167
3.56745
3.59177
3.64719
3.7269
3.82508
3.93691
4.05858
4.18713
4.32036
4.45666
4.59489
4.73428
4.87431
5.01469
5.15521
5.29578
5.43636
5.57682
5.71701
5.85655
5.99459
6.1296
6.2587
6.37678
6.47531
6.54098
0.221123
3.54542
5.43204
6.71612
7.5788
7.99085
8.01635
7.78447
7.44173
6.58802
5.34557
4.32431
3.86561
4.24619
5.13943
6.06947
6.78577
7.10068
7.16657
7.06965
6.86063
6.57377
6.23356
5.85847
5.46387
5.0636
4.67059
4.29732
3.95569
3.65663
3.40869
3.21723
3.08366
3.00551
2.9773
2.99188
3.04169
3.11954
3.21912
3.33511
3.46324
3.6001
3.74307
3.8903
4.0404
4.19242
4.34576
4.50002
4.65496
4.81045
4.96632
5.12239
5.27821
5.43307
5.58566
5.73378
5.87384
6.00009
6.10364
6.1714
0.212048
3.45119
5.36244
6.52238
7.22835
7.49194
7.37618
7.02852
6.48429
5.33794
4.21342
3.47717
3.51471
4.31018
5.29805
6.22146
6.75117
6.95823
6.95373
6.80787
6.56326
6.24833
5.88376
5.48598
5.06913
4.64627
4.22967
3.83168
3.46407
3.13755
2.8612
2.64165
2.48195
2.38129
2.33531
2.33728
2.37942
2.45401
2.55403
2.67353
2.80764
2.95258
3.10532
3.26378
3.42618
3.59142
3.75881
3.92789
4.09838
4.27008
4.44277
4.61604
4.7892
4.96104
5.12962
5.29197
5.44369
5.57835
5.68684
5.75662
0.21009
3.28757
5.1422
6.18552
6.73468
6.85927
6.62878
6.19295
5.35467
4.1738
3.24586
2.92977
3.49612
4.50966
5.49592
6.30109
6.67589
6.78358
6.71473
6.52325
6.24427
5.90153
5.5126
5.09192
4.65251
4.20653
3.76614
3.34311
2.94838
2.59237
2.28466
2.03328
1.84353
1.71683
1.65028
1.63757
1.67052
1.74062
1.84006
1.96213
2.10139
2.25352
2.41527
2.58414
2.75836
2.93663
3.11827
3.30255
3.48925
3.67812
3.86879
4.06064
4.25253
4.4427
4.62841
4.80575
4.96937
5.11216
5.22492
5.29611
0.206258
3.09278
4.8106
5.70649
6.09472
6.08324
5.75938
5.23716
4.14478
3.11447
2.52001
2.76002
3.72
4.76061
5.71229
6.31899
6.56234
6.58048
6.45078
6.21606
5.90398
5.53391
5.1207
4.67717
4.21512
3.74653
3.28308
2.83544
2.41381
2.02823
1.68881
1.40531
1.18577
1.03412
0.948424
0.921641
0.944454
1.00761
1.10298
1.22377
1.36438
1.52032
1.68805
1.86482
2.04863
2.2381
2.4324
2.63098
2.83348
3.03972
3.24888
3.46012
3.67168
3.88102
4.08445
4.27694
4.45207
4.60188
4.71712
4.78783
0.195027
2.85821
4.3834
5.10003
5.32436
5.15974
4.79883
4.03971
2.99156
2.23661
2.15885
2.95047
4.03925
5.02642
5.87481
6.28305
6.40697
6.34659
6.16155
5.88619
5.54236
5.14566
4.7086
4.24249
3.75867
3.26896
2.78404
2.31383
1.86812
1.45728
1.0931
0.788971
0.55756
0.404163
0.320891
0.291792
0.303362
0.348162
0.422627
0.524056
0.649335
0.794881
0.957055
1.13259
1.31885
1.51395
1.71664
1.92618
2.14204
2.36373
2.59037
2.82051
3.05168
3.28026
3.50118
3.70817
3.89344
4.04785
4.16161
4.2267
0.18188
2.57592
3.8578
4.356
4.40739
4.16341
3.74781
2.78701
1.99178
1.69625
2.24896
3.331
4.3611
5.30376
5.9399
6.18499
6.20689
6.07896
5.84529
5.5328
5.15903
4.7367
4.27653
3.78881
3.28519
2.7766
2.27327
1.78523
1.32343
0.901886
0.541022
0.270088
0.113014
0.0513272
0.0353275
0.032419
0.0326081
0.0365866
0.0491467
0.0771665
0.128389
0.208753
0.319843
0.459037
0.621743
0.803503
1.00084
1.21132
1.43326
1.66526
1.90565
2.15197
2.40062
2.6466
2.88342
3.10306
3.2959
3.45071
3.55519
3.60046
0.168882
2.26133
3.24472
3.47402
3.35066
3.1677
2.4651
1.71854
1.3284
1.65731
2.6626
3.72408
4.66875
5.52048
5.91953
6.03106
5.96528
5.77811
5.5014
5.15533
4.75367
4.30703
3.82484
3.31779
2.79699
2.27307
1.75689
1.26076
0.802012
0.411022
0.14229
0.037493
0.0356513
0.0418393
0.0422795
0.0421262
0.0419318
0.0416685
0.0410598
0.039237
0.0346612
0.0296513
0.0348798
0.0620957
0.122901
0.224695
0.366666
0.54294
0.74686
0.972745
1.21567
1.47049
1.73118
1.99047
2.23961
2.46837
2.66466
2.81382
2.89707
2.88796
0.159063
1.93584
2.57544
2.55951
2.37357
2.02187
1.39198
1.01361
1.19188
2.06912
3.13272
4.07694
4.97378
5.59364
5.82168
5.82469
5.68505
5.44582
5.13054
4.75385
4.32635
3.85694
3.355
2.83153
2.29727
1.76385
1.24502
0.761486
0.352996
0.0957493
0.0291211
0.0417173
0.0429746
0.0426163
0.0422913
0.042038
0.0418581
0.0417483
0.0417023
0.0417171
0.041788
0.041854
0.0416376
0.0400898
0.0348887
0.0303245
0.0441167
0.0953888
0.200376
0.361517
0.568717
0.807917
1.06539
1.32799
1.58257
1.81523
2.01032
2.14827
2.20049
2.11248
0.158274
1.60326
1.89691
1.79396
1.55357
1.05949
0.749126
0.849352
1.5855
2.60749
3.5384
4.40498
5.2068
5.56793
5.65486
5.56832
5.3669
5.08278
4.73328
4.32884
3.87752
3.38739
2.86901
2.33301
1.79123
1.2584
0.757507
0.334783
0.0806163
0.029579
0.0429697
0.0433768
0.042921
0.0425114
0.0421734
0.0419017
0.0416949
0.0415513
0.0414671
0.0414428
0.0414885
0.0416066
0.041783
0.0420018
0.0422492
0.042434
0.0419754
0.038424
0.0322153
0.0463851
0.113249
0.253516
0.455934
0.692139
0.935105
1.16185
1.35039
1.47526
1.49903
1.34907
0.182319
1.22952
1.31924
1.18169
0.776785
0.538686
0.614545
1.22968
2.17732
3.0648
3.89169
4.72889
5.26985
5.45052
5.42459
5.26403
5.01087
4.68865
4.30949
3.88038
3.40757
2.90031
2.36954
1.82696
1.2876
0.775306
0.339246
0.0784047
0.029837
0.043537
0.0438078
0.0432935
0.0428284
0.0424208
0.042077
0.0417924
0.0415648
0.041393
0.041276
0.041215
0.0412169
0.041285
0.0414108
0.0415853
0.0418111
0.042102
0.0424784
0.0429604
0.0435051
0.043478
0.0395624
0.0363644
0.0726915
0.182745
0.354414
0.544688
0.713303
0.824527
0.836093
0.679324
0.25215
0.91253
0.776289
0.496648
0.365704
0.478449
1.01771
1.86139
2.67668
3.44015
4.22307
4.916
5.21206
5.25357
5.13648
4.91392
4.61711
4.26292
3.85881
3.4087
2.91837
2.39849
1.86133
1.32213
0.804662
0.357564
0.083327
0.0294804
0.0439367
0.0442963
0.0437383
0.0432202
0.0427576
0.0423497
0.0419994
0.0417022
0.0414568
0.0412619
0.0411179
0.0410257
0.0409888
0.0410092
0.0410833
0.0412067
0.0413793
0.0416085
0.0419102
0.0423102
0.0428476
0.0435661
0.0445068
0.0456056
0.0457313
0.0414274
0.0487268
0.0992971
0.184237
0.256986
0.267153
0.174094
0.177583
0.290557
0.236972
0.272298
0.473516
0.95952
1.65762
2.37465
3.07022
3.78
4.52182
4.93845
5.06373
4.99006
4.79501
4.5192
4.18528
3.80454
3.38049
2.91429
2.4128
1.88661
1.35294
0.83634
0.383731
0.0942156
0.0290025
0.0442517
0.0448686
0.0442708
0.0437018
0.0431853
0.0427209
0.0423083
0.0419481
0.0416368
0.0413737
0.0411575
0.0409881
0.0408655
0.0407914
0.0407679
0.0407945
0.0408687
0.0409884
0.0411567
0.0413855
0.0416958
0.042115
0.0426732
0.0434093
0.0443833
0.0456635
0.047297
0.0492229
0.0507714
0.0507104
0.0501108
0.0492609
0.0461755
0.0367296
0.0405878
0.0448356
0.0498764
0.0560127
0.0635869
0.07294
0.0844457
0.098557
0.115822
0.136878
0.162483
0.193669
0.231861
0.278185
0.330805
0.383474
0.436064
0.479844
0.375573
0.0365226
0.0399505
0.0437637
0.04838
0.0541139
0.0613242
0.0703799
0.0817061
0.0958463
0.113494
0.135485
0.162826
0.196843
0.239413
0.292675
0.356927
0.427605
0.499423
0.55521
0.47331
0.0363122
0.0392858
0.0426333
0.0467751
0.052029
0.0587568
0.0673349
0.0782087
0.0919735
0.109431
0.131595
0.1597
0.195329
0.240651
0.298363
0.370015
0.451685
0.532288
0.59073
0.519552
0.0361064
0.0386194
0.0414886
0.0451256
0.0498432
0.0559952
0.0639473
0.0741311
0.0871385
0.103808
0.125253
0.15287
0.18841
0.234142
0.292843
0.366483
0.451988
0.536498
0.595311
0.585865
0.0359121
0.0379764
0.0403745
0.0434989
0.0476494
0.0531628
0.0603828
0.0697021
0.0816561
0.0970295
0.116918
0.142755
0.176339
0.219898
0.276029
0.346771
0.430299
0.515782
0.583115
0.610598
0.0357353
0.0373782
0.0393306
0.0419573
0.0455376
0.0503834
0.0568106
0.0651651
0.0758948
0.0896538
0.107391
0.130414
0.160416
0.19947
0.249908
0.313695
0.39028
0.472894
0.547521
0.597401
0.0355799
0.0368413
0.0383883
0.0405525
0.0435853
0.0477671
0.0533828
0.0607386
0.0701969
0.08225
0.0976082
0.117298
0.142729
0.17567
0.218127
0.271929
0.337525
0.411734
0.486208
0.549612
0.0354486
0.0363765
0.0375686
0.0393217
0.0418517
0.0453986
0.0502172
0.0565875
0.0648141
0.0752515
0.0883603
0.104807
0.125563
0.151925
0.18544
0.227674
0.279592
0.340342
0.406048
0.470262
0.0353426
0.0359891
0.0368835
0.0382857
0.0403673
0.0433253
0.0473845
0.0528084
0.0598813
0.0688776
0.0800753
0.0938178
0.110605
0.131152
0.156403
0.18745
0.225265
0.270121
0.320874
0.374769
0.0352625
0.0356779
0.036329
0.0374472
0.0391414
0.0415435
0.0448282
0.0492391
0.0550224
0.062365
0.0714296
0.0823925
0.0954795
0.110998
0.129411
0.1514
0.177821
0.209593
0.247625
0.293136
0.0351956
0.0354208
0.0358147
0.0364168
0.0368282
0.0365569
0.0350823
0.0325052
0.0300641
0.0292657
0.0312045
0.0365818
0.0460244
0.0603481
0.0807359
0.108945
0.147426
0.199371
0.268984
0.361787
0.0228107
0.0294864
0.0174696
0.00950728
0.00936165
0.0160729
0.0295021
0.0487207
0.0720456
0.0982397
0.127142
0.159898
0.198627
0.244937
0.300279
0.366018
0.443261
0.533759
0.637267
0.754981
0.0420625
0.019214
0.053877
0.0930844
0.127872
0.160171
0.193515
0.229401
0.267931
0.30893
0.35331
0.40501
0.468733
0.542484
0.622995
0.70874
0.797678
0.890174
0.99627
1.12312
0.348925
0.246967
0.251041
0.267255
0.2971
0.334979
0.37716
0.421832
0.468196
0.515872
0.566899
0.628365
0.712367
0.80366
0.899648
0.99683
1.08922
1.17361
1.28229
1.40836
0.297556
0.327556
0.363809
0.405116
0.447057
0.489794
0.534833
0.581858
0.630098
0.678108
0.726453
0.78756
0.862565
0.938612
1.01881
1.09865
1.17278
1.2408
1.32328
1.40336
0.263385
0.337996
0.394804
0.445854
0.492948
0.538001
0.582693
0.627831
0.673652
0.720626
0.771069
0.827994
0.885602
0.939708
0.992101
1.04119
1.08548
1.12875
1.17775
1.22345
0.196297
0.290766
0.35668
0.412596
0.463448
0.510691
0.555983
0.600282
0.644186
0.688295
0.73335
0.77908
0.821979
0.859338
0.891413
0.918558
0.941491
0.962465
0.982821
0.999017
0.120338
0.202261
0.264234
0.323458
0.377497
0.427529
0.473861
0.517397
0.558675
0.597987
0.635312
0.669813
0.699513
0.722833
0.739695
0.75079
0.757157
0.759942
0.759277
0.753468
0.0598635
0.106165
0.150825
0.204357
0.256178
0.304991
0.349926
0.390859
0.428082
0.461609
0.49111
0.515766
0.534408
0.546229
0.551248
0.550069
0.543522
0.532296
0.516455
0.495209
0.0246026
0.034472
0.0571551
0.0920651
0.130688
0.169727
0.207179
0.241434
0.271899
0.298124
0.319508
0.33532
0.344858
0.347765
0.34418
0.334633
0.319828
0.300423
0.276823
0.249152
0.00962627
0.00964657
0.0191602
0.029242
0.0441901
0.0630799
0.0839284
0.104758
0.123816
0.139994
0.152341
0.160116
0.16286
0.160489
0.15333
0.142057
0.127588
0.110967
0.0932938
0.0757157
0.00579951
0.00806694
0.025212
0.0256889
0.0247439
0.0256623
0.0285962
0.0329909
0.0379467
0.0425716
0.046091
0.0479686
0.0479824
0.0462538
0.0432155
0.0395184
0.0359017
0.0330604
0.0315297
0.031558
0.00687666
0.0101376
0.0324796
0.0342108
0.0336784
0.0330291
0.0322821
0.0315611
0.0310128
0.0307298
0.0307326
0.0310008
0.0315099
0.0322391
0.0331518
0.0341719
0.035189
0.0360929
0.0368123
0.0373272
0.0073342
0.0196724
0.0350065
0.0351342
0.0350663
0.0350415
0.0350208
0.0350069
0.0350133
0.0350556
0.0351451
0.0352844
0.0354649
0.0356689
0.0358743
0.0360616
0.0362179
0.0363375
0.0364197
0.0364676
0.0586548
0.0766849
0.0865465
0.0955587
0.103383
0.109081
0.112365
0.113742
0.113541
0.112508
0.111568
0.110275
0.108936
0.107956
0.107981
0.226519
0.289284
0.464231
0.629791
0.731773
0.776615
0.79382
0.793355
0.780723
0.759625
0.732711
0.702478
0.670929
0.639544
0.609642
0.40913
0.279829
0.333648
0.452421
0.564915
0.625178
0.641278
0.634986
0.618651
0.598934
0.579466
0.562893
0.552599
0.554893
0.582737
0.491775
0.40678
0.357758
0.349534
0.359909
0.378637
0.402213
0.425216
0.446684
0.467563
0.490348
0.520563
0.568789
0.651988
0.790743
0.566513
0.511057
0.476855
0.461925
0.462458
0.473081
0.488981
0.508588
0.530798
0.557841
0.59782
0.665604
0.779257
0.948987
1.16874
0.608412
0.591764
0.577296
0.574856
0.583915
0.597621
0.61132
0.626961
0.651277
0.697909
0.785111
0.925039
1.11237
1.33223
1.57821
0.593905
0.618142
0.632298
0.646426
0.663182
0.678308
0.696171
0.729324
0.796102
0.910814
1.07127
1.26433
1.48276
1.72607
1.99559
0.52842
0.576386
0.61358
0.644595
0.673666
0.711425
0.775226
0.878844
1.02231
1.19693
1.39779
1.62389
1.87406
2.14663
2.44091
0.430633
0.485707
0.538838
0.599917
0.683118
0.796895
0.94124
1.113
1.31021
1.53074
1.77084
2.02844
2.30582
2.59946
2.86672
0.351983
0.432419
0.539611
0.67534
0.837557
1.02245
1.22688
1.44824
1.68535
1.93561
2.19702
2.46438
2.68778
2.85432
2.92281
0.48662
0.638768
0.808354
0.992227
1.18866
1.39799
1.62228
1.86366
2.12462
2.36953
2.55032