/*--------------------------------*- C++ -*----------------------------------*\
| =========                 |                                                 |
| \\      /  F ield         | OpenFOAM: The Open Source CFD Toolbox           |
|  \\    /   O peration     | Version:  v1912                                 |
|   \\  /    A nd           | Website:  www.openfoam.com                      |
|    \\/     M anipulation  |                                                 |
\*---------------------------------------------------------------------------*/
FoamFile
{
    version     2.0;
    format      ascii;
    class       volScalarField;
    location    "24";
    object      p;
}
// * * * * * * * * * * * * * * * * * * * * * * * * * * * * * * * * * * * * * //

dimensions      [1 -1 -2 0 0 0 0];


internalField   nonuniform List<scalar> 
20320
(
419208
429463
429490
429543
429615
429703
429807
429922
430047
430178
430313
430447
430579
430705
430822
430928
431021
431098
431160
431202
399285
409198
409234
409289
409361
409451
409555
409671
409797
409928
410063
410198
410330
410456
410573
410678
410768
410842
410895
410930
379959
389561
389598
389653
389727
389817
389921
390037
390162
390294
390428
390563
390694
390819
390934
391038
391127
391199
391249
391283
361233
370536
370572
370627
370700
370789
370893
371008
371132
371263
371396
371529
371659
371782
371895
371997
372085
372157
372206
372242
343093
352105
352140
352194
352265
352353
352456
352569
352692
352821
352952
353083
353211
353331
353442
353541
353628
353698
353746
353785
325527
334253
334287
334340
334410
334496
334595
334707
334827
334953
335081
335209
335334
335451
335559
335656
335741
335808
335855
335895
308521
316967
317000
317051
317119
317201
317298
317405
317521
317643
317767
317891
318011
318124
318228
318321
318404
318468
318512
318554
292062
300237
300268
300316
300380
300458
300550
300652
300762
300877
300995
301113
301227
301334
301432
301521
301599
301658
301699
301741
276141
284047
284076
284121
284180
284253
284338
284432
284534
284641
284750
284858
284963
285061
285151
285231
285302
285355
285391
285432
260745
268389
268415
268455
268508
268574
268649
268734
268824
268919
269015
269110
269201
269286
269363
269432
269492
269535
269564
269602
245862
253249
253271
253306
253352
253408
253472
253543
253619
253697
253776
253852
253923
253988
254046
254096
254140
254168
254186
254218
231485
238619
238637
238665
238702
238746
238796
238850
238907
238964
239018
239068
239112
239148
239176
239199
239216
239221
239223
239242
217601
224488
224501
224521
224547
224577
224610
224644
224676
224705
224728
224743
224748
224743
224728
224708
224685
224654
224628
224624
204202
210844
210852
210863
210876
210890
210903
210913
210916
210910
210893
210861
210814
210750
210672
210587
210502
210414
210340
210295
191277
197681
197683
197684
197684
197680
197670
197651
197620
197573
197505
197415
197298
197153
196985
196802
196618
196435
196281
196163
178818
184988
184983
184974
184959
184935
184900
184851
184781
184686
184559
184396
184190
183939
183643
183314
182971
182629
182331
182077
166811
172753
172742
172722
172692
172649
172588
172505
172394
172246
172053
171805
171491
171102
170634
170091
169497
168880
168312
167794
155249
160968
160950
160920
160875
160812
160725
160609
160455
160253
159988
159647
159210
158656
157965
157126
156145
155047
153942
152852
144118
149620
149597
149557
149498
149416
149305
149157
148962
148706
148371
147935
147367
146631
145679
144460
142925
141024
138809
136299
133406
138698
138669
138620
138549
138450
138317
138141
137909
137604
137205
136680
135989
135074
133853
132212
129986
126910
122551
116208
105650
107812
107807
107913
107880
107652
107241
106627
105835
105000
104008
103255
100644
96689.7
98567
110568
117199
105580
115548
116106
116305
120318
129845
192243
240275
195759
147210
110278
84167.8
66078.7
53460.2
44769.2
38905.7
34799.8
32223.7
30861.1
30082.2
29845.2
30371.7
31507.4
32392
33040.9
33592.7
33751.7
34546.4
35581.8
35666.3
35582.6
35420.7
35196
34909.8
34570.3
34203.6
33858
33561.2
33303
33063.3
32822.1
32590.2
32405.1
100611
102933
102764
102751
102784
102731
102550
102138
101354
100549
100794
102736
102391
97837
93736.6
94863.4
102054
104254
112591
115907
115663
118023
127228
169158
195992
169484
132841
101631
78327.4
61754.2
50092.8
42099.8
36648.8
33107.5
30950.1
29541.4
28864.8
28517.6
28044.5
28734.9
29431.2
30002.5
30586.6
31272.3
31348.8
31085.2
30977.2
30783.1
30536.3
30245.4
29914.3
29556.1
29183.2
28823.4
28495.6
28195.7
27908.7
27634.3
27402.2
27245.7
95509
97785.6
97670.7
97681.5
97700.4
97714.7
97618.2
97286.4
96585.9
95900.7
97079.3
99244.4
97606.9
95477.5
89809.6
87054.4
99384
102954
101294
111877
113973
114647
122467
140841
156236
142095
114861
88695.2
68114.6
53220.7
42790.1
35652.1
30885.2
27861.8
26018.3
24898.1
24366.2
24014.3
23773.7
24145.5
24680.8
25177.2
25687.3
26218.2
26453.1
26276.5
26089.9
25837.3
25539.6
25203.3
24835.3
24450.8
24053.8
23674.1
23324.4
22995.9
22679.5
22375.7
22128.7
21967.3
90217.2
92550.6
92769.8
92626.4
92593.8
92631.3
92563.5
92248.4
91539.4
90664.8
90002.5
93848.1
94307
86815.8
73696.9
77048
93291.8
100347
98547.5
101990
104298
106723
109146
117809
125136
115778
95272.9
73866.2
56356.5
43518.7
34575.5
28508.1
24497.3
21962.9
20443.7
19582.6
19195.8
19025.4
18981.8
19260.2
19690.1
20130.2
20577.7
21022.7
21245
21158.5
20971.1
20705.5
20390.9
20034.5
19642.7
19229.3
18785.9
18381.1
18024.8
17693.2
17367
17035.8
16762
16561.1
84691.1
87373.5
87655.2
87491.7
87464.9
87502.3
87465.9
87170.9
86410
85361.1
83996.7
85177.6
91237.9
72993.8
70136.7
69633.5
79923.5
96662.7
96667.5
106463
108557
98638.2
95728.7
97336.1
98169.8
89807.2
73734.8
56612.2
42521
32255.3
25231.8
20549.2
17511.4
15632.5
14542.6
13982.8
13785.9
13784
13889.4
14163
14537.9
14928.4
15316.8
15680
15882
15850.5
15684.2
15427.4
15117.7
14759.7
14355.8
13915.1
13385.6
12946.1
12601.1
12291.6
11976.1
11612.1
11309.3
11027.6
79017.8
82036
82223.7
82274.8
82452.4
82433.1
82344.8
82139.7
81308
80059
79212.8
78466.9
76533.7
70612.7
70108.2
69788.4
72515.7
90641.8
92535.3
97798.1
97774.7
87837.6
81659.4
77968.8
73639.7
64366.8
50826.4
37253.1
26672.1
19344.2
14659.7
11691.5
9861.68
8811.73
8280.26
8078.55
8114.37
8297.31
8549.26
8872.96
9237.86
9595.23
9929.51
10228.8
10399.4
10395.6
10258.3
10021.2
9733.36
9391.26
8989.55
8533.63
7836.03
7352.3
7044.71
6794
6516.95
6097.86
5797.72
5352.43
73221.9
76225.5
76656.6
76870.9
77168.4
77464.5
77509.8
77208.9
76647.6
75036.7
74163.3
73173.7
69441.2
69730.9
69613.9
69776.7
73949.3
80007.8
86089.1
89074.6
85424.7
75698
66988.8
59163.6
50577.9
39439.2
26551.6
15053.9
8178.45
4454.01
2855.9
2135.4
1817.48
1762.63
1839
2011.21
2301.19
2656.36
3047.02
3444.11
3829.52
4166.65
4437.99
4670.94
4791.8
4802.29
4707.67
4499.42
4260.29
3956.53
3578.24
3211.16
2045.52
1540.24
1393.38
1301.68
1221.5
937.361
849.106
532.453
67298.5
70610.7
71031.5
71330.9
71701.1
72115.8
72503.5
72595.3
72339.9
71446.6
69326.3
69235.4
69227
69261.6
69462.4
69710.8
76023.1
63152.5
65621
83086.6
73110.5
62880.1
52075.3
40998.1
28699.4
13260.4
2303.61
214.368
33.2312
10.8374
-6.69042
-21.1657
-32.6111
-41.5726
-48.855
-55.1472
-67.3658
-56.438
-16.0235
42.3102
115.198
198.51
275.727
368.665
403.677
407.58
364.737
230.171
110.266
26.7298
-21.5558
-39.6091
-42.7889
-42.2461
-35.4496
-35.0851
-39.8301
-40.7615
-41.3718
-41.6448
61276.9
65009.7
65227.8
65616
66096.7
66617.6
67154.1
67645.5
67794.8
67521.9
68514.2
69214.3
69214.4
69245
69356.9
69507.9
70937.3
62543.2
67709.3
71128.8
61091.1
49901.5
37339.4
23570.4
5862.84
77.0391
52.989
40.5045
23.9134
8.93483
-5.7284
-18.9054
-30.1033
-39.3177
-47.01
-54.2804
-57.7325
-57.799
-59.6322
-60.5676
-60.8071
-60.5024
-59.8545
-59.17
-58.4054
-57.0554
-56.3748
-55.5984
-54.7898
-53.7703
-51.5158
-47.4048
-46.6042
-46.7741
-44.6035
-43.536
-45.4868
-46.4568
-47.1012
-47.4809
55028.5
59250.4
59168.1
59722.9
60339
60970.9
61635.1
62392.9
63011.8
63531
65882.9
69190.3
69199
69213.3
69276.6
68563.3
60718.2
69488.5
65898.5
59842.7
49411.3
37096
23020.1
5046.68
76.7879
40.6674
34.0531
21.1153
7.06031
-5.91623
-18.3053
-29.5312
-39.2108
-47.3111
-54.0925
-59.9762
-64.1573
-66.0693
-66.9713
-67.3305
-67.2173
-66.7862
-66.2048
-65.6156
-64.8658
-63.7813
-62.8202
-61.8181
-60.7458
-59.4517
-57.4392
-54.7725
-53.3624
-52.7132
-51.1881
-50.4406
-51.4068
-52.2466
-52.88
-53.2739
48490
52860.6
53086.1
53786.2
54445.2
55179.3
55804.4
56877.6
57970.7
59042.2
60823
68066.2
69187.9
69192.5
69207.4
57173.5
58203.6
64671.1
59691.6
49686.7
38160.5
24719.8
7468.2
33.4872
19.8943
21.2047
12.1216
1.87949
-9.1485
-19.8296
-30.0653
-39.4834
-47.7508
-54.8156
-60.7833
-65.8347
-69.6415
-71.7513
-72.852
-73.2884
-73.2229
-72.8237
-72.2437
-71.5855
-70.794
-69.8094
-68.8086
-67.773
-66.6544
-65.3191
-63.5411
-61.4364
-59.9494
-59.0006
-57.8532
-57.2241
-57.6386
-58.2528
-58.8023
-59.2062
41980.3
46321.7
47253
47623.1
48424.3
49295.9
50279.8
51476.6
52616
53901.9
55588.5
59675.2
67801.7
69112.6
64503.8
49947.4
70217.7
62435.4
52003.9
40325
27488.5
12220.5
167.759
3.00308
4.44872
-1.7997
-8.49253
-16.3117
-25.002
-33.6927
-42.0679
-49.8435
-56.7767
-62.8157
-67.9672
-72.2825
-75.6324
-77.7559
-78.9016
-79.3663
-79.3289
-78.9492
-78.3649
-77.6689
-76.8575
-75.9148
-74.9123
-73.8619
-72.7287
-71.4108
-69.8093
-68.046
-66.5867
-65.5196
-64.5394
-63.9619
-64.0676
-64.4548
-64.8768
-65.2359
35895.9
39733.8
40566.5
40939.9
42189
43467.3
45238.5
46030.6
47064.3
48338.4
49867.6
52101.8
54583.5
56076.4
47197.9
60562.3
61292.6
57926.8
44479.3
31478.2
17322
1568.8
-14.364
-13.4386
-17.0803
-21.8541
-27.1142
-33.2826
-40.1649
-47.1516
-53.9256
-60.2525
-65.9913
-71.0789
-75.4599
-79.1267
-82.0148
-83.9768
-85.0967
-85.5634
-85.5388
-85.1719
-84.5899
-83.8786
-83.0599
-82.1368
-81.1399
-80.0861
-78.9551
-77.6775
-76.2088
-74.6579
-73.2816
-72.1938
-71.2893
-70.724
-70.6387
-70.8256
-71.0983
-71.3609
28990.6
32929.9
33735.2
35284.3
35761.9
37263.2
39012.7
39921.6
41328.3
43206.9
44818.6
46238.1
47794.7
47022.4
43696.5
62878.7
63447
49716.4
36829.4
22998.1
7167.45
39.1745
-29.3335
-31.4178
-35.5646
-39.5836
-43.9122
-48.9276
-54.4392
-60.0123
-65.4261
-70.5319
-75.2449
-79.4798
-83.16
-86.2481
-88.6948
-90.4195
-91.4444
-91.8776
-91.8489
-91.4903
-90.914
-90.1984
-89.3797
-88.4692
-87.482
-86.4357
-85.3201
-84.094
-82.7413
-81.3352
-80.0553
-78.989
-78.1233
-77.552
-77.3307
-77.3448
-77.4633
-77.5979
22240.7
24687.4
27496
29014.3
29012.1
31427.7
32810.8
34509.1
35650.8
37276.6
38955
40547.4
41630.3
41270.2
47266.8
53693.9
52943.7
41732.2
29081.8
14653.9
692.191
-45.6682
-43.6848
-48.0723
-51.8063
-55.3536
-59.1195
-63.3215
-67.7341
-72.149
-76.458
-80.5743
-84.4237
-87.916
-90.9751
-93.5472
-95.5878
-97.0519
-97.9386
-98.3087
-98.2619
-97.9068
-97.3377
-96.6255
-95.8113
-94.9109
-93.9382
-92.9069
-91.8161
-90.6463
-89.3951
-88.1161
-86.9232
-85.8933
-85.0555
-84.466
-84.1349
-84.0011
-83.9698
-83.9583
15780.4
19378.9
20110.1
21910.1
24092.7
25900.2
27034.5
28818.3
29613.3
31097.7
32760.4
34243.4
35413.5
36136
38415.6
49423
44103.7
33815
21446.3
6321.14
4.81366
-56.51
-58.8223
-62.8484
-66.3168
-69.5905
-72.9902
-76.5006
-80.0321
-83.5528
-87.0043
-90.3252
-93.4548
-96.3137
-98.8296
-100.945
-102.621
-103.829
-104.561
-104.853
-104.779
-104.421
-103.86
-103.156
-102.35
-101.462
-100.508
-99.4996
-98.441
-97.3288
-96.1668
-94.9948
-93.8838
-92.9021
-92.0878
-91.4695
-91.0487
-90.7898
-90.618
-90.4583
13790.1
15581.8
17638.3
18910.2
20580.9
20414
20863.1
21845.9
23162.9
24782.1
26537
28014.3
29265.3
30167.1
38655.8
37877.8
35214.2
26050.1
14016.4
704.415
-70.9565
-68.3766
-72.5443
-76.2096
-79.5004
-82.5843
-85.5908
-88.5266
-91.4259
-94.2868
-97.0752
-99.7587
-102.297
-104.621
-106.669
-108.388
-109.745
-110.716
-111.296
-111.506
-111.397
-111.033
-110.479
-109.787
-108.995
-108.125
-107.196
-106.217
-105.197
-104.14
-103.055
-101.969
-100.935
-100.004
-99.2088
-98.5636
-98.0743
-97.7118
-97.4109
-97.1043
13778.6
13749.2
13749.3
14061.4
14395.1
14612
14269
14417.3
15578.8
17456
20278.1
22039
22631.1
25992.7
27166.8
32939.9
27123.4
18800.5
6832.12
-10.4351
-76.6615
-80.8913
-84.9818
-88.4752
-91.5766
-94.4152
-97.0763
-99.6104
-102.055
-104.415
-106.689
-108.869
-110.927
-112.809
-114.462
-115.844
-116.926
-117.689
-118.129
-118.258
-118.113
-117.741
-117.194
-116.518
-115.746
-114.902
-114.002
-113.059
-112.081
-111.077
-110.059
-109.048
-108.081
-107.197
-106.419
-105.758
-105.218
-104.767
-104.351
-103.908
13766.6
13760.2
13747.2
13733.1
13740.4
13812.9
13823.8
13855.6
13888.8
14024.5
14476.3
16112.8
17071.4
18275.6
25799.6
24788.3
20114
12253.2
1351
-93.751
-88.1021
-92.7725
-96.5734
-99.8319
-102.698
-105.303
-107.701
-109.93
-112.023
-114
-115.879
-117.667
-119.341
-120.861
-122.188
-123.289
-124.141
-124.728
-125.045
-125.101
-124.922
-124.544
-124.007
-123.349
-122.602
-121.787
-120.922
-120.02
-119.089
-118.137
-117.18
-116.234
-115.326
-114.486
-113.729
-113.062
-112.484
-111.958
-111.441
-110.877
13755.9
13753.2
13743.7
13739.2
13747.2
13782
13811.8
13848.7
13895.8
13979.2
14108.5
14323.1
15337.8
17054.4
19601.3
18939.2
14086.7
6387.02
6.24924
-97.0919
-100.679
-104.243
-107.531
-110.46
-113.085
-115.47
-117.635
-119.611
-121.429
-123.115
-124.697
-126.181
-127.55
-128.779
-129.841
-130.713
-131.377
-131.819
-132.033
-132.027
-131.82
-131.438
-130.915
-130.28
-129.561
-128.78
-127.953
-127.094
-126.212
-125.314
-124.417
-123.533
-122.681
-121.882
-121.147
-120.479
-119.867
-119.281
-118.68
-118.015
13746.4
13744.2
13738.4
13736.2
13741.5
13762.6
13790
13824.5
13869.3
13941.1
14070.6
14262.7
14679.5
15094.3
14318.2
13296.5
8896.69
1882.59
-81.2986
-110.624
-112.25
-115.152
-117.947
-120.538
-122.91
-125.068
-127.018
-128.781
-130.382
-131.849
-133.204
-134.451
-135.581
-136.579
-137.432
-138.122
-138.635
-138.959
-139.09
-139.036
-138.808
-138.426
-137.918
-137.31
-136.623
-135.879
-135.093
-134.279
-133.446
-132.604
-131.765
-130.939
-130.139
-129.381
-128.669
-128.002
-127.366
-126.734
-126.07
-125.325
13739
13735.6
13730.2
13728.3
13731.8
13744.7
13765.9
13795.5
13834.1
13891.1
13992.2
14104.6
14456.4
13060.5
10769.4
8860.19
4548.17
-31.0812
-129.23
-121.16
-123.296
-125.581
-127.926
-130.186
-132.294
-134.223
-135.972
-137.553
-138.983
-140.279
-141.457
-142.519
-143.464
-144.284
-144.974
-145.521
-145.915
-146.147
-146.215
-146.125
-145.882
-145.505
-145.016
-144.437
-143.786
-143.081
-142.339
-141.57
-140.786
-139.998
-139.214
-138.443
-137.694
-136.975
-136.289
-135.627
-134.98
-134.32
-133.612
-132.808
13736.3
13729.1
13721
13717.3
13718.1
13725.4
13740.6
13765.1
13799
13851.5
13890.7
13953.1
13653.9
9455.26
8008.98
5461.1
1134.35
-123.03
-127.351
-132.146
-133.747
-135.597
-137.549
-139.491
-141.333
-143.042
-144.606
-146.029
-147.316
-148.473
-149.51
-150.43
-151.233
-151.919
-152.483
-152.921
-153.225
-153.388
-153.41
-153.294
-153.045
-152.678
-152.211
-151.663
-151.05
-150.387
-149.688
-148.967
-148.233
-147.496
-146.765
-146.045
-145.343
-144.664
-144.006
-143.361
-142.714
-142.04
-141.306
-140.462
13736.7
13726.6
13711.4
13704.4
13702.2
13705
13714.7
13734.5
13766.3
13803.1
13819.5
13836.9
12747.6
7697.48
5852.03
2743.08
-546.189
-149.13
-141.875
-142.697
-143.83
-145.265
-146.876
-148.519
-150.109
-151.611
-153.007
-154.288
-155.448
-156.489
-157.414
-158.224
-158.921
-159.507
-159.979
-160.334
-160.572
-160.686
-160.675
-160.544
-160.298
-159.946
-159.505
-158.991
-158.416
-157.796
-157.142
-156.469
-155.785
-155.098
-154.417
-153.746
-153.091
-152.453
-151.829
-151.207
-150.571
-149.895
-149.149
-148.283
13657.8
13717.6
13699.8
13690.3
13685.6
13684.9
13689.6
13704.7
13731.3
13740.2
13773.5
13888.8
8735.47
6438.5
4061.97
460.725
-287.649
-150.871
-152.447
-152.758
-153.519
-154.634
-155.95
-157.324
-158.687
-160.001
-161.242
-162.392
-163.442
-164.384
-165.219
-165.945
-166.563
-167.075
-167.48
-167.777
-167.967
-168.047
-168.018
-167.882
-167.644
-167.312
-166.9
-166.421
-165.886
-165.31
-164.703
-164.077
-163.441
-162.804
-162.172
-161.55
-160.942
-160.347
-159.76
-159.168
-158.55
-157.884
-157.138
-156.268
13627.7
13673.9
13676.3
13673.4
13669
13666.5
13667.7
13682.4
13696.6
13709.2
13741.9
13064.2
7062.51
5277.54
2411.41
-1017.16
-144.866
-163.173
-162.244
-162.319
-162.859
-163.74
-164.81
-165.955
-167.121
-168.268
-169.368
-170.403
-171.355
-172.214
-172.974
-173.634
-174.192
-174.649
-175.007
-175.264
-175.423
-175.483
-175.446
-175.313
-175.088
-174.78
-174.399
-173.956
-173.463
-172.931
-172.37
-171.792
-171.204
-170.615
-170.032
-169.459
-168.897
-168.345
-167.799
-167.241
-166.65
-166.004
-165.272
-164.409
13635.3
13619.4
13646.1
13653.6
13652.8
13650.5
13648.9
13657.3
13671.7
13683.6
13744.7
9625.07
6348.88
4114.39
770.478
-804.866
-186.121
-170.285
-171.423
-171.502
-171.917
-172.628
-173.501
-174.46
-175.459
-176.462
-177.442
-178.373
-179.239
-180.026
-180.725
-181.331
-181.842
-182.259
-182.582
-182.814
-182.954
-183.005
-182.968
-182.843
-182.637
-182.355
-182.006
-181.602
-181.151
-180.663
-180.147
-179.615
-179.074
-178.534
-177.999
-177.473
-176.957
-176.449
-175.944
-175.426
-174.869
-174.251
-173.544
-172.704
13612.2
13593.7
13618.6
13633.2
13637.3
13637.1
13635.7
13643.1
13661.9
13674.5
13296.7
7587.76
5636.11
2864.22
-815.359
-228.945
-176.85
-180.608
-180.409
-180.423
-180.769
-181.355
-182.075
-182.888
-183.753
-184.636
-185.51
-186.352
-187.143
-187.867
-188.512
-189.073
-189.545
-189.931
-190.229
-190.444
-190.575
-190.625
-190.594
-190.483
-190.298
-190.044
-189.729
-189.364
-188.954
-188.51
-188.039
-187.552
-187.058
-186.564
-186.075
-185.595
-185.124
-184.661
-184.199
-183.721
-183.204
-182.624
-181.953
-181.147
13604.7
13594.3
13602.8
13615.8
13622.8
13625.1
13626.9
13641.3
13650.1
13677.4
10458.8
6945.41
4694.9
1448.96
-1214.06
-189.531
-189.436
-189.433
-189.147
-189.169
-189.481
-189.974
-190.585
-191.287
-192.046
-192.831
-193.618
-194.383
-195.107
-195.774
-196.372
-196.893
-197.332
-197.691
-197.971
-198.174
-198.301
-198.354
-198.333
-198.241
-198.08
-197.855
-197.574
-197.247
-196.879
-196.477
-196.051
-195.608
-195.159
-194.708
-194.263
-193.826
-193.399
-192.979
-192.56
-192.125
-191.653
-191.118
-190.494
-189.735
13593.1
13592.9
13593.8
13602
13609.4
13613.4
13616.5
13624.2
13644.1
13316.2
8304.36
6296.23
3518.54
-102.128
-388.421
-200.054
-197.65
-197.901
-197.732
-197.82
-198.118
-198.547
-199.083
-199.704
-200.381
-201.088
-201.802
-202.502
-203.166
-203.781
-204.335
-204.818
-205.228
-205.564
-205.828
-206.023
-206.15
-206.209
-206.202
-206.129
-205.991
-205.796
-205.549
-205.259
-204.931
-204.571
-204.188
-203.788
-203.38
-202.971
-202.567
-202.171
-201.784
-201.406
-201.027
-200.635
-200.21
-199.728
-199.162
-198.463
13577.4
13582.8
13584
13589.7
13596.3
13602.6
13607
13612.4
13641.7
10665.2
7663.65
5335.07
2094.95
-1128
-189.974
-207.997
-206.877
-206.451
-206.338
-206.462
-206.744
-207.132
-207.618
-208.18
-208.795
-209.44
-210.094
-210.735
-211.348
-211.915
-212.426
-212.875
-213.257
-213.572
-213.822
-214.011
-214.138
-214.206
-214.212
-214.157
-214.044
-213.877
-213.663
-213.409
-213.119
-212.798
-212.455
-212.096
-211.729
-211.358
-210.991
-210.631
-210.282
-209.941
-209.6
-209.249
-208.871
-208.446
-207.949
-207.33
13563
13569.4
13572.5
13577.2
13583
13591.1
13592
13603.4
13145
8920.8
6919.74
4075.22
487.834
-624.773
-224.023
-215.655
-215.367
-215.021
-214.987
-215.14
-215.409
-215.776
-216.231
-216.751
-217.319
-217.913
-218.517
-219.108
-219.673
-220.198
-220.671
-221.087
-221.441
-221.736
-221.975
-222.158
-222.285
-222.36
-222.378
-222.341
-222.251
-222.11
-221.927
-221.706
-221.451
-221.167
-220.861
-220.541
-220.209
-219.874
-219.542
-219.214
-218.896
-218.587
-218.279
-217.965
-217.632
-217.264
-216.848
-216.335
13552.3
13557.2
13560.4
13564.6
13569.9
13573.2
13583.4
13605.1
10421.4
8215.1
5787.31
2536.31
-884.797
-228.467
-218.338
-223.931
-223.743
-223.655
-223.712
-223.89
-224.159
-224.519
-224.953
-225.443
-225.974
-226.527
-227.087
-227.636
-228.16
-228.646
-229.085
-229.469
-229.799
-230.075
-230.302
-230.479
-230.607
-230.686
-230.713
-230.691
-230.619
-230.502
-230.347
-230.155
-229.932
-229.682
-229.411
-229.123
-228.825
-228.523
-228.221
-227.922
-227.63
-227.346
-227.066
-226.782
-226.485
-226.171
-225.841
-225.47
13540.6
13546.2
13548.5
13552.4
13555.5
13559.9
13592.1
12432.9
9329.67
7231.67
4303.6
794.685
-844.631
-245.918
-231.724
-232.575
-232.443
-232.451
-232.561
-232.755
-233.034
-233.392
-233.812
-234.279
-234.78
-235.298
-235.821
-236.331
-236.818
-237.27
-237.677
-238.036
-238.345
-238.602
-238.819
-238.992
-239.12
-239.201
-239.233
-239.22
-239.161
-239.063
-238.929
-238.764
-238.571
-238.352
-238.11
-237.852
-237.584
-237.31
-237.034
-236.759
-236.488
-236.225
-235.966
-235.703
-235.432
-235.155
-234.896
-234.719
13529.1
13534.9
13536.8
13540.9
13547.3
13543.9
13308.2
10339.8
8434.95
5809.35
2566.73
-800.112
-240.134
-237.855
-242.129
-241.545
-241.402
-241.437
-241.563
-241.771
-242.061
-242.418
-242.827
-243.275
-243.75
-244.238
-244.726
-245.203
-245.656
-246.074
-246.449
-246.774
-247.06
-247.308
-247.518
-247.689
-247.819
-247.903
-247.943
-247.94
-247.895
-247.811
-247.692
-247.544
-247.371
-247.176
-246.961
-246.73
-246.489
-246.241
-245.987
-245.731
-245.478
-245.23
-244.984
-244.735
-244.477
-244.211
-243.963
-243.854
13517.8
13523.8
13525
13529.6
13542.4
13522.9
11294.7
9403.07
7051.01
4065.87
707.187
-870.159
-262.752
-250.729
-251.19
-250.666
-250.557
-250.6
-250.735
-250.959
-251.259
-251.614
-252.012
-252.442
-252.893
-253.353
-253.81
-254.254
-254.672
-255.052
-255.385
-255.69
-255.963
-256.202
-256.406
-256.573
-256.702
-256.789
-256.837
-256.842
-256.811
-256.742
-256.639
-256.508
-256.353
-256.174
-255.975
-255.763
-255.542
-255.315
-255.083
-254.845
-254.605
-254.367
-254.13
-253.889
-253.636
-253.364
-253.066
-252.71
13505.3
13513.6
13514.3
13519.2
13517.3
12039.5
10163.1
8013.77
5294.86
2178.56
-882.01
-238.148
-256.051
-260.853
-260.248
-259.945
-259.885
-259.938
-260.09
-260.332
-260.637
-260.988
-261.374
-261.787
-262.215
-262.647
-263.074
-263.481
-263.857
-264.195
-264.508
-264.796
-265.055
-265.284
-265.481
-265.644
-265.772
-265.862
-265.913
-265.927
-265.907
-265.85
-265.762
-265.647
-265.509
-265.347
-265.166
-264.97
-264.763
-264.547
-264.327
-264.101
-263.873
-263.645
-263.415
-263.18
-262.932
-262.659
-262.338
-261.903
13485.1
13502.9
13503.9
13503.5
12262.5
10622.9
8690.38
6246.27
3378.02
265.559
-678.253
-282.166
-269.638
-270.147
-269.591
-269.42
-269.392
-269.465
-269.645
-269.901
-270.206
-270.55
-270.923
-271.317
-271.721
-272.125
-272.517
-272.882
-273.214
-273.53
-273.824
-274.096
-274.341
-274.559
-274.749
-274.907
-275.032
-275.123
-275.178
-275.2
-275.187
-275.141
-275.067
-274.966
-274.842
-274.696
-274.53
-274.352
-274.162
-273.96
-273.751
-273.532
-273.305
-273.078
-272.851
-272.623
-272.385
-272.128
-271.841
-271.503
13441.1
13492.6
13480.7
12260.2
10879.5
9055.12
6882.12
4289.35
1420.97
-1012.72
-231.738
-283.897
-281.071
-279.719
-279.221
-279.09
-279.083
-279.194
-279.402
-279.666
-279.968
-280.3
-280.658
-281.031
-281.41
-281.782
-282.133
-282.455
-282.765
-283.059
-283.335
-283.59
-283.822
-284.03
-284.21
-284.362
-284.484
-284.574
-284.633
-284.66
-284.655
-284.618
-284.555
-284.466
-284.355
-284.223
-284.073
-283.91
-283.734
-283.548
-283.352
-283.147
-282.932
-282.711
-282.484
-282.253
-282.02
-281.785
-281.554
-281.357
11430.8
13115.4
12233.9
11015.2
9305.7
7368.47
5067.68
2430.66
-450.8
-344.151
-292.221
-291.003
-290.179
-289.357
-289.075
-288.982
-289.012
-289.161
-289.381
-289.641
-289.931
-290.247
-290.582
-290.93
-291.279
-291.614
-291.923
-292.221
-292.508
-292.781
-293.04
-293.28
-293.499
-293.696
-293.867
-294.012
-294.13
-294.22
-294.28
-294.31
-294.311
-294.283
-294.229
-294.152
-294.052
-293.933
-293.797
-293.647
-293.486
-293.314
-293.133
-292.941
-292.741
-292.535
-292.326
-292.113
-291.896
-291.683
-291.486
-291.329
123104
128190
128156
128100
128018
127904
127752
127552
127289
126944
126492
125896
125103
124040
122591
120577
117691
113338
106074
92579.4
112923
117994
117957
117894
117803
117677
117511
117291
117004
116630
116139
115492
114632
113473
111884
109653
106408
101437
93291.1
78474.2
102769
107825
107784
107717
107618
107484
107306
107072
106769
106374
105861
105187
104296
103104
101485
99241.1
96060.5
91442.9
84551.8
73741.1
92645.3
97685.4
97642
97570.4
97466.9
97326.2
97140.2
96898.2
96585.6
96182.3
95661.1
94984.3
94099
92930.9
91373.5
89273.9
86411.4
82473.7
77016.7
69493.3
82552.3
87576.2
87531.2
87457.2
87350.6
87206.2
87016.3
86770.6
86455.6
86052.8
85537.6
84876.6
84024.4
82919.9
81480.2
79594.6
77116
73856.9
69603
64211
72491.3
77498.8
77453.1
77378.1
77270.2
77124.6
76934
76689.1
76377.5
75982.9
75483.6
74851.4
74049.2
73028.7
71728.4
70070.8
67961.9
65293.8
61964.9
57923.9
62462.3
67453.8
67408.3
67333.4
67225.9
67081.3
66892.9
66652.3
66348.5
65967.4
65490.5
64894.5
64149.6
63219.1
62058
60613.4
58825.5
56632.1
53980.4
50849.4
52465.3
57441.3
57396.6
57323.1
57217.5
57075.7
56891.8
56658.2
56365.4
56001.2
55550.1
54992.9
54306.3
53462.1
52428.2
51168.5
49644.5
47819.2
45663.1
43166.9
42499.2
47460.7
47417.8
47346.8
47244.4
47106.9
46929
46704.4
46424.8
46079.3
45655.2
45136.5
44504.7
43738.4
42814.4
41708.5
40395.9
38853.2
37062.2
35016.5
32562
37510.9
37471.2
37403.8
37305.5
37173.4
37003
36789.1
36524
36198.5
35801.5
35319.6
34737.6
34038.6
33206.7
32226.2
31080.7
29754.2
28232.2
26504.6
22649.4
27590.4
27556.4
27493.8
27400.8
27274.6
27113.1
26912.4
26664.4
26361.3
25992.9
25547.1
25009.6
24365.8
23605.2
22717.8
21691.7
20512.3
19161.6
17620.2
12746.4
17698.5
17675
17617.3
17527.6
17407.4
17255.4
17064
16825.8
16533.6
16178.6
15749.2
15227.6
14600.1
13865.5
13026.1
12069.2
10974.1
9730.39
8320.08
2783.63
7842.34
7826.15
7760.84
7669.69
7549.69
7398.33
7207.67
6970.74
6682.09
6332.16
5908.21
5379.17
4747.1
4057.54
3322.84
2575
1858.67
1237.67
708.093
-438.364
7.70601
14.3017
-8.95229
-14.0429
-30.7004
-70.3303
-127.823
-195.816
-268.074
-339.62
-419.374
-428.423
-428.801
-429.457
-430.081
-430.434
-428.722
-419.807
-420.906
-440.839
-433.536
-433.778
-433.838
-433.806
-433.78
-433.776
-433.799
-433.853
-433.959
-434.13
-434.376
-434.958
-435.149
-435.262
-435.329
-435.307
-435.003
-434.468
-434.761
-449.362
-444.151
-444.123
-444.033
-443.994
-444.012
-444.044
-444.079
-444.113
-444.133
-444.101
-444.006
-444.057
-444.15
-444.245
-444.329
-444.392
-444.406
-444.362
-444.431
-458.967
-454.028
-453.979
-453.922
-453.891
-453.89
-453.903
-453.919
-453.933
-453.936
-453.918
-453.887
-453.889
-453.93
-453.989
-454.049
-454.101
-454.135
-454.156
-454.194
-468.742
-463.799
-463.769
-463.745
-463.73
-463.726
-463.73
-463.736
-463.741
-463.741
-463.732
-463.719
-463.719
-463.739
-463.774
-463.817
-463.859
-463.898
-463.933
-463.97
-478.53
-473.588
-473.57
-473.559
-473.551
-473.548
-473.548
-473.55
-473.551
-473.55
-473.546
-473.541
-473.544
-473.558
-473.583
-473.615
-473.651
-473.688
-473.725
-473.763
-488.335
-483.393
-483.382
-483.375
-483.369
-483.366
-483.364
-483.363
-483.362
-483.362
-483.361
-483.361
-483.366
-483.379
-483.4
-483.428
-483.459
-483.495
-483.532
-483.57
-498.149
-493.214
-493.199
-493.191
-493.186
-493.182
-493.18
-493.178
-493.177
-493.177
-493.178
-493.181
-493.189
-493.202
-493.222
-493.247
-493.277
-493.311
-493.348
-493.387
-507.937
-503.021
-503.01
-503.004
-503.001
-502.998
-502.996
-502.995
-502.995
-502.997
-502.999
-503.004
-503.014
-503.028
-503.047
-503.072
-503.102
-503.135
-503.172
-503.209
-517.692
-512.811
-512.812
-512.813
-512.813
-512.812
-512.812
-512.812
-512.814
-512.817
-512.821
-512.828
-512.839
-512.854
-512.874
-512.898
-512.927
-512.96
-512.995
-513.033
-527.414
-522.596
-522.615
-522.622
-522.625
-522.626
-522.626
-522.627
-522.63
-522.634
-522.64
-522.649
-522.661
-522.678
-522.698
-522.723
-522.751
-522.784
-522.819
-522.856
40518.7
40128.4
38993.4
38800.6
41626.9
46942.8
53757.4
60866.2
67075.5
71420.5
73250.5
72232.4
68046.8
59861.1
44884.3
48779.8
33783.3
29022.1
28619.1
30988.8
35702.8
41948.5
48575.4
54402.1
58463.6
60132.5
59089.4
55118.2
47909.3
37286.6
58107.3
39021
27949.7
23843.4
24352.3
28009.5
33431.4
39264.3
44315
47705.8
48943.3
47852.5
44440.3
38849.5
31531.4
60002.7
47788.3
37427.3
30785.7
28055.8
28527.8
31146
34497.4
37441.2
39243.2
39519.4
38150.4
35184.8
30801.6
25353.7
57543.8
49607.7
42189.6
36404.3
32716
31038.2
30927.2
31578.4
32223
32329.1
31565.1
29774.7
26938.9
23157.7
18670.6
53078.1
47388.2
41838.5
37037.7
33327.9
30758.3
29145.1
28103.7
27200.3
26066.7
24444.2
22188.1
19262.2
15730.3
11746.2
47179.7
42869.9
38523.6
34483.7
30979.2
28100
25751.7
23754.3
21864.9
19858.9
17572.9
14910.5
11828.6
8343.78
4633.56
40277.8
36874.4
33350.9
29900.5
26672.7
23718.4
21006.6
18453.9
15951.4
13386.1
10646.7
7656.89
4467.5
1527.86
85.849
32664.6
29879.5
26929.6
23913.8
20907.8
17956.9
15077.6
12251.6
9425.64
6528.19
3619.48
1164.06
-11.7131
-396.253
-371.165
24515.2
22127.4
19533.6
16788.9
13957.4
11081.6
8199.62
5312.44
2608.41
746.089
-263.342
-390.617
-381.661
-386.748
-387.059
15825.4
13654.7
11296.8
8758.47
6165.06
3556.53
1441.35
346.597
-427.584
-394.773
-390.893
-395.508
-396.156
-396.175
-396.111
6695.29
4754.92
2837.01
1243.24
357.29
-425.991
-414.635
-400.273
-404.653
-406.473
-406.024
-405.703
-405.664
-405.729
-405.76
121.74
-396.06
-433.784
-413.953
-410.651
-414.098
-416.403
-416.237
-415.754
-415.635
-415.492
-415.447
-415.452
-415.479
-415.506
-422.127
-423.469
-426.33
-425.584
-425.768
-425.46
-425.431
-425.329
-425.269
-425.244
-425.217
-425.212
-425.229
-425.258
-425.292
-435.048
-434.864
-434.949
-434.973
-435.001
-435.011
-435.01
-434.988
-434.971
-434.968
-434.975
-434.994
-435.024
-435.06
-435.1
-444.53
-444.563
-444.607
-444.645
-444.674
-444.696
-444.707
-444.714
-444.723
-444.741
-444.766
-444.799
-444.837
-444.879
-444.925
-454.245
-454.29
-454.332
-454.37
-454.403
-454.434
-454.46
-454.484
-454.51
-454.542
-454.578
-454.619
-454.664
-454.713
-454.764
-464.012
-464.056
-464.097
-464.137
-464.174
-464.21
-464.245