/*--------------------------------*- C++ -*----------------------------------*\
| =========                 |                                                 |
| \\      /  F ield         | OpenFOAM: The Open Source CFD Toolbox           |
|  \\    /   O peration     | Version:  v1912                                 |
|   \\  /    A nd           | Website:  www.openfoam.com                      |
|    \\/     M anipulation  |                                                 |
\*---------------------------------------------------------------------------*/
FoamFile
{
    version     2.0;
    format      ascii;
    class       volScalarField;
    location    "24";
    object      p_rgh;
}
// * * * * * * * * * * * * * * * * * * * * * * * * * * * * * * * * * * * * * //

dimensions      [1 -1 -2 0 0 0 0];


internalField   nonuniform List<scalar> 
20320
(
434476
434552
434579
434632
434704
434793
434896
435011
435136
435267
435402
435537
435668
435794
435912
436017
436110
436188
436250
436291
434362
434462
434497
434552
434625
434715
434819
434935
435060
435192
435327
435462
435594
435720
435837
435942
436032
436105
436158
436194
434137
434277
434313
434369
434442
434532
434636
434752
434878
435009
435144
435278
435409
435534
435650
435753
435843
435915
435965
435999
433826
434006
434042
434097
434170
434259
434363
434478
434603
434733
434867
435000
435129
435252
435365
435467
435555
435627
435676
435712
433443
433658
433693
433747
433819
433907
434009
434122
434245
434374
434506
434637
434764
434884
434995
435094
435181
435252
435299
435338
432996
433241
433275
433328
433398
433484
433584
433695
433815
433941
434070
434198
434322
434439
434547
434644
434729
434797
434843
434884
432497
432767
432800
432850
432918
433001
433097
433204
433320
433442
433566
433690
433810
433923
434027
434121
434203
434267
434311
434353
431955
432244
432275
432323
432387
432466
432557
432659
432769
432885
433003
433120
433234
433341
433440
433528
433606
433665
433706
433748
431378
431682
431711
431756
431815
431888
431973
432067
432169
432276
432385
432493
432598
432696
432786
432867
432937
432990
433026
433067
430777
431091
431118
431158
431211
431276
431352
431436
431527
431622
431718
431813
431904
431989
432066
432135
432195
432237
432267
432305
430161
430480
430503
430537
430583
430639
430703
430774
430850
430929
431007
431083
431155
431220
431277
431328
431371
431399
431418
431449
429537
429857
429876
429904
429940
429984
430035
430089
430146
430202
430257
430307
430351
430387
430415
430437
430455
430460
430462
430481
428915
429232
429245
429265
429291
429321
429354
429388
429420
429449
429472
429487
429492
429487
429472
429452
429429
429398
429372
429368
428303
428611
428619
428630
428643
428657
428670
428679
428683
428677
428660
428628
428581
428517
428439
428354
428269
428180
428107
428062
427707
428003
428005
428006
428006
428002
427992
427973
427942
427895
427828
427737
427620
427476
427307
427125
426940
426757
426603
426485
427134
427415
427411
427401
427386
427363
427328
427278
427208
427113
426987
426824
426618
426366
426071
425742
425399
425057
424759
424505
426589
426853
426842
426822
426792
426748
426688
426605
426493
426346
426153
425905
425591
425202
424733
424191
423596
422979
422412
421893
426077
426321
426304
426274
426229
426165
426079
425963
425809
425606
425342
425001
424563
424009
423319
422480
421498
420401
419296
418206
425600
425824
425801
425761
425702
425620
425509
425361
425166
424910
424575
424139
423571
422835
421883
420664
419129
417228
415013
412503
425162
425364
425335
425286
425215
425116
424983
424807
424574
424270
423871
423346
422655
421740
420519
418878
416652
413576
409217
402874
109471
109086
109081
109187
109154
108926
108515
107901
107109
106274
105203
104084
101755
97822.7
99654.7
111843
118474
106607
115957
116119
116318
120331
129858
192280
240450
195950
147383
110419
84264
66140.9
53504.6
44801.9
38927.9
34810.4
32233.9
30871.2
30092.4
29855.3
30381.9
31517.6
32402.2
33051.2
33659.7
33831.1
35791.2
36856
36940.4
36856.8
36694.8
36470.1
36183.9
35844.4
35477.8
35132.1
34835.3
34577.1
34337.4
34096.2
33864.4
33679.2
109529
109254
109155
109133
109174
109121
108942
108530
107744
106941
106928
106991
108214
104229
100128
101235
108419
109736
115784
115972
115731
118089
129928
175550
202384
175876
139232
108023
84719
68145.8
56484.5
48490.5
43021.7
39383.4
36996.2
35455.3
34775.2
34683.1
34436.1
35126.5
35822.8
36394.1
36978.1
37663.8
37740.2
37476.9
37368.8
37174.7
36928
36637
36305.9
35947.7
35574.8
35215
34887.2
34587.3
34300.2
34025.9
33793.8
33637.3
109355
109330
108546
109282
109297
109315
109219
108887
108185
107502
108680
105648
109208
107078
101278
97745.5
110853
103082
102415
112619
114128
121678
134067
152442
167837
153696
126462
100296
79715.5
64821.6
54391
47253
42486.1
39462.7
37619.2
36499
35967.1
35615.2
35374.6
35746.4
36281.7
36778.1
37288.2
37819.1
38054
37877.4
37690.8
37438.2
37140.5
36804.2
36436.3
36051.7
35654.7
35275
34925.3
34596.8
34280.4
33976.7
33729.6
33568.3
109805
109393
107385
109530
109497
109535
109467
109152
108443
107568
105364
95683.8
99776.6
103719
77207.3
92349.2
110047
100533
101859
103326
107598
123627
126049
134713
142040
132682
112177
90769.8
73260.1
60422.3
51479.1
45411.7
41400.9
38866.5
37347.3
36486.2
36099.4
35929
35885.4
36163.8
36593.7
37033.8
37481.3
37926.3
38148.6
38062.1
37874.7
37609.1
37294.5
36938.1
36546.3
36132.9
35689.5
35284.7
34928.4
34596.8
34270.6
33939.3
33665.6
33464.7
109727
105943
109956
109793
108811
109797
109767
109464
108679
107651
106105
107479
103275
73352.5
70159
77712.2
102168
97413.2
96875.6
106671
130295
120939
118030
119637
120471
112109
96036.1
78913.5
64822.3
54556.6
47533.1
42850.5
39812.7
37933.8
36843.9
36284
36087.1
36085.3
36190.6
36464.3
36839.2
37229.7
37618.1
37981.3
38183.3
38151.8
37985.5
37728.7
37419
37061
36657.1
36216.5
35686.9
35247.3
34902.4
34592.8
34277.3
33913.4
33610.6
33328.9
109597
109607
109987
109837
109157
108202
109825
109936
108597
107855
107009
106263
104330
93882.2
70136.1
69816.2
95303
102073
92794.9
108601
125571
115633
109455
105765
101436
92162.7
78622.3
65048.9
54468
47140.1
42455.6
39487.3
37657.5
36607.6
36076.1
35874.4
35910.2
36093.2
36345.1
36668.8
37033.7
37391.1
37725.4
38024.7
38195.3
38191.4
38054.1
37817
37529.2
37187.1
36785.4
36329.4
35631.9
35148.2
34840.6
34589.9
34312.8
33893.7
33593.5
33148.3
109445
109493
109761
110063
110557
110386
108056
109781
108620
96613.6
106829
103371
77311.3
82706.7
69653.6
69810.1
91979.9
91971.4
86401
120889
118814
109087
100378
92552.6
83966.8
72828.1
59940.5
48442.9
41567.4
37656.8
35701.9
34845.7
34575.5
34757.4
35121.6
35400.1
35690.1
36045.3
36436
36833.1
37218.5
37555.6
37826.9
38059.9
38180.8
38191.2
38096.6
37888.4
37649.2
37345.5
36967.2
36600.1
35434.5
34929.2
34778.9
34194.8
32681.2
24236
22337.9
15346.8
109266
103286
109524
110180
110778
111198
111561
108548
109965
102948
85338.1
69274.5
69266.1
69300.6
69501.5
69749.9
95826
75420.3
67875.9
122169
112193
101962
91157.6
80080.4
67781.6
52179.6
26202.1
5110.4
72.3135
49.9197
32.3919
17.9165
6.47119
-2.49031
-9.7727
-0.336267
400.989
1486.33
2840.52
4225.04
5875.76
8079.98
10734.9
14898.5
16859.3
16748
14482.2
9175.83
4965.37
2273.09
680.763
156.267
-3.70663
-3.16378
3.63276
3.9972
-0.747867
-1.67918
-2.28945
-2.56256
108838
102530
110057
110487
110974
111495
112032
112523
112673
112400
79738.8
69259.2
69259.3
69289.9
69401.8
69552.8
112020
63109.8
100880
116007
105969
94779.4
82217.2
68448.1
38545.3
121.917
97.8668
85.3823
68.7913
53.8126
39.1494
25.9724
14.7745
5.56009
-2.13214
-9.40264
-12.8547
-12.9212
-14.7544
-15.6898
-15.9293
-15.6246
-14.9767
-14.2922
-13.5276
-12.1776
-11.497
-10.7206
-9.91193
-8.89247
-6.638
-2.52705
-1.72632
-1.89629
0.274301
1.34174
-0.60892
-1.579
-2.22343
-2.60311
108698
107469
109673
108250
111101
111748
112412
113170
113101
113517
110010
69241.1
69249.7
69264
69327.4
73174.6
98423.9
69967.1
116622
110620
100189
87873.2
73797.3
38384.9
127.565
91.4446
84.8302
71.8925
57.8375
44.8609
32.4719
21.246
11.5664
3.46612
-3.31533
-9.19906
-13.3801
-15.2922
-16.1941
-16.5534
-16.4402
-16.009
-15.4277
-14.8384
-14.0887
-13.0042
-12.043
-11.0409
-9.9687
-8.67453
-6.662
-3.99534
-2.58521
-1.93603
-0.410889
0.336535
-0.629654
-1.46944
-2.10281
-2.49676
108315
109643
95586.5
108568
111223
111961
112587
108653
114501
115482
117605
85181.1
69244.7
69249.4
69264.2
107031
65910.2
88001.5
116474
106469
94942.8
81502.2
58928.6
90.2696
76.6766
77.987
68.9039
58.6618
47.6339
36.9527
26.717
17.299
9.03149
1.9667
-4.00093
-9.0524
-12.8592
-14.9691
-16.0696
-16.506
-16.4406
-16.0413
-15.4613
-14.8031
-14.0118
-13.0271
-12.0263
-10.9906
-9.87213
-8.53676
-6.75872
-4.65414
-3.16706
-2.21828
-1.07084
-0.441797
-0.856287
-1.47041
-2.02001
-2.42382
99356.7
109217
93738.2
110513
110703
112191
95070.1
113439
115511
116797
118484
122570
74107
69175.5
86339.9
112843
70280.6
121332
114899
103220
90383.7
75115.7
2052.42
65.8983
67.3439
61.0955
54.4027
46.5835
37.8932
29.2024
20.8273
13.0517
6.11856
0.0795769
-5.07203
-9.38728
-12.7373
-14.8607
-16.0064
-16.471
-16.4337
-16.054
-15.4697
-14.7738
-13.9624
-13.0197
-12.0172
-10.9667
-9.83349
-8.51559
-6.91409
-5.15079
-3.69155
-2.6244
-1.64422
-1.06667
-1.17234
-1.55961
-1.98157
-2.34068
107240
105801
109224
93749.5
109897
111259
105810
115148
115791
104365
112787
121220
123303
122226
116316
79604.4
63916.5
127045
113597
100596
86439.7
30399.2
54.7537
55.6791
52.0374
47.2636
42.0035
35.8352
28.9528
21.9661
15.1921
8.8652
3.12644
-1.96123
-6.34213
-10.009
-12.8971
-14.8591
-15.9791
-16.4457
-16.4211
-16.0542
-15.4722
-14.7609
-13.9423
-13.0191
-12.0223
-10.9684
-9.83745
-8.55976
-7.09108
-5.54016
-4.16389
-3.07605
-2.17152
-1.60626
-1.52098
-1.70785
-1.98058
-2.24321
107213
107961
87354.9
78854.7
111214
108450
114349
96032.6
116528
113957
108348
108429
123246
122471
119148
62954.1
123358
125168
112281
98449.8
82619.3
114.626
46.1183
44.034
39.8871
35.8681
31.5395
26.5242
21.0125
15.4395
10.0257
4.91986
0.206769
-4.02802
-7.70822
-10.7964
-13.243
-14.9678
-15.9927
-16.4258
-16.3972
-16.0386
-15.4623
-14.7466
-13.928
-13.0174
-12.0303
-10.984
-9.86838
-8.64224
-7.28949
-5.88353
-4.60348
-3.53727
-2.67155
-2.10033
-1.87897
-1.893
-2.01155
-2.14611
106801
101762
105066
109971
110731
91644.2
103077
92903.9
117550
119176
120854
119169
123530
123170
75083.1
53775.8
134843
123632
110981
96553.3
26035.7
36.2312
38.2146
33.8271
30.0931
26.5457
22.7799
18.578
14.1653
9.75044
5.4414
1.32511
-2.52435
-6.0165
-9.07572
-11.6478
-13.6884
-15.1526
-16.0392
-16.4093
-16.3625
-16.0074
-15.4383
-14.7261
-13.9119
-13.0114
-12.0388
-11.0075
-9.91667
-8.74693
-7.49568
-6.21665
-5.0238
-3.99385
-3.15607
-2.56662
-2.23552
-2.10168
-2.07038
-2.05893
63633.2
33032.3
68110.3
99539.1
32356.7
110765
115077
117148
118076
119560
121223
122706
123876
124599
38504.1
88830.7
132566
122278
109909
94783.8
93.2763
31.9526
29.6404
25.6143
22.1458
18.8721
15.4725
11.962
8.43053
4.90988
1.45833
-1.86252
-4.99215
-7.8511
-10.367
-12.482
-14.1582
-15.3662
-16.0981
-16.3906
-16.3162
-15.9588
-15.3973
-14.6933
-13.8871
-12.9994
-12.0456
-11.0369
-9.97839
-8.86619
-7.70408
-6.53219
-5.4212
-4.4394
-3.62521
-3.00688
-2.58603
-2.3272
-2.1554
-1.99563
13888.6
75820.2
49015.4
35551.4
74876.8
115558
116007
116989
118307
119926
121681
123158
124409
95691.1
38751
125489
130358
121194
109160
40186.2
24.1871
26.767
22.5993
18.934
15.6432
12.5593
9.5528
6.61705
3.71767
0.856775
-1.93155
-4.61513
-7.15296
-9.4776
-11.5255
-13.2446
-14.6013
-15.5726
-16.1522
-16.3627
-16.2537
-15.8897
-15.3354
-14.6431
-13.8509
-12.9818
-12.0524
-11.0737
-10.0535
-8.99639
-7.91136
-6.82519
-5.79158
-4.8605
-4.06518
-3.41996
-2.93073
-2.56818
-2.26725
-1.96066
13884
13851.1
21149.6
56257.9
77131
58501.8
24252.3
30481
73358.2
104393
122222
123983
124575
40031.1
27268.7
134884
129068
120745
108776
748.145
25.2829
21.053
16.9626
13.4691
10.3677
7.52913
4.86796
2.33391
-0.110939
-2.47084
-4.7444
-6.92446
-8.98233
-10.8644
-12.5175
-13.8997
-14.9818
-15.7451
-16.1847
-16.3138
-16.1685
-15.7968
-15.25
-14.5734
-13.8016
-12.9572
-12.0575
-11.1149
-10.137
-9.1326
-8.11485
-7.10372
-6.13679
-5.25266
-4.47445
-3.81348
-3.27371
-2.82318
-2.40692
-1.96394
13879
13869.1
13856.1
13841.9
13849.2
13921.7
13932.7
13964.4
13997.7
14133.4
29440.2
81994.4
57050.7
18384.5
95514.4
133656
128981
121120
84996.1
15.1163
20.7652
16.0947
12.2939
9.03533
6.16907
3.56434
1.16599
-1.06254
-3.15531
-5.13227
-7.01214
-8.79987
-10.4737
-11.9937
-13.3207
-14.4221
-15.2736
-15.8609
-16.1776
-16.2334
-16.0545
-15.6763
-15.1396
-14.4822
-13.735
-12.9202
-12.0548
-11.1529
-10.2213
-9.26935
-8.31267
-7.36681
-6.45887
-5.61902
-4.86134
-4.19512
-3.61624
-3.09098
-2.57365
-2.00947
13875.4
13869.1
13859.6
13855.1
13863.1
13897.9
13927.7
13964.6
14011.7
14095.1
14224.4
14439
15453.7
17170.3
133727
134853
130001
122301
13963.6
18.8219
15.2351
11.671
8.38283
5.45411
2.82884
0.44416
-1.72084
-3.69749
-5.51505
-7.20127
-8.78318
-10.2673
-11.6359
-12.8649
-13.9276
-14.7995
-15.4634
-15.9056
-16.1193
-16.1133
-15.9064
-15.5246
-15.001
-14.3663
-13.6476
-12.8664
-12.0393
-11.1804
-10.2979
-9.40054
-8.5032
-7.61891
-6.7671
-5.96809
-5.23276
-4.56475
-3.95291
-3.36679
-2.76617
-2.10103
13873.2
13867.3
13861.5
13859.2
13864.6
13885.7
13913.1
13947.6
13992.4
14067.2
14200.8
14385.8
14802.6
22864.4
137406
136384
131984
124970
41.7888
12.4637
10.8379
7.9358
5.14003
2.5498
0.177378
-1.9807
-3.93042
-5.69358
-7.29501
-8.76182
-10.117
-11.3638
-12.4933
-13.4919
-14.3449
-15.0344
-15.5476
-15.8717
-16.0027
-15.9488
-15.7203
-15.3387
-14.8309
-14.2223
-13.5357
-12.7915
-12.0061
-11.1913
-10.3586
-9.51669
-8.67725
-7.85114
-7.0518
-6.2936
-5.58185
-4.91416
-4.2784
-3.64698
-2.98289
-2.23802
13873.2
13866
13860.6
13858.7
13862.2
13875.1
13896.3
13925.9
13964.5
14026.1
14188.8
14235
14586.8
118317
141158
139249
134937
53186.2
1.15913
9.22925
7.09299
4.80845
2.46344
0.203397
-1.90487
-3.83391
-5.58271
-7.16402
-8.59371
-9.89008
-11.0676
-12.1304
-13.0747
-13.8953
-14.5847
-15.132
-15.5264
-15.758
-15.8261
-15.7361
-15.4933
-15.1163
-14.6273
-14.0477
-13.3967
-12.6921
-11.9497
-11.1806
-10.3974
-9.6092
-8.82531
-8.05411
-7.30474
-6.58645
-5.89957
-5.23838
-4.59088
-3.9308
-3.22277
-2.41887
13878
13866.9
13858.8
13855.1
13855.9
13863.2
13878.4
13902.9
13936.8
14002.4
14107.3
14090.9
13791.7
147277
145831
143283
138956
3574.03
10.4713
5.67609
4.07515
2.22512
0.273163
-1.66919
-3.51139
-5.21956
-6.78427
-8.20701
-9.4939
-10.6514
-11.6881
-12.6083
-13.411
-14.0967
-14.6612
-15.099
-15.4031
-15.5662
-15.5881
-15.4718
-15.2233
-14.856
-14.3891
-13.8414
-13.2283
-12.5648
-11.8663
-11.1444
-10.411
-9.67421
-8.94271
-8.22267
-7.52113
-6.84239
-6.18438
-5.53922
-4.89241
-4.21798
-3.48362
-2.63976
13914
13872
13856.8
13849.8
13847.6
13850.4
13860.1
13879.8
13913.4
14158.9
13964.9
13982.3
89300.9
153085
151240
148131
138806
-3.74239
3.51305
2.69155
1.55847
0.122692
-1.48807
-3.13108
-4.72066
-6.22261
-7.61915
-8.89966
-10.0601
-11.1008
-12.026
-12.8363
-13.5331
-14.1186
-14.5904
-14.9463
-15.1838
-15.2976
-15.2873
-15.1564
-14.9101
-14.5579
-14.1165
-13.6026
-13.0284
-12.4079
-11.7543
-11.0805
-10.3967
-9.70986
-9.02848
-8.35772
-7.70273
-7.06521
-6.44078
-5.8193
-5.18317
-4.50684
-3.76046
-2.89512
15632.4
13870.6
13852.8
13843.4
13838.7
13838
13842.7
13861.4
14200.2
13986.9
13926.6
14041.9
158288
159528
157152
153551
35588
2.2191
0.642921
0.33198
-0.42934
-1.54411
-2.86015
-4.23422
-5.59676
-6.91148
-8.15176
-9.3025
-10.3523
-11.2945
-12.1295
-12.8551
-13.473
-13.9846
-14.3898
-14.687
-14.8769
-14.9571
-14.9278
-14.7925
-14.5543
-14.2223
-13.81
-13.3308
-12.7964
-12.2203
-11.613
-10.9867
-10.3515
-9.71399
-9.0821
-8.46024
-7.85188
-7.25683
-6.67021
-6.07803
-5.46042
-4.79384
-4.0485
-3.17764
15704.3
13841.9
13837.3
13834.4
13829.9
13827.4
13828.6
13847.6
14272.3
13870.1
13902.9
43603.5
167992
166207
163341
159912
16.064
-2.24351
-1.31417
-1.38918
-1.92926
-2.81018
-3.88062
-5.02541
-6.19109
-7.33808
-8.43878
-9.47353
-10.4254
-11.284
-12.0449
-12.7044
-13.2623
-13.7197
-14.0775
-14.3347
-14.4933
-14.5537
-14.5162
-14.3834
-14.1584
-13.8504
-13.4696
-13.0268
-12.5336
-12.0017
-11.4408
-10.8619
-10.2739
-9.68537
-9.1026
-8.52907
-7.96742
-7.41564
-6.86911
-6.31156
-5.7207
-5.07415
-4.34204
-3.4797
14552.3
13908.6
13815
13822.5
13821.7
13819.4
13821.9
14051.7
13881.6
13852.6
13913.6
161913
175258
173024
169680
105162
-17.2118
-1.37497
-2.51366
-2.59218
-3.00704
-3.71876
-4.59166
-5.54993
-6.5498
-7.5528
-8.53192
-9.46339
-10.3295
-11.1164
-11.8149
-12.4212
-12.9321
-13.3491
-13.6728
-13.904
-14.0444
-14.0958
-14.0587
-13.9338
-13.7271
-13.4452
-13.0968
-12.6923
-12.2412
-11.753
-11.2376
-10.7054
-10.1647
-9.62428
-9.08944
-8.56331
-8.04739
-7.53969
-7.03484
-6.51592
-5.95936
-5.34161
-4.63467
-3.79411
13797
13922
13795.6
13810.3
13814.3
13814.2
13812.9
14137.2
13839.9
13851.8
22406.8
184621
182669
179897
176218
15724.4
0.18279
-3.57509
-3.37571
-3.39003
-3.73564
-4.32122
-5.04202
-5.85494
-6.71947
-7.60231
-8.47709
-9.31896
-10.1093
-10.8333
-11.4786
-12.0397
-12.512
-12.8973
-13.1962
-13.4108
-13.5418
-13.5913
-13.5604
-13.4498
-13.2652
-13.0107
-12.6957
-12.3303
-11.9212
-11.4763
-11.0056
-10.519
-10.025
-9.53086
-9.042
-8.56161
-8.09035
-7.62739
-7.16521
-6.68745
-6.17094
-5.59058
-4.92015
-4.11364
13798
13779.6
13788.1
13801.1
13808.1
13810.4
13816.7
13839
13842.4
13862.7
171073
192248
189998
186752
184089
-4.22833
-4.13328
-4.1305
-3.84427
-3.86662
-4.17802
-4.67086
-5.28255
-5.98477
-6.74316
-7.52853
-8.3156
-9.08075
-9.80458
-10.4714
-11.0691
-11.5899
-12.0292
-12.3882
-12.6681
-12.8714
-12.9988
-13.0512
-13.0308
-12.9388
-12.7777
-12.5523
-12.2715
-11.9442
-11.5761
-11.1745
-10.7483
-10.3056
-9.856
-9.40561
-8.96046
-8.52371
-8.09606
-7.67673
-7.25696
-6.82205
-6.35013
-5.81528
-5.19179
-4.43212
14016.1
13786.7
13787.6
13796
13803.1
13807.1
13828.2
13847.6
13837.8
21401.7
202025
200016
197239
193618
52342.6
-6.33352
-3.92941
-4.1807
-4.01226
-4.10002
-4.39773
-4.8271
-5.36316
-5.98381
-6.66043
-7.36769
-8.08235
-8.78148
-9.44612
-10.0611
-10.6144
-11.0982
-11.5082
-11.8438
-12.108
-12.3032
-12.4299
-12.4892
-12.4821
-12.4087
-12.2712
-12.0757
-11.8292
-11.5391
-11.2109
-10.8513
-10.4677
-10.0675
-9.66012
-9.25107
-8.84669
-8.45049
-8.06426
-7.68553
-7.30672
-6.91519
-6.49021
-6.0077
-5.44174
-4.743
14018.8
13785.1
13786.4
13791.9
13798.6
13805.1
13810.8
13846.7
13844
188006
209952
207623
204383
201160
12.3141
-5.70859
-4.58887
-4.16269
-4.04967
-4.17389
-4.45582
-4.84371
-5.32998
-5.89205
-6.5065
-7.15138
-7.80535
-8.44725
-9.05939
-9.6267
-10.1383
-10.5872
-10.9689
-11.2833
-11.5343
-11.7231
-11.8501
-11.918
-11.9242
-11.8688
-11.7557
-11.589
-11.3751
-11.121
-10.8308
-10.5099
-10.1667
-9.80808
-9.44036
-9.06981
-8.70298
-8.34323
-7.99402
-7.65237
-7.31147
-6.96109
-6.58303
-6.15753
-5.66087
-5.0414
13779.8
13780.4
13783.5
13788.2
13794
13802.1
13873.9
13814.5
44390.7
219932
217931
215086
211499
109423
-13.0123
-4.64433
-4.35633
-4.01054
-3.97578
-4.12931
-4.39839
-4.76533
-5.22011
-5.74034
-6.30809
-6.9024
-7.50569
-8.09749
-8.66258
-9.18718
-9.66063
-10.0762
-10.4305
-10.7251
-10.9638
-11.1466
-11.2741
-11.3493
-11.3676
-11.3302
-11.2398
-11.0994
-10.916
-10.6949
-10.4399
-10.1557
-9.8504
-9.52973
-9.1982
-8.86342
-8.53086
-8.20344
-7.8856
-7.57613
-7.2686
-6.95464
-6.62073
-6.25341
-5.83752
-5.32403
13776.7
13777.1
13780.3
13784.5
13789.8
13881.7
13827.2
13825
220675
228104
225676
222425
219004
5508.92
1.55074
-4.04241
-3.85399
-3.76582
-3.82329
-4.00091
-4.27045
-4.62954
-5.06379
-5.55427
-6.08519
-6.63838
-7.19835
-7.74694
-8.27078
-8.75675
-9.19579
-9.58016
-9.90991
-10.1865
-10.4134
-10.5901
-10.7176
-10.7966
-10.8238
-10.8015
-10.73
-10.6135
-10.4578
-10.266
-10.0434
-9.79352
-9.52196
-9.23422
-8.93617
-8.63417
-8.33189
-8.03263
-7.74073
-7.45739
-7.17719
-6.89317
-6.5965
-6.28197
-5.952
-5.58123
13774.1
13775.2
13777.5
13781.4
13842.9
13896.2
13821.1
141296
238256
236158
233230
229721
173163
-16.9912
-2.79719
-3.64881
-3.51663
-3.52414
-3.63459
-3.82852
-4.10732
-4.46539
-4.88534
-5.35301
-5.85395
-6.37185
-6.89409
-7.40497
-7.89204
-8.34336
-8.75049
-9.10952
-9.41817
-9.67599
-9.89236
-10.0655
-10.1939
-10.2743
-10.3068
-10.2933
-10.2347
-10.1365
-10.003
-9.83762
-9.64429
-9.42534
-9.18336
-8.92511
-8.65735
-8.38381
-8.10787
-7.83251
-7.56165
-7.29869
-7.03912
-6.77655
-6.5057
-6.22839
-5.96978
-5.79291
13773
13773.7
13774.9
13792.4
13830.3
13782
21654.5
248466
246561
243936
240693
237326
16469.2
0.27161
-4.00297
-3.41854
-3.27608
-3.31068
-3.43709
-3.64508
-3.93466
-4.29194
-4.70053
-5.14885
-5.62374
-6.11122
-6.60005
-7.07663
-7.52974
-7.94781
-8.32294
-8.6475
-8.93396
-9.18171
-9.39212
-9.5629
-9.69223
-9.77632
-9.8171
-9.81371
-9.76862
-9.68488
-9.56555
-9.41764
-9.2448
-9.04976
-8.83428
-8.60356
-8.3628
-8.11417
-7.86099
-7.6052
-7.35123
-7.10332
-6.85766
-6.60832
-6.35024
-6.0847
-5.83717
-5.72767
13773.2
13771.3
13772.5
13792.5
13789.9
13770.3
250702
256894
254542
251557
248199
200153
-15.2608
-3.23806
-3.69846
-3.17502
-3.06592
-3.10877
-3.24371
-3.46793
-3.76714
-4.12238
-4.52025
-4.95112
-5.40174
-5.86167
-6.31902
-6.76256
-7.18036
-7.56029
-7.89403
-8.19853
-8.47122
-8.71032
-8.91461
-9.08168
-9.21034
-9.29803
-9.34517
-9.35065
-9.31932
-9.25069
-9.14711
-9.01676
-8.86131
-8.68247
-8.48371
-8.27125
-8.05019
-7.8234
-7.59166
-7.35339
-7.11336
-6.87589
-6.6388
-6.39754
-6.1444
-5.87204
-5.57418
-5.21868
13767.1
13770.6
13774.9
13776.3
13774.3
227674
267186
265037
262318
259202
256141
15545.7
0.972171
-3.82966
-3.22446
-2.92174
-2.86171
-2.91424
-3.06699
-3.30845
-3.6134
-3.96415
-4.35097
-4.76409
-5.19164
-5.62385
-6.05024
-6.45798
-6.83356
-7.17124
-7.48435
-7.77262
-8.03178
-8.26078
-8.4579
-8.62095
-8.74848
-8.83842
-8.8899
-8.90382
-8.88316
-8.82653
-8.73835
-8.62409
-8.48543
-8.32357
-8.14217
-7.94699
-7.73983
-7.52394
-7.3033
-7.07722
-6.84982
-6.62154
-6.39112
-6.15631
-5.90861
-5.63552
-5.31512
-4.87986
13756.7
13770.1
13770.7
13770.2
213461
277350
275418
272974
270105
266993
178536
-15.4385
-2.91065
-3.41918
-2.86366
-2.69234
-2.66424
-2.73765
-2.91748
-3.17336
-3.47867
-3.82215
-4.19529
-4.58966
-4.99367
-5.39721
-5.78919
-6.15425
-6.48685
-6.8022
-7.09659
-7.36815
-7.61386
-7.83201
-8.02161
-8.1798
-8.30464
-8.39518
-8.45091
-8.47254
-8.45983
-8.41362
-8.33923
-8.23861
-8.11432
-7.96805
-7.80263
-7.6245
-7.43412
-7.23298
-7.02366
-6.80425
-6.57785
-6.35043
-6.12329
-5.89508
-5.65725
-5.40043
-5.11324
-4.77567
13723.6
13769.2
13757.3
239165
287485
285660
283487
280895
278026
275592
44.8667
-7.29181
-4.46614
-3.11354
-2.61531
-2.48487
-2.47729
-2.58904
-2.79694
-3.06094
-3.36251
-3.69534
-4.05245
-4.42583
-4.80439
-5.17671
-5.52778
-5.85009
-6.15952
-6.45339
-6.72941
-6.9849
-7.21694
-7.42442
-7.60517
-7.75729
-7.87869
-7.9694
-8.02807
-8.05499
-8.04985
-8.01311
-7.94956
-7.86108
-7.74979
-7.6177
-7.46759
-7.30454
-7.12929
-6.94298
-6.74722
-6.54141
-6.32691
-6.10575
-5.87858
-5.64744
-5.41444
-5.17949
-4.94872
-4.75197
72731.3
45695.1
298893
297675
295965
294028
291727
289090
286209
75948.6
-5.56139
-4.34355
-3.51924
-2.69754
-2.41567
-2.32249
-2.3522
-2.50191
-2.72189
-2.98176
-3.27193
-3.58731
-3.92265
-4.27083
-4.62002
-4.95435
-5.26313
-5.56127
-5.84845
-6.12189
-6.38028
-6.62024
-6.83944
-7.0363
-7.2076
-7.35285
-7.47085
-7.56069
-7.62008
-7.6503
-7.65204
-7.62382
-7.56977
-7.4923
-7.39285
-7.27317
-7.13754
-6.98803
-6.82602
-6.6548
-6.47343
-6.28183
-6.08182
-5.87602
-5.6669
-5.4536
-5.23661
-5.023
-4.82658
-4.66924
424762
424943
424909
424852
424770
424657
424505
424305
424042
423697
423245
422648
421856
420792
419344
417329
414444
410090
402827
389332
424390
424557
424519
424456
424365
424240
424073
423854
423567
423192
422701
422054
421194
420035
418447
416216
412971
407999
399854
385037
424047
424198
424157
424089
423991
423856
423678
423445
423141
422747
422233
421560
420669
419477
417857
415614
412433
407815
400924
390114
423733
423868
423825
423753
423649
423509
423323
423081
422768
422365
421844
421167
420282
419113
417556
415456
412594
408656
403199
395676
423450
423569
423524
423450
423343
423199
423009
422763
422448
422045
421530
420869
420017
418912
417473
415587
413108
409849
405596
400204
423199
423301
423256
423181
423073
422927
422736
422492
422180
421785
421286
420654
419852
418831
417531
415873
413764
411096
407767
403726
422980
423066
423021
422946
422838
422694
422505
422265
421961
421580
421103
420507
419762
418832
417671
416226
414438
412245
409593
406462
422793
422864
422819
422746
422640
422498
422314
422081
421788
421424
420973
420415
419729
418885
417851
416591
415067
413242
411086
408589
422637
422693
422650
422579
422477
422339
422162
421937
421657
421312
420888
420369
419737
418971
418047
416941
415628
414086
412295
410249
422509
422553
422514
422446
422348
422216
422046
421832
421566
421241
420844
420362
419780
419081
418249
417269
416123
414797
413275
411547
422407
422443
422409
422346
422253
422127
421966
421765
421517
421214
420845
420400
419862
419218
418458
417570
416544
415365
414014
412473
422314
422361
422338
422280
422190
422070
421918
421726
421488
421196
420841
420412
419890
419263
418528
417689
416732
415637
414393
412983
422161
422315
422299
422233
422142
422022
421871
421680
421443
421155
420805
420381
419852
419220
417542
411573
397329
369792
324693
239146
-9.17626
83631
79836.9
73107
72773
70468.8
63656.2
53601.3
41638.5
28859.9
16125.5
1032.21
-4.14053
-4.51897
-5.17414
-5.79875
-6.15165
-4.43912
4.47502
3.37691
-1.84134
0.55668
0.314966
0.254772
0.286503
0.312984
0.316777
0.29356
0.239714
0.133764
-0.0376331
-0.283238
-0.865755
-1.05601
-1.16998
-1.2362
-1.21499
-0.910385
-0.375515
-0.668109
-0.554846
-0.248517
-0.220499
-0.130259
-0.0918331
-0.109172
-0.141646
-0.176872
-0.210081
-0.230678
-0.198071
-0.103365
-0.154059
-0.247243
-0.342303
-0.426525
-0.48941
-0.503702
-0.459784
-0.528305
-0.349219
-0.315417
-0.266328
-0.209077
-0.178701
-0.177276
-0.190125
-0.206491
-0.220008
-0.223258
-0.205955
-0.174175
-0.176747
-0.217634
-0.276023
-0.336203
-0.388062
-0.422993
-0.443828
-0.481395
-0.314108
-0.276274
-0.246947
-0.222495
-0.207252
-0.203497
-0.207238
-0.213506
-0.218527
-0.218255
-0.209279
-0.196652
-0.19679
-0.216837
-0.25192
-0.294129
-0.336896
-0.375691
-0.410527
-0.447693
-0.292707
-0.255622
-0.237484
-0.226349
-0.21871
-0.215574
-0.215766
-0.217127
-0.218094
-0.217115
-0.213097
-0.208842
-0.211401
-0.225428
-0.250357
-0.282731
-0.318708
-0.355683
-0.392802
-0.430792
-0.287114
-0.250952
-0.239909
-0.232078
-0.226567
-0.223243
-0.221581
-0.220625
-0.219945
-0.219208
-0.218206
-0.218559
-0.223783
-0.236638
-0.257608
-0.285064
-0.316939
-0.352005
-0.389138
-0.427295
-0.291578
-0.261413
-0.246662
-0.23844
-0.233363
-0.229996
-0.227642
-0.225915
-0.224909
-0.224809
-0.225766
-0.228905
-0.236295
-0.249659
-0.269221
-0.294405
-0.324616
-0.358886
-0.39585
-0.434032
-0.269828
-0.258881
-0.247041
-0.241405
-0.238093
-0.235802
-0.233999
-0.232806
-0.232777
-0.234055
-0.236809
-0.241907
-0.251073
-0.265461
-0.284846
-0.309333
-0.339075
-0.372932
-0.40923
-0.446918
-0.21436
-0.238853
-0.239934
-0.240496
-0.240274
-0.23988
-0.23939
-0.239515
-0.241078
-0.244085
-0.248579
-0.255439
-0.266243
-0.281658
-0.301299
-0.325519
-0.354683
-0.387686
-0.422999
-0.460152
-0.12623
-0.213012
-0.232392
-0.239795
-0.242312
-0.243088
-0.243452
-0.244477
-0.24705
-0.251326
-0.257496
-0.266372
-0.278921
-0.295474
-0.3158
-0.340156
-0.368866
-0.401219
-0.436275
-0.473643
337271
336881
335746
335553
338379
343695
350510
357619
363828
368173
370003
368985
364799
356614
341637
355342
340346
335585
335182
337551
342265
348511
355138
360965
365026
366695
365652
361681
354472
343849
374480
355393
344322
340216
340725
344382
349804
355637
360688
364078
365316
364225
360813
355222
347904
386185
373971
363610
356968
354238
354710
357329
360680
363624
365426
365702
364333
361367
356984
351536
393536
385600
378182
372397
368708
367031
366920
367571
368216
368322
367558
365767
362931
359150
354663
398881
393191
387641
382840
379130
376561
374948
373906
373003
371869
370247
367991
365065
361533
357549
402792
398482
394136
390096
386592
383713
381364
379367
377477
375471
373185
370523
367441
363956
360246
405700
402297
398773
395323
392095
389141
386429
383876
381374
378809
376069
373079
369890
358000
156385
407897
405112
402162
399146
396140
393189
390310
387484
384658
381761
378852
352946
125850
-21.0201
4.06775
409558
407170
404576
401831
399000
396124
393242
390355
387651
325351
49705.9
-5.57482
3.38132
-1.70593
-2.01658
410678
408507
406149
403611
401018
398409
380025
220203
-32.7313
0.0793848
3.95953
-0.655793
-1.3035
-1.32229
-1.25845
411358
409417
404851
354558
202111
1738.48
-9.97254
4.38922
0.00988671
-1.8103
-1.36106
-1.04046
-1.00144
-1.0666
-1.09787
124429
8065.47
-19.312
0.519813
3.82118
0.374516
-1.93009
-1.76407
-1.28156
-1.16284
-1.01946
-0.974145
-0.979021
-1.00613
-1.03398
2.15568
0.813959
-2.04737
-1.30159
-1.48578
-1.17774
-1.14864
-1.04699
-0.986998
-0.961854
-0.934369
-0.929679
-0.946606
-0.975871
-1.00938
-0.955315
-0.771378
-0.856627
-0.880646
-0.908374
-0.918651
-0.91766
-0.895975
-0.878839
-0.875242
-0.882331
-0.901487
-0.931153
-0.96746
-1.00724
-0.62714
-0.660016
-0.704965
-0.742621
-0.771648
-0.793025
-0.804643
-0.811066
-0.820891
-0.8385
-0.863918
-0.89609
-0.934009
-0.976413
-1.02215
-0.532594
-0.577927
-0.619123
-0.657163
-0.690929
-0.721056
-0.747039
-0.771252
-0.797728
-0.829207
-0.865763
-0.906738
-0.951594
-1.00004
-1.05105
-0.489337
-0.533255
-0.574801
-0.614075
-0.651321
-0.687345
-0.722605
-0.757997
-0.795331
-0.836476
-0.881493
-0.929302
-0.979051
-1.03087
-1.0846
-0.470837
-0.513932
-0.55584
-0.596491
-0.636449
-0.676974
-0.719048
-0.762724
-0.808104
-0.855585
-0.905371
-0.957164
-1.01087
-1.06562
-1.12067
-0.466903
-0.509992
-0.553144
-0.596385
-0.640056
-0.684986
-0.731728
-0.779962
-0.82969
-0.88102
-0.933827
-0.988105
-1.04412
-1.10129
-1.15818
-0.473923
-0.518259
-0.563649
-0.609545
-0.655765
-0.702993
-0.752275
-0.803344
-0.855593
-0.909318
-0.964795
-1.02177
-1.07987
-1.13875
-1.19699
-0.486905