/*--------------------------------*- C++ -*----------------------------------*\
| =========                 |                                                 |
| \\      /  F ield         | OpenFOAM: The Open Source CFD Toolbox           |
|  \\    /   O peration     | Version:  v1912                                 |
|   \\  /    A nd           | Website:  www.openfoam.com                      |
|    \\/     M anipulation  |                                                 |
\*---------------------------------------------------------------------------*/
FoamFile
{
    version     2.0;
    format      ascii;
    class       surfaceScalarField;
    location    "24";
    object      phi;
}
// * * * * * * * * * * * * * * * * * * * * * * * * * * * * * * * * * * * * * //

dimensions      [0 3 -1 0 0 0 0];
oriented        oriented;


internalField   nonuniform List<scalar> 
40282
(
0.00277752
0.00264775
1.92221
-1.92878
1.92319
0.0055884
-1.91414
1.9019
0.0122406
-1.8867
1.86858
0.0181119
-1.8476
1.82375
0.0238508
-1.7971
1.76774
0.0293532
-1.73576
1.70116
0.0345978
-1.66404
1.62443
0.0396054
-1.58241
1.5381
0.0443137
-1.49147
1.44271
0.0487636
-1.39173
1.33876
0.0529755
-1.28372
1.22683
0.0568883
-1.16811
1.10766
0.0604547
-1.04564
0.981956
0.063689
-0.917093
0.850688
0.0664043
-0.78344
0.714632
0.0688074
-0.645256
0.574474
0.0707821
-0.502724
0.430451
0.0722723
-0.355011
0.276782
0.078229
-0.181465
0.072685
0.10878
-0.00423776
0.0056113
1.85721
-1.85269
1.84572
-0.0141163
0.0210865
-1.83603
1.82359
-0.0256646
0.0381074
-1.80837
1.79039
-0.0369281
0.0549121
-1.76969
1.74631
-0.047964
0.071343
-1.72029
1.69168
-0.058739
0.0873502
-1.6605
1.62681
-0.0691661
0.102855
-1.59065
1.55207
-0.0791785
0.117759
-1.51113
1.46788
-0.0887364
0.131988
-1.4224
1.37471
-0.0978133
0.145501
-1.32489
1.273
-0.106363
0.158251
-1.2191
1.16324
-0.114317
0.170178
-1.10548
1.04588
-0.121602
0.181203
-0.984528
0.921476
-0.128192
0.191244
-0.856786
0.790605
-0.134002
0.200183
-0.722907
0.65403
-0.138944
0.207822
-0.58399
0.513053
-0.14281
0.213747
-0.441798
0.370261
-0.145629
0.217165
-0.297375
0.222561
-0.155136
0.22995
-0.149136
0.0771892
-0.183262
0.255208
-0.00702215
0.00837476
1.79064
-1.78646
1.77963
-0.0282313
0.0350551
-1.77015
1.75803
-0.0507364
0.0628575
-1.74328
1.72592
-0.0729582
0.0903177
-1.70597
1.68343
-0.0947429
0.117277
-1.65835
1.63074
-0.115979
0.143585
-1.60065
1.56811
-0.136562
0.169097
-1.53318
1.49589
-0.156361
0.193652
-1.45629
1.41446
-0.175261
0.217099
-1.37044
1.32431
-0.193194
0.239324
-1.27614
1.226
-0.210112
0.26025
-1.17397
1.12011
-0.225964
0.279821
-1.0645
1.00719
-0.240689
0.297997
-0.948244
0.887718
-0.254198
0.314725
-0.825666
0.762145
-0.26634
0.329861
-0.697219
0.630999
-0.276787
0.343007
-0.563597
0.495257
-0.284806
0.353146
-0.426103
0.355694
-0.289416
0.359826
-0.283783
0.211314
-0.304365
0.376833
-0.139817
0.0695678
-0.326957
0.397206
-0.00966317
0.0109427
1.72652
-1.72265
1.71621
-0.0417903
0.0482279
-1.70721
1.69567
-0.0749071
0.0864527
-1.68159
1.66499
-0.107617
0.124214
-1.64589
1.62432
-0.139754
0.161332
-1.60028
1.57381
-0.171144
0.197614
-1.54494
1.51369
-0.201612
0.232862
-1.4801
1.44421
-0.230961
0.266851
-1.40606
1.3657
-0.259001
0.299356
-1.32319
1.27858
-0.285578
0.330187
-1.23194
1.18334
-0.310566
0.359166
-1.13287
1.0806
-0.333869
0.386139
-1.02663
0.971056
-0.355438
0.41101
-0.913973
0.855471
-0.375248
0.43375
-0.795631
0.734533
-0.393202
0.4543
-0.672258
0.608886
-0.408861
0.472233
-0.544511
0.47918
-0.420949
0.48628
-0.41264
0.344468
-0.42987
0.498042
-0.274834
0.204629
-0.448379
0.518584
-0.134708
0.0655765
-0.467456
0.536588
-0.0121659
0.0133762
1.66469
-1.66103
1.65492
-0.0546171
0.0607223
-1.64639
1.63543
-0.097918
0.108874
-1.62206
1.6063
-0.140705
0.156473
-1.58814
1.56762
-0.182783
0.203308
-1.54474
1.51953
-0.223943
0.249157
-1.492
1.46218
-0.263969
0.293785
-1.43011
1.3958
-0.302606
0.33691
-1.35931
1.32066
-0.3396
0.37825
-1.2799
1.23708
-0.374725
0.417546
-1.19225
1.14546
-0.407758
0.454541
-1.0968
1.04632
-0.438486
0.488963
-0.994117
0.940284
-0.466743
0.520576
-0.884924
0.828146
-0.492451
0.549228
-0.770066
0.7108
-0.515546
0.574812
-0.650464
0.589165
-0.535602
0.596901
-0.526983
0.463843
-0.551406
0.614546
-0.399406
0.333403
-0.565653
0.631655
-0.266121
0.198204
-0.587381
0.655299
-0.130121
0.0625541
-0.604847
0.672414
-0.0145269
0.0156588
1.60519
-1.60157
1.59583
-0.0667586
0.0724973
-1.58781
1.5775
-0.119709
0.130015
-1.56492
1.55007
-0.172076
0.186927
-1.53295
1.51359
-0.223636
0.243004
-1.49197
1.46813
-0.274154
0.298
-1.44207
1.4138
-0.323377
0.351643
-1.38335
1.35074
-0.370998
0.403607
-1.316
1.27916
-0.416706
0.453549
-1.24025
1.19931
-0.46021
0.501151
-1.15638
1.11151
-0.501217
0.546082
-1.06477
1.0162
-0.539406
0.587975
-0.965878
0.913888
-0.574468
0.626457
-0.860321
0.805283
-0.606168
0.661207
-0.748891
0.691276
-0.634314
0.691928
-0.632577
0.57292
-0.65843
0.718087
-0.512375
0.450834
-0.677814
0.739356
-0.388012
0.32381
-0.697272
0.761475
-0.258533
0.192609
-0.721742
0.787666
-0.126244
0.0602982
-0.738553
0.804499
-0.016728
0.0177717
1.54749
-1.54445
1.53912
-0.0781403
0.0834714
-1.53166
1.52208
-0.140154
0.149738
-1.51037
1.49653
-0.201551
0.215389
-1.48056
1.46247
-0.262097
0.28019
-1.44225
1.41991
-0.32154
0.343884
-1.39544
1.36886
-0.379593
0.406174
-1.34017
1.30939
-0.435908
0.466691
-1.27653
1.2416
-0.490114
0.525038
-1.20464
1.16567
-0.541861
0.580835
-1.12471
1.08182
-0.590782
0.633677
-1.03703
0.990389
-0.636463
0.683102
-0.941961
0.891814
-0.678468
0.728615
-0.840027
0.786694
-0.716388
0.769721
-0.731925
0.67585
-0.74981
0.805886
-0.618609
0.560334
-0.778105
0.83638
-0.501088
0.440772
-0.801263
0.861579
-0.379209
0.31644
-0.825569
0.888338
-0.25276
0.188443
-0.852302
0.916619
-0.123514
0.0590782
-0.868906
0.933341
-0.0187495
0.0196944
1.49223
-1.48945
1.48458
-0.0886745
0.0935499
-1.47775
1.46898
-0.159099
0.167878
-1.45824
1.44553
-0.228921
0.24163
-1.43084
1.41416
-0.297912
0.314588
-1.39549
1.37481
-0.365813
0.386496
-1.3521
1.32738
-0.432321
0.457049
-1.30062
1.27182
-0.497048
0.525842
-1.24099
1.20813
-0.55957
0.592429
-1.17325
1.13636
-0.619478
0.656367
-1.09748
1.05664
-0.676326
0.717173
-1.01385
0.969171
-0.729604
0.774286
-0.922637
0.874308
-0.778751
0.82708
-0.824251
0.772548
-0.823189
0.874892
-0.7193
0.664628
-0.862256
0.916928
-0.608668
0.55155
-0.895108
0.952226
-0.493332
0.433949
-0.922447
0.98183
-0.373335
0.31164
-0.951329
1.01302
-0.249149
0.186048
-0.98005
1.04315
-0.12222
0.0593582
-0.99672
1.05958
-0.0205693
0.0214035
1.43883
-1.43617
1.43181
-0.0982616
0.102625
-1.4257
1.41782
-0.17637
0.184245
-1.40817
1.39673
-0.253947
0.265391
-1.38347
1.36838
-0.330785
0.345875
-1.35143
1.3326
-0.406642
0.425473
-1.31186
1.28919
-0.481212
0.503881
-1.26457
1.23797
-0.554076
0.580673
-1.20938
1.17879
-0.624767
0.655362
-1.14618
1.11154
-0.692811
0.727445
-1.07489
1.03622
-0.757683
0.796355
-0.995543
0.952889
-0.818768
0.861422
-0.908286
0.861776
-0.875374
0.921884
-0.813413
0.763267
-0.926743
0.976889
-0.711429
0.658008
-0.971952
1.02537
-0.603135
0.546936
-1.00992
1.06612
-0.489472
0.430724
-1.04199
1.10073
-0.370727
0.309707
-1.07538
1.1364
-0.247954
0.185625
-1.10606
1.16839
-0.122428
0.0614954
-1.12322
1.18416
-0.0221636
0.0228747
1.38749
-1.38517
1.38137
-0.106787
0.11058
-1.37605
1.36918
-0.191766
0.198635
-1.36074
1.35071
-0.276347
0.286382
-1.33905
1.32572
-0.360369
0.373692
-1.3107
1.29393
-0.443628
0.460393
-1.27539
1.25501
-0.525833
0.546207
-1.23277
1.20861
-0.606551
0.630706
-1.18251
1.15442
-0.685282
0.713374
-1.12431
1.09215
-0.761491
0.793651
-1.05791
1.02159
-0.834571
0.870892
-0.983174
0.942659
-0.903794
0.944309
-0.900058
0.855393
-0.96832
1.01298
-0.808703
0.760041
-1.0272
1.07586
-0.709484
0.65713
-1.07922
1.13157
-0.603103
0.547524
-1.12304
1.17862
-0.490466
0.431964
-1.16052
1.21902
-0.372139
0.311274
-1.1986
1.25946
-0.249675
0.187511
-1.23143
1.29359
-0.124215
0.0653685
-1.24977
1.30862
-0.0235077
0.0240835
1.33784
-1.33588
1.33272
-0.114131
0.117295
-1.32827
1.32252
-0.205078
0.210833
-1.31542
1.30695
-0.295825
0.304295
-1.29706
1.28571
-0.386286
0.397642
-1.27283
1.25838
-0.476325
0.490781
-1.24228
1.22448
-0.565685
0.583486
-1.20491
1.1835
-0.653949
0.675355
-1.1602
1.13492
-0.740593
0.765864
-1.10763
1.07825
-0.825034
0.854412
-1.04674
1.01304
-0.906589
0.940283
-0.97713
0.938969
-0.984409
1.02257
-0.898542
0.855845
-1.05749
1.10019
-0.810892
0.763713
-1.12467
1.17185
-0.714364
0.66293
-1.18442
1.23585
-0.609521
0.554257
-1.23508
1.29034
-0.497229
0.438529
-1.27887
1.33757
-0.378354
0.317047
-1.32215
1.38346
-0.254955
0.192335
-1.35766
1.42028
-0.128091
0.0713743
-1.37777
1.43449
-0.0245781
0.0250079
1.29005
-1.28832
1.28584
-0.120175
0.122653
-1.28234
1.2778
-0.216089
0.220628
-1.27218
1.26543
-0.312066
0.318821
-1.25749
1.2483
-0.408128
0.417313
-1.2378
1.22591
-0.504231
0.516121
-1.21255
1.19763
-0.600189
0.615108
-1.18107
1.16276
-0.695626
0.71393
-1.14263
1.12057
-0.790022
0.812084
-1.09648
1.07029
-0.882771
0.908963
-1.0419
1.01122
-0.973124
1.0038
-0.978184
0.942716
-1.06012
1.09559
-0.904763
0.864281
-1.14259
1.18307
-0.821246
0.775653
-1.21912
1.26471
-0.727527
0.676924
-1.28782
1.33842
-0.623936
0.568677
-1.34665
1.40191
-0.511259
0.451831
-1.39799
1.45742
-0.390665
0.32818
-1.44741
1.50989
-0.264816
0.201036
-1.4865
1.55028
-0.134508
0.0802174
-1.50903
1.56332
-0.025355
0.0256311
1.24413
-1.24283
1.24108
-0.12481
0.126557
-1.23861
1.23537
-0.224599
0.227838
-1.23132
1.22642
-0.324775
0.329682
-1.22058
1.21376
-0.425491
0.432319
-1.20585
1.19678
-0.52683
0.535905
-1.18643
1.17471
-0.628716
0.640435
-1.16151
1.14669
-0.730848
0.745661
-1.13015
1.11176
-0.832752
0.85115
-1.09137
1.06887
-0.933836
0.956339
-1.04411
1.01698
-1.03332
1.06046
-0.987342
0.955074
-1.13017
1.16243
-0.920068
0.882226
-1.22304
1.26088
-0.841467
0.79773
-1.31026
1.354
-0.750989
0.70125
-1.38955
1.43929
-0.648569
0.593038
-1.45837
1.5139
-0.534784
0.474006
-1.51898
1.57975
-0.411051
0.346455
-1.57609
1.64068
-0.280834
0.215048
-1.62025
1.68604
-0.144599
0.0933974
-1.64654
1.69774
-0.0258247
0.0259431
1.19951
-1.19885
1.19787
-0.127952
0.128938
-1.19645
1.19458
-0.230448
0.232325
-1.19219
1.18923
-0.333697
0.336655
-1.18564
1.18132
-0.43801
0.442322
-1.1762
1.17017
-0.543626
0.549657
-1.16312
1.15491
-0.65062
0.658822
-1.14543
1.13453
-0.758811
0.769716
-1.12205
1.10784
-0.867828
0.882039
-1.09173
1.07354
-0.977149
0.995337
-1.0531
1.03022
-1.08603
1.10891
-1.00471
0.976394
-1.1934
1.22172
-0.945081
0.910598
-1.29783
1.33231
-0.872782
0.83149
-1.39741
1.4387
-0.786604
0.73805
-1.48942
1.53798
-0.685806
0.629913
-1.57071
1.62661
-0.570479
0.507725
-1.64308
1.70583
-0.442058
0.374172
-1.7103
1.77818
-0.304958
0.235972
-1.76185
1.83083
-0.15929
0.111733
-1.79382
1.84138
-0.0259818
0.0259436
1.15675
-1.15655
1.15634
-0.12955
0.129766
-1.156
1.15551
-0.23353
0.23402
-1.15482
1.15386
-0.33865
0.339605
-1.15258
1.15088
-0.445391
0.447087
-1.14868
1.14587
-0.554179
0.556994
-1.14232
1.1379
-0.665277
0.669692
-1.13248
1.12588
-0.778677
0.785276
-1.11793
1.10845
-0.894172
0.90365
-1.09724
1.08408
-1.0114
1.02455
-1.06875
1.051
-1.12973
1.14748
-1.03058
1.00723
-1.24818
1.27154
-0.98067
0.950635
-1.36534
1.39537
-0.916846
0.879034
-1.47915
1.51697
-0.836948
0.790371
-1.58657
1.63315
-0.739139
0.683172
-1.68369
1.73965
-0.622492
0.55727
-1.77144
1.83667
-0.487907
0.415272
-1.85255
1.92518
-0.340634
0.266704
-1.91515
1.98908
-0.180781
0.137346
-1.95589
1.99933
-0.0258311
0.0256428
1.11547
-1.11554
1.11608
-0.129598
0.129061
-1.1168
1.11768
-0.233819
0.232943
-1.11866
1.1197
-0.339557
0.338518
-1.12073
1.12168
-0.447468
0.446522
-1.12245
1.12294
-0.558182
0.557691
-1.12303
1.12259
-0.672179
0.672615
-1.12148
1.11952
-0.789671
0.791633
-1.11653
1.1123
-0.91069
0.914915
-1.10662
1.09924
-1.03511
1.04249
-1.0899
1.07829
-1.16256
1.17416
-1.06412
1.04703
-1.29231
1.3094
-1.02667
1.00264
-1.42314
1.44717
-0.974523
0.94189
-1.55311
1.58575
-0.904296
0.861304
-1.67904
1.72204
-0.812508
0.757582
-1.79638
1.8513
-0.696324
0.628696
-1.90483
1.97245
-0.554925
0.475937
-2.00579
2.08477
-0.393438
0.311823
-2.08553
2.16715
-0.212995
0.173671
-2.1405
2.17983
-0.0253879
0.0250612
1.07566
-1.07635
1.0776
-0.128144
0.126894
-1.07932
1.0815
-0.231378
0.229204
-1.08409
1.08704
-0.336469
0.333514
-1.09031
1.09383
-0.444234
0.440713
-1.09753
1.1013
-0.555508
0.551732
-1.10505
1.10866
-0.671
0.667395
-1.11198
1.11486
-0.791182
0.788303
-1.11712
1.11855
-0.916378
0.914942
-1.11894
1.11803
-1.04679
1.04771
-1.11553
1.11113
-1.18245
1.18685
-1.10447
1.09515
-1.32305
1.33237
-1.08272
1.06668
-1.46786
1.4839
-1.04649
1.02152
-1.61546
1.64043
-0.991096
0.954485
-1.76304
1.79965
-0.910921
0.859658
-1.90587
1.95713
-0.800034
0.731497
-2.04246
2.111
-0.65371
0.567207
-2.17283
2.25933
-0.473846
0.380043
-2.28014
2.37394
-0.263523
0.22626
-2.35953
2.39679
-0.0246779
0.024229
1.03714
-1.03822
1.04011
-0.125283
0.123388
-1.04275
1.04611
-0.226368
0.223008
-1.05017
1.05489
-0.329581
0.324857
-1.06024
1.06617
-0.435872
0.42994
-1.07263
1.07953
-0.546265
0.539359
-1.08681
1.09436
-0.661691
0.654142
-1.10207
1.1098
-0.782887
0.775154
-1.1174
1.1247
-0.910502
0.903201
-1.1315
1.13755
-1.04513
1.03908
-1.14259
1.14631
-1.1873
1.18357
-1.14835
1.1483
-1.33733
1.33737
-1.14569
1.13994
-1.49528
1.50103
-1.13043
1.1164
-1.66075
1.67479
-1.09695
1.07106
-1.83214
1.85802
-1.03754
0.995096
-2.00572
2.04817
-0.942345
0.877801
-2.17988
2.24443
-0.799847
0.707494
-2.3545
2.44686
-0.601416
0.489224
-2.50833
2.62052
-0.348604
0.305735
-2.63321
2.67608
-0.023735
0.0231833
1.00009
-1.00169
1.00415
-0.121162
0.118708
-1.00757
1.01197
-0.219039
0.214644
-1.01732
1.0236
-0.319224
0.312941
-1.0308
1.03888
-0.422764
0.414676
-1.04783
1.05758
-0.53083
0.521074
-1.0681
1.07932
-0.644542
0.633325
-1.09116
1.10353
-0.764877
0.752509
-1.11631
1.12939
-0.892793
0.879715
-1.1426
1.15577
-1.02929
1.01612
-1.16868
1.18108
-1.17541
1.16301
-1.19266
1.20307
-1.33222
1.32181
-1.21187
1.21857
-1.50078
1.49409
-1.22254
1.22301
-1.68214
1.68166
-1.21906
1.20951
-1.87684
1.88639
-1.19292
1.16753
-2.08397
2.10936
-1.13126
1.08159
-2.30447
2.35414
-1.01515
0.927619
-2.54329
2.63082
-0.815362
0.681508
-2.77856
2.91241
-0.511577
0.441278
-2.99748
3.06778
-0.0225987
0.0219655
0.964498
-0.966198
0.969112
-0.115962
0.113048
-0.973194
0.978445
-0.209709
0.204458
-0.984864
0.992449
-0.305846
0.298261
-1.0012
1.01111
-0.405467
0.395555
-1.02218
1.03438
-0.509834
0.497626
-1.04772
1.06215
-0.620199
0.605764
-1.07765
1.09419
-0.737721
0.721189
-1.1117
1.13011
-0.863602
0.845183
-1.14936
1.16934
-0.999171
0.979196
-1.18991
1.21094
-1.14595
1.12492
-1.23222
1.25353
-1.30565
1.28434
-1.2746
1.29507
-1.48034
1.45987
-1.31452
1.33239
-1.67259
1.65471
-1.348
1.36041
-1.88555
1.87314
-1.36841
1.37039
-2.1226
2.12063
-1.36429
1.34746
-2.39064
2.40747
-1.31584
1.26282
-2.70846
2.76147
-1.17996
1.05194
-3.07945
3.20747
-0.882531
0.802638
-3.51169
3.59158
-0.0166373
0.0591841
-0.0425468
0.0798632
-0.122307
0.0424435
0.143616
-0.148696
0.00508077
0.14145
-0.129409
-0.0120419
0.119013
-0.112665
-0.00634815
0.111968
-0.118541
0.00657357
0.133896
-0.158627
0.0247316
0.191356
-0.227665
0.0363096
0.260716
-0.284267
0.0235517
0.296259
-0.300817
0.00455791
0.309359
-0.35099
0.0416315
0.483188
-0.766075
0.282887
1.18249
-1.58144
0.398951
1.925
-2.21153
0.286531
2.40171
-2.44929
0.0475751
2.31844
-2.01829
-0.300153
1.59642
-1.13805
-0.458361
0.828444
-0.936507
0.108064
1.58877
-2.93418
1.34541
5.12187
-6.88194
1.76007
7.84543
-8.71304
0.867612
9.19782
-9.24904
0.0512225
8.7258
-6.20637
-2.51943
2.18666
1.05994
-3.2466
-3.24398
4.70023
-1.45624
-5.66669
6.32771
-0.661016
-6.79404
7.13212
-0.338082
-7.3788
7.55391
-0.175111
-7.66922
7.73513
-0.0659122
-7.76338
7.76406
-0.000682129
-7.74806
7.72256
0.0255097
-7.69305
7.65966
0.0333934
-7.62286
7.58366
0.039201
-7.54467
7.50588
0.0387882
-7.45756
7.38627
0.0712885
-7.29194
7.18731
0.104633
-7.08341
6.97699
0.106423
-6.85431
6.7338
0.120511
-6.66133
6.62528
0.0360494
-6.60011
6.57728
0.0228312
-6.55485
6.5336
0.0212511
-6.51224
6.48739
0.0248521
-6.46292
6.4501
0.0128246
-6.42961
6.34321
0.0863987
-6.24402
6.17875
0.0652683
-6.13092
6.09087
0.0400499
-6.05607
6.02579
0.0302782
-5.99988
5.97798
0.0219071
-5.95966
5.94444
0.0152178
-5.93186
5.92152
0.0103376
-5.91282
5.90531
0.00750715
-5.89819
5.89115
0.00704071
-5.88372
5.87617
0.00755191
-5.8687
5.86183
0.00687009
-5.85606
5.85161
0.00444991
-5.84896
5.84794
0.00102493
-5.84884
5.85105
-0.00221247
-5.85471
5.85879
-0.00408321
-5.86285
5.86595
-0.00310466
-5.86666
5.86595
0.000710907
-0.103455
0.142475
-0.0390205
0.0656697
-0.0878345
-0.0721871
0.0943519
0.10847
-0.122726
-0.0164266
0.0306823
0.12932
-0.129917
0.0160036
-0.015407
0.128013
-0.126154
0.00995633
-0.0118154
0.125885
-0.128261
-0.0106575
0.0130334
0.13412
-0.144013
-0.0400999
0.0499928
0.15831
-0.176973
-0.0615446
0.0802076
0.199452
-0.224776
-0.0497565
0.0750807
0.252441
-0.284142
-0.0294194
0.0611207
0.324028
-0.377514
-0.0918311
0.145317
0.457805
-0.596747
-0.4725
0.611442
0.808825
-1.09161
-0.740816
1.0236
1.38192
-1.63792
-0.542307
0.798302
1.84997
-2.00591
-0.153815
0.309756
2.07971
-2.05373
0.432554
-0.458541
1.92813
-1.72837
0.759764
-0.959522
1.51555
-1.42601
-0.0663197
-0.0232115
1.51239
-1.66259
-1.74596
1.89616
1.76858
-1.88116
-2.82309
2.93567
1.74597
-1.40355
-0.854791
0.512367
0.174851
2.1226
1.46748
-3.76494
-3.49711
3.53989
4.39304
-4.43582
-3.63094
3.76711
3.55258
-3.68874
-4.05366
4.42108
2.07024
-2.43766
-4.80396
5.16328
1.14193
-1.50125
-5.48359
5.76099
0.669113
-0.946509
-5.99783
6.19875
0.395544
-0.596464
-6.36856
6.5118
0.207151
-0.350388
-6.63176
6.73108
0.087045
-0.186357
-6.81206
6.8765
0.0224257
-0.0868647
-6.92584
6.96357
-0.0143935
-0.0233381
-6.99054
7.00713
-0.0403172
0.0237242
-7.01343
7.01031
-0.0672911
0.0704113
-7.00165
6.99113
-0.109907
0.120424
-6.97895
6.96297
-0.141584
0.157565
-6.94222
6.92017
-0.156955
0.179004
-6.90106
6.8816
-0.138773
0.158233
-6.8533
6.81987
-0.0726482
0.106083
-6.78663
6.75476
-0.0576353
0.0895032
-6.72397
6.69371
-0.0530447
0.0833073
-6.66412
6.63521
-0.0546861
0.0835923
-6.60415
6.56715
-0.0537017
0.0906937
-6.53004
6.5047
-0.11818
0.143515
-6.47928
6.445
-0.110263
0.144537
-6.40893
6.37524
-0.0793825
0.113072
-6.34504
6.31855
-0.0596527
0.0861479
-6.29556
6.2759
-0.0430897
0.0627462
-6.25931
6.24548
-0.029977
0.0438095
-6.23412
6.22489
-0.0202912
0.0295244
-6.21738
6.21107
-0.01452
0.0208328
-6.20542
6.19983
-0.0133618
0.0189563
-6.19402
6.18794
-0.0142908
0.0203722
-6.1819
6.17632
-0.013009
0.0185825
-6.17165
6.1683
-0.00827088
0.0116251
-6.16645
6.16632
-0.00162894
0.00176143
-6.16763
6.17031
0.00468063
-0.00736605
-6.1739
6.17807
0.00818595
-0.0123565
-6.18221
6.18553
0.00626514
-0.00958424
-6.18752
6.18731
-0.0011356
0.00133787
-0.175014
0.20052
-0.0255063
0.0525478
-0.0706588
-0.112879
0.13099
0.0894088
-0.105615
-0.0461572
0.0623632
0.115639
-0.121888
0.0116149
-0.0053657
0.125109
-0.126614
0.0119992
-0.0104942
0.127386
-0.128102
-0.0142703
0.0149861
0.129475
-0.132092
-0.055718
0.0583354
0.136879
-0.145024
-0.0931734
0.101319
0.157615
-0.174873
-0.0968049
0.114063
0.196122
-0.221917
-0.0923921
0.118188
0.257127
-0.307369
-0.198511
0.248753
0.375471
-0.466558
-0.717832
0.808918
0.565327
-0.701242
-1.23493
1.37085
0.915552
-1.158
-1.05033
1.29278
1.39678
-1.63085
-0.504012
0.738084
1.82039
-1.93763
0.402072
-0.284834
1.98041
-1.94349
1.06566
-1.10258
1.80453
-1.65524
0.118453
-0.267742
1.87722
-1.74861
-2.00845
1.87985
1.32917
-0.80417
-2.45627
1.93127
0.40118
1.87243
0.520314
-2.79392
-3.52579
3.62916
4.91675
-5.02012
-3.7484
3.86329
4.53115
-4.64605
-3.98794
4.14086
3.82866
-3.98158
-4.35176
4.61092
2.72924
-2.9884
-4.88926
5.16107
1.80221
-2.07402
-5.41136
5.63413
1.18861
-1.41138
-5.82754
5.99416
0.77699
-0.943611
-6.13754
6.26059
0.483418
-0.60647
-6.36599
6.45583
0.282407
-0.372244
-6.53164
6.59508
0.152918
-0.216363
-6.6476
6.69054
0.0659784
-0.108921
-6.72495
6.75194
0.000194795
-0.0271938
-6.77265
6.78854
-0.0611346
0.0452457
-6.80088
6.81009
-0.118444
0.109228
-6.81616
6.81927
-0.162063
0.158958
-6.81999
6.81862
-0.188057
0.189426
-6.81421
6.80465
-0.172966
0.182529
-6.78855
6.76821
-0.13299
0.153328
-6.74673
6.72524
-0.116199
0.137696
-6.70374
6.68212
-0.109253
0.130875
-6.66024
6.63777
-0.109536
0.132002
-6.61407
6.58901
-0.121217
0.146286
-6.5656
6.54762
-0.16533
0.183313
-6.53121
6.51177
-0.169992
0.189429
-6.49018
6.4684
-0.140251
0.162031
-6.44762
6.42848
-0.108867
0.128006
-6.41132
6.3963
-0.0800515
0.0950686
-6.38349
6.37281
-0.0560845
0.066766
-6.36412
6.35723
-0.037624
0.0445143
-6.35187
6.34762
-0.0261421
0.030395
-6.34394
6.34017
-0.0236437
0.0274094
-6.33591
6.33115
-0.025741
0.0305025
-6.32627
6.32178
-0.0235449
0.0280375
-6.31816
6.3158
-0.0144477
0.0168032
-6.31492
6.31561
-0.00150979
0.000822319
-6.31767
6.32085
0.0102557
-0.0134407
-6.32472
6.32904
0.01655
-0.0208664
-6.33334
6.33703
0.0130426
-0.0167371
-6.33943
6.33967
-0.00131255
0.00107327
-0.220439
0.237249
-0.0168101
0.0379797
-0.0576154
-0.148868
0.168504
0.0769738
-0.0893647
-0.0769908
0.0893817
0.100913
-0.11048
-0.00285476
0.0124226
0.117479
-0.122282
0.00732569
-0.00252261
0.12526
-0.126488
-0.0157155
0.0169437
0.126425
-0.125325
-0.0586778
0.0575781
0.123996
-0.124108
-0.105092
0.105204
0.127562
-0.135213
-0.126134
0.133785
0.144874
-0.151956
-0.134384
0.141467
0.152494
-0.141458
-0.2816
0.270564
0.108702
-0.0920506
-0.885946
0.869294
0.165315
-0.29584
-1.45702
1.58755
0.427904
-0.630883
-1.51225
1.71523
0.893774
-1.26841
-1.02072
1.39535
1.50688
-1.66422
0.135814
0.0215299
1.78044
-1.83222
1.09388
-1.0421
1.76119
-1.47865
0.701382
-0.983923
1.52143
-1.50758
-1.80243
1.78858
1.12268
0.105208
-1.40371
0.175826
-2.75746
3.42992
4.88802
-5.56048
-3.58972
3.73586
5.18794
-5.33408
-3.8848
4.03651
4.78349
-4.9352
-4.19095
4.36016
4.14194
-4.31116
-4.55465
4.77537
3.22315
-3.44387
-5.00786
5.23773
2.32086
-2.55073
-5.45176
5.64359
1.61573
-1.80756
-5.80997
5.9524
1.09611
-1.23854
-6.07307
6.17545
0.717832
-0.82022
-6.26195
6.33553
0.45309
-0.526665
-6.39791
6.45093
0.274186
-0.327208
-6.49583
6.53389
0.149326
-0.187385
-6.56604
6.59335
0.054538
-0.0818464
-6.61684
6.63747
-0.0264064
0.00577379
-6.65578
6.67188
-0.0959724
0.0798752
-6.68576
6.69758
-0.150785
0.138967
-6.7075
6.71512
-0.185646
0.178029
-6.71954
6.71956
-0.186962
0.186939
-6.7149
6.70662
-0.167118
0.175397
-6.69636
6.68501
-0.15379
0.165148
-6.67298
6.66022
-0.147811
0.160575
-6.64679
6.63264
-0.150144
0.164299
-6.61789
6.60307
-0.165833
0.180654
-6.58988
6.57949
-0.197248
0.20764
-6.57038
6.56029
-0.203653
0.213746
-6.54889
6.53672
-0.178584
0.19076
-6.52453
6.51274
-0.143253
0.155042
-6.50185
6.4921
-0.107335
0.117082
-6.48375
6.47683
-0.0755107
0.0824296
-6.47138
6.4673
-0.0499648
0.054045
-6.4645
6.46274
-0.0333905
0.0351509
-6.46148
6.45989
-0.0301063
0.0316988
-6.45731
6.45375
-0.0346051
0.0381726
-6.44982
6.44621
-0.032018
0.0356224
-6.44349
6.44202
-0.0186767
0.0201441
-6.44203
6.44355
0.000286647
-0.00181024
-6.44637
6.4501
0.0168719
-0.0206027
-6.45425
6.45866
0.0252223
-0.0296257
-6.46317
6.46736
0.0206314
-0.0248147
-6.47027
6.47089
-0.000645312
2.61422e-05
-0.253018
0.265868
-0.0128501
0.0307154
-0.0483447
-0.188383
0.206012
0.0615405
-0.0743501
-0.101401
0.11421
0.0875864
-0.099181
-0.0229387
0.0345333
0.10888
-0.116148
-0.00359781
0.0108664
0.121414
-0.124633
-0.0190062
0.0222255
0.125824
-0.12438
-0.0558632
0.0544192
0.120394
-0.115232
-0.102293
0.0971309
0.111512
-0.112315
-0.137698
0.138501
0.117313
-0.119759
-0.143541
0.145987
0.109351
-0.0783725
-0.237521
0.206543
0.0165228
0.0895893
-0.773452
0.66734
-0.220379
0.325212
-1.65487
1.55004
-0.349956
0.394793
-1.92169
1.87685
-0.240198
-0.391438
-1.84036
2.472
1.03847
-1.23468
-0.17342
0.369631
1.36637
-1.43722
0.972844
-0.901994
1.4233
-1.31029
1.17784
-1.29085
0.927348
-1.44053
-2.06944
2.58262
-0.635657
3.279
2.37765
-5.02099
-3.42528
3.60603
5.64626
-5.82701
-3.756
3.90709
5.47345
-5.62454
-4.0659
4.22908
5.09124
-5.25442
-4.39795
4.57316
4.4811
-4.65631
-4.7586
4.95399
3.64859
-3.84398
-5.15262
5.34696
2.76019
-2.95453
-5.52742
5.6893
1.98288
-2.14476
-5.82903
5.94764
1.36797
-1.48657
-6.04694
6.13036
0.911996
-0.995419
-6.20044
6.25987
0.592066
-0.651495
-6.31082
6.3552
0.374908
-0.41929
-6.39401
6.42823
0.222711
-0.256934
-6.45858
6.48594
0.108629
-0.135988
-6.51099
6.53433
0.0158994
-0.0392346
-6.55618
6.57659
-0.0617945
0.0413855
-6.59544
6.61279
-0.124389
0.107039
-6.62847
6.64214
-0.167327
0.153657
-6.6531
6.66078
-0.182918
0.175238
-6.6649
6.666
-0.178653
0.177554
-6.66481
6.66206
-0.171923
0.174674
-6.65808
6.65313
-0.169125
0.174074
-6.64735
6.64097
-0.174318
0.180704
-6.63423
6.62775
-0.19092
0.197395
-6.62245
6.61872
-0.214464
0.218192
-6.61593
6.61284
-0.220012
0.2231
-6.60902
6.60442
-0.198796
0.203394
-6.59934
6.59405
-0.163335
0.168617
-6.58891
6.58413
-0.124177
0.128954
-6.58003
6.57675
-0.0874107
0.0906904
-6.57439
6.57293
-0.0567191
0.0581861
-6.57245
6.57301
-0.0356708
0.0351036
-6.57424
6.57501
-0.0321169
0.0313454
-6.57414
6.57155
-0.0411886
0.0437803
-6.56828
6.56537
-0.0388307
0.0417424
-6.56338
6.56263
-0.0212193
0.0219641
-6.56331
6.56544
0.00366366
-0.00579635
-6.56881
6.57291
0.0245158
-0.0286112
-6.57705
6.58109
0.0338822
-0.0379159
-6.58544
6.59
0.0291822
-0.0337387
-6.59359
6.59461
0.000774902
-0.0017955
-0.273383
0.273496
-0.0001133
0.0195343
-0.0311466
-0.218735
0.230347
0.0459731
-0.0605054
-0.128224
0.142756
0.0756104
-0.0896656
-0.0471865
0.0612417
0.101435
-0.110626
-0.0188589
0.0280507
0.117425
-0.12348
-0.0268978
0.0329521
0.127499
-0.128955
-0.0540666
0.0555224
0.1266
-0.120448
-0.0907928
0.0846409
0.111763
-0.105319
-0.136036
0.129592
0.107505
-0.115579
-0.151138
0.159212
0.118774
-0.105174
-0.183306
0.169706
0.0641447
0.0138969
-0.5723
0.494259
-0.125526
0.248373
-1.40792
1.28507
-0.352336
0.41262
-1.83084
1.77056
-0.452983
0.600339
-2.70615
2.55879
0.069305
-0.571038
-0.658987
1.16072
0.789597
-0.887599
0.823428
-0.725426
0.927983
-0.874232
1.3264
-1.38016
0.349813
1.31827
-2.30667
0.638588
-3.31055
3.36502
6.20752
-6.26198
-3.53941
3.71647
5.99156
-6.16862
-3.89577
4.07276
5.78861
-5.96559
-4.24883
4.42478
5.42345
-5.59941
-4.60054
4.77601
4.83092
-5.00639
-4.95051
5.12448
4.02632
-4.2003
-5.29363
5.45345
3.12965
-3.28948
-5.5992
5.72813
2.28885
-2.41779
-5.83865
5.93141
1.59154
-1.68431
-6.01014
6.07752
1.06927
-1.13665
-6.13569
6.18671
0.705071
-0.756096
-6.23251
6.27444
0.460977
-0.502905
-6.31308
6.3488
0.290719
-0.326443
-6.38195
6.41299
0.16434
-0.195374
-6.44236
6.47042
0.0643684
-0.0924226
-6.49725
6.52299
-0.0187045
-0.00703764
-6.54728
6.5701
-0.0871931
0.0643701
-6.59131
6.61055
-0.137358
0.118119
-6.62742
6.64154
-0.164342
0.15023
-6.65274
6.66111
-0.172652
0.164281
-6.66707
6.67109
-0.173833
0.169822
-6.67353
6.67475
-0.175684
0.174465
-6.67507
6.67474
-0.183799
0.184132
-6.67417
6.67389
-0.20043
0.200717
-6.67444
6.67607
-0.219008
0.217379
-6.67835
6.68062
-0.223337
0.221066
-6.68236
6.68349
-0.204862
0.203737
-6.68399
6.6839
-0.171073
0.171158
-6.68336
6.6826
-0.131532
0.132292
-6.68192
6.68151
-0.0923741
0.0927857
-6.68149
6.68184
-0.0586017
0.0582523
-6.68268
6.68459
-0.0336877
0.0317814
-6.68769
6.69078
-0.0294002
0.0263104
-6.69173
6.6899
-0.045967
0.0477972
-6.68716
6.68496
-0.0443164
0.0465166
-6.68375
6.68363
-0.0224
0.0225195
-6.68467
6.68693
0.00805374
-0.0103147
-6.69029
6.6943
0.0327115
-0.0367138
-6.69792
6.7007
0.0414228
-0.0442023
-6.70391
6.70813
0.0382559
-0.0424767
-6.71227
6.71398
0.00307509
-0.00478506
-0.266327
0.253632
0.0126946
-0.000327735
-0.0148271
-0.243759
0.258914
0.028457
-0.0446805
-0.157849
0.174072
0.0620077
-0.0783066
-0.0762483
0.0925472
0.0927612
-0.105441
-0.0388097
0.0514894
0.116307
-0.12505
-0.0398414
0.0485845
0.132176
-0.137576
-0.0590507
0.0644511
0.140907
-0.140166
-0.0805141
0.0797737
0.134423
-0.123953
-0.119413
0.108943
0.114788
-0.119619
-0.16803
0.172862
0.135806
-0.144693
-0.167611
0.176498
0.13561
-0.110244
-0.4399
0.414534
0.0645475
0.0262906
-1.18237
1.09154
-0.119724
0.174416
-1.70587
1.65117
-0.25762
0.0451336
-2.49823
2.71071
0.108738
-0.0899517
-1.49392
1.47513
0.100215
-0.178004
0.615621
-0.537832
0.277117
-0.212894
1.45417
-1.51839
-0.646469
3.16532
1.79677
-4.31562
-3.27602
3.47561
6.46811
-6.6677
-3.6667
3.859
6.35301
-6.54532
-4.05231
4.24161
6.14906
-6.33836
-4.42642
4.60763
5.77623
-5.95744
-4.78109
4.94886
5.17788
-5.34565
-5.10824
5.257
4.36117
-4.50994
-5.39364
5.51555
3.42995
-3.55186
-5.62142
5.71508
2.52852
-2.62218
-5.79642
5.86827
1.7644
-1.83624
-5.93395
5.99729
1.19891
-1.26225
-6.0573
6.11401
0.806908
-0.863615
-6.16743
6.21765
0.546994
-0.597217
-6.26503
6.30938
0.365289
-0.409637
-6.35082
6.38966
0.229573
-0.268423
-6.42612
6.46064
0.12342
-0.157934
-6.49353
6.52484
0.0352909
-0.0666068
-6.55441
6.58235
-0.0390284
0.0110823
-6.60861
6.63291
-0.0963834
0.0720764
-6.65484
6.67413
-0.133448
0.114161
-6.69059
6.70418
-0.153092
0.139501
-6.7151
6.72361
-0.163241
0.154732
-6.73015
6.73512
-0.171043
0.166073
-6.73903
6.74227
-0.182329
0.179088
-6.7453
6.74871
-0.19884
0.195426
-6.75298
6.75829
-0.213718
0.208409
-6.76432
6.77033
-0.216755
0.210745
-6.77606
6.78128
-0.200414
0.19519
-6.78584
6.78954
-0.1692
0.165493
-6.79232
6.79428
-0.131537
0.129572
-6.79573
6.79695
-0.09221
0.0909865
-6.79816
6.79925
-0.0574042
0.0563157
-6.79995
6.80111
-0.0299313
0.0287688
-6.80393
6.80826
-0.0223561
0.0180224
-6.81143
6.81072
-0.0491714
0.0498851
-6.80918
6.80858
-0.048111
0.0487149
-6.80879
6.80958
-0.0222572
0.0214683
-6.81071
6.8123
0.0123434
-0.0139407
-6.81427
6.81676
0.0402658
-0.0427619
-6.81927
6.82025
0.0459617
-0.0469437
-6.8209
6.82229
0.0457397
-0.0471297
-6.82534
6.8297
0.00719508
-0.0115545
-0.235906
0.21349
0.0224164
-0.0191439
0.00817242
-0.273758
0.28473
0.00618324
-0.0247097
-0.191177
0.209704
0.0444752
-0.063477
-0.109984
0.128986
0.0811154
-0.0974795
-0.065926
0.0822901
0.112747
-0.126734
-0.0597399
0.0737269
0.13931
-0.150555
-0.0723636
0.0836087
0.160421
-0.168432
-0.0834227