/*--------------------------------*- C++ -*----------------------------------*\
| =========                 |                                                 |
| \\      /  F ield         | OpenFOAM: The Open Source CFD Toolbox           |
|  \\    /   O peration     | Version:  v1912                                 |
|   \\  /    A nd           | Website:  www.openfoam.com                      |
|    \\/     M anipulation  |                                                 |
\*---------------------------------------------------------------------------*/
FoamFile
{
    version     2.0;
    format      ascii;
    class       volVectorField;
    location    "24";
    object      U;
}
// * * * * * * * * * * * * * * * * * * * * * * * * * * * * * * * * * * * * * //

dimensions      [0 1 -1 0 0 0 0];


internalField   nonuniform List<vector> 
20320
(
(1.85776 0.0063004 0)
(1.85634 -0.00539422 0)
(1.84088 0.00445413 0)
(1.81144 0.0120041 0)
(1.77053 0.0192405 0)
(1.71912 0.0260706 0)
(1.65755 0.0324915 0)
(1.58607 0.0385492 0)
(1.50509 0.0441195 0)
(1.41515 0.0493574 0)
(1.31685 0.0543857 0)
(1.21074 0.0591695 0)
(1.09753 0.0636674 0)
(0.97787 0.0679172 0)
(0.852561 0.0712295 0)
(0.722779 0.0746048 0)
(0.588891 0.0777253 0)
(0.450365 0.0783663 0)
(0.306219 0.0860732 0)
(0.119777 0.156837 0)
(1.8579 0.0112934 0)
(1.84941 0.0357119 0)
(1.82986 0.0667675 0)
(1.79952 0.0978578 0)
(1.75829 0.128365 0)
(1.70634 0.15817 0)
(1.644 0.18711 0)
(1.57173 0.214982 0)
(1.4899 0.241646 0)
(1.39896 0.26701 0)
(1.29935 0.290952 0)
(1.19156 0.313342 0)
(1.07608 0.333994 0)
(0.953408 0.352752 0)
(0.824074 0.369411 0)
(0.688803 0.383662 0)
(0.548854 0.394889 0)
(0.405894 0.40195 0)
(0.259374 0.427751 0)
(0.110563 0.487414 0)
(1.85789 0.0170835 0)
(1.84951 0.0700094 0)
(1.82979 0.125639 0)
(1.79919 0.180676 0)
(1.75789 0.234768 0)
(1.70594 0.287581 0)
(1.64356 0.338817 0)
(1.57112 0.388152 0)
(1.48903 0.435286 0)
(1.39775 0.479999 0)
(1.29785 0.522154 0)
(1.18993 0.561635 0)
(1.07459 0.598333 0)
(0.952347 0.632076 0)
(0.823657 0.662514 0)
(0.689051 0.688828 0)
(0.549545 0.709055 0)
(0.405607 0.721327 0)
(0.255722 0.757264 0)
(0.106783 0.806692 0)
(1.85789 0.0228832 0)
(1.84975 0.0999888 0)
(1.83037 0.179306 0)
(1.8001 0.257651 0)
(1.7591 0.33463 0)
(1.70747 0.40984 0)
(1.64537 0.482871 0)
(1.57315 0.553251 0)
(1.49111 0.620517 0)
(1.39968 0.68428 0)
(1.29935 0.744199 0)
(1.19076 0.800004 0)
(1.07466 0.851547 0)
(0.951853 0.898796 0)
(0.823117 0.941599 0)
(0.689248 0.978994 0)
(0.551161 1.00807 0)
(0.407318 1.03102 0)
(0.256926 1.07492 0)
(0.106316 1.12088 0)
(1.85789 0.0283643 0)
(1.84988 0.128107 0)
(1.8308 0.229741 0)
(1.80099 0.330194 0)
(1.76058 0.429009 0)
(1.7096 0.525708 0)
(1.64821 0.619788 0)
(1.57668 0.71065 0)
(1.49528 0.797697 0)
(1.40436 0.880389 0)
(1.30434 0.958188 0)
(1.19575 1.03056 0)
(1.07927 1.09704 0)
(0.95573 1.1574 0)
(0.826121 1.21146 0)
(0.691659 1.25831 0)
(0.553327 1.29547 0)
(0.408716 1.33035 0)
(0.258148 1.38146 0)
(0.106266 1.42899 0)
(1.85789 0.0335188 0)
(1.85008 0.154665 0)
(1.83147 0.277436 0)
(1.80236 0.398894 0)
(1.76285 0.518526 0)
(1.71289 0.6358 0)
(1.6526 0.750126 0)
(1.58217 0.860798 0)
(1.50181 0.96709 0)
(1.41178 1.06832 0)
(1.31246 1.1638 0)
(1.20428 1.25276 0)
(1.08782 1.33443 0)
(0.96382 1.40822 0)
(0.833294 1.47357 0)
(0.697669 1.5294 0)
(0.557894 1.57453 0)
(0.411619 1.62078 0)
(0.260212 1.67794 0)
(0.106615 1.72919 0)
(1.85789 0.0383069 0)
(1.85037 0.179493 0)
(1.83242 0.322065 0)
(1.80432 0.463276 0)
(1.76609 0.6026 0)
(1.71762 0.739464 0)
(1.65892 0.873217 0)
(1.59011 1.00306 0)
(1.51127 1.12814 0)
(1.42258 1.24763 0)
(1.32431 1.36069 0)
(1.21682 1.46634 0)
(1.10058 1.56354 0)
(0.976251 1.65129 0)
(0.844786 1.72854 0)
(0.707678 1.79381 0)
(0.565709 1.84747 0)
(0.417069 1.90423 0)
(0.263969 1.96633 0)
(0.107671 2.02193 0)
(1.8579 0.0426836 0)
(1.85076 0.202384 0)
(1.83371 0.363269 0)
(1.80699 0.522857 0)
(1.77051 0.68064 0)
(1.72408 0.83604 0)
(1.6676 0.988379 0)
(1.60103 1.13677 0)
(1.52433 1.28025 0)
(1.43753 1.41786 0)
(1.34078 1.54857 0)
(1.23431 1.67119 0)
(1.11848 1.78441 0)
(0.993845 1.88684 0)
(0.861302 1.97688 0)
(0.722339 2.05253 0)
(0.577533 2.11572 0)
(0.42582 2.18243 0)
(0.270043 2.24877 0)
(0.109868 2.30838 0)
(1.8579 0.0465988 0)
(1.85128 0.223109 0)
(1.83543 0.400647 0)
(1.81051 0.577081 0)
(1.77636 0.751961 0)
(1.73265 0.924758 0)
(1.67913 1.09479 0)
(1.61559 1.26112 0)
(1.54181 1.42268 0)
(1.45763 1.57838 0)
(1.36302 1.72701 0)
(1.25802 1.86714 0)
(1.14286 1.99715 0)
(1.01795 2.11526 0)
(0.884118 2.21928 0)
(0.742809 2.30665 0)
(0.594432 2.38064 0)
(0.438732 2.45726 0)
(0.279071 2.52771 0)
(0.113356 2.59022 0)
(1.8579 0.0499993 0)
(1.85195 0.241412 0)
(1.83762 0.433749 0)
(1.81503 0.625316 0)
(1.78387 0.815776 0)
(1.74368 1.0047 0)
(1.69403 1.19146 0)
(1.63451 1.37509 0)
(1.56464 1.55445 0)
(1.48403 1.72834 0)
(1.3924 1.89534 0)
(1.28954 2.05378 0)
(1.17547 2.20171 0)
(1.05042 2.33689 0)
(0.915063 2.45649 0)
(0.7708 2.55734 0)
(0.617923 2.64376 0)
(0.456973 2.7308 0)
(0.291807 2.80571 0)
(0.117808 2.86933 0)
(1.8579 0.0528308 0)
(1.85277 0.257026 0)
(1.84034 0.462101 0)
(1.82064 0.666885 0)
(1.79324 0.871224 0)
(1.75751 1.07485 0)
(1.71282 1.27723 0)
(1.6585 1.47744 0)
(1.59379 1.67432 0)
(1.51801 1.86654 0)
(1.43051 2.05256 0)
(1.33078 2.2304 0)
(1.2185 2.39777 0)
(1.09362 2.55192 0)
(0.956593 2.68928 0)
(0.808694 2.80598 0)
(0.650157 2.90697 0)
(0.482289 3.00574 0)
(0.309524 3.08614 0)
(0.123328 3.14909 0)
(1.8579 0.0550429 0)
(1.85377 0.26969 0)
(1.84361 0.485228 0)
(1.82741 0.701096 0)
(1.8046 0.917393 0)
(1.77439 1.13408 0)
(1.73591 1.35078 0)
(1.68821 1.5667 0)
(1.63022 1.7807 0)
(1.56086 1.99142 0)
(1.47908 2.19717 0)
(1.3839 2.39577 0)
(1.27456 2.58452 0)
(1.15054 2.76012 0)
(1.01192 2.91819 0)
(0.859721 3.05394 0)
(0.694128 3.17248 0)
(0.51716 3.28527 0)
(0.333891 3.37301 0)
(0.130254 3.43305 0)
(1.85791 0.0565953 0)
(1.85493 0.279176 0)
(1.84744 0.502705 0)
(1.83536 0.727309 0)
(1.818 0.953399 0)
(1.7944 1.18123 0)
(1.76351 1.4107 0)
(1.72407 1.64119 0)
(1.67467 1.87169 0)
(1.61378 2.10092 0)
(1.53983 2.32714 0)
(1.45127 2.54801 0)
(1.34667 2.76049 0)
(1.22484 2.96071 0)
(1.0852 3.14339 0)
(0.928277 3.30256 0)
(0.754072 3.44285 0)
(0.565193 3.57347 0)
(0.367651 3.6717 0)
(0.139268 3.72703 0)
(1.85791 0.057462 0)
(1.85624 0.285313 0)
(1.85177 0.514198 0)
(1.84438 0.744992 0)
(1.8333 0.97846 0)
(1.81746 1.21522 0)
(1.7956 1.45554 0)
(1.76624 1.69909 0)
(1.72758 1.94511 0)
(1.67765 2.19252 0)
(1.6143 2.43971 0)
(1.53525 2.68433 0)
(1.43818 2.92314 0)
(1.32092 3.15182 0)
(1.18179 3.36415 0)
(1.02035 3.5527 0)
(0.836074 3.72088 0)
(0.631718 3.87532 0)
(0.414507 3.98917 0)
(0.15053 4.03886 0)
(1.85791 0.0576368 0)
(1.85767 0.28801 0)
(1.8565 0.519514 0)
(1.85429 0.753789 0)
(1.85022 0.991984 0)
(1.84317 1.23515 0)
(1.83178 1.48397 0)
(1.81435 1.73854 0)
(1.78883 1.99852 0)
(1.75279 2.2632 0)
(1.70349 2.53131 0)
(1.63783 2.80077 0)
(1.55243 3.06846 0)
(1.44372 3.32986 0)
(1.30835 3.57805 0)
(1.14408 3.80399 0)
(0.949029 4.00897 0)
(0.725112 4.19672 0)
(0.480676 4.33468 0)
(0.166197 4.38021 0)
(1.85792 0.0571365 0)
(1.85917 0.287284 0)
(1.8615 0.518642 0)
(1.8648 0.753597 0)
(1.8683 0.993679 0)
(1.8709 1.2404 0)
(1.87123 1.49494 0)
(1.86753 1.75791 0)
(1.85756 2.02952 0)
(1.83862 2.30965 0)
(1.80745 2.59767 0)
(1.76016 2.89215 0)
(1.69219 3.19056 0)
(1.5983 3.48881 0)
(1.47276 3.77989 0)
(1.31028 4.0535 0)
(1.10607 4.30821 0)
(0.8589 4.54444 0)
(0.576859 4.72148 0)
(0.191894 4.77019 0)
(1.85792 0.0560008 0)
(1.8607 0.283265 0)
(1.86659 0.511778 0)
(1.87556 0.744607 0)
(1.88694 0.983633 0)
(1.89974 1.23082 0)
(1.91273 1.48786 0)
(1.92424 1.75595 0)
(1.93206 2.03597 0)
(1.93341 2.3286 0)
(1.92477 2.63411 0)
(1.90171 2.95216 0)
(1.85867 3.28149 0)
(1.78869 3.61935 0)
(1.68321 3.95999 0)
(1.53254 4.2932 0)
(1.32636 4.61536 0)
(1.05573 4.92419 0)
(0.723262 5.16748 0)
(0.240296 5.23931 0)
(1.85793 0.0542916 0)
(1.86219 0.276198 0)
(1.87158 0.499327 0)
(1.88617 0.727326 0)
(1.90543 0.96236 0)
(1.92862 1.20679 0)
(1.95474 1.46279 0)
(1.98241 1.73215 0)
(2.00972 2.01647 0)
(2.03411 2.31731 0)
(2.05221 2.63609 0)
(2.05954 2.97394 0)
(2.05012 3.33151 0)
(2.0159 3.70855 0)
(1.94589 4.10251 0)
(1.82543 4.5062 0)
(1.63608 4.91692 0)
(1.35386 5.33466 0)
(0.961521 5.69548 0)
(0.341833 5.84093 0)
(1.85793 0.0520874 0)
(1.86359 0.266427 0)
(1.87628 0.481886 0)
(1.89622 0.702563 0)
(1.92307 0.930811 0)
(1.95637 1.16929 0)
(1.99553 1.42058 0)
(2.0396 1.68696 0)
(2.0872 1.97072 0)
(2.1364 2.27427 0)
(2.18446 2.60021 0)
(2.22759 2.95129 0)
(2.26041 3.33044 0)
(2.27519 3.7408 0)
(2.26043 4.18495 0)
(2.1986 4.66281 0)
(2.06397 5.17904 0)
(1.81347 5.74975 0)
(1.38137 6.32044 0)
(0.582862 6.67117 0)
(1.85793 0.049478 0)
(1.86486 0.25437 0)
(1.88055 0.460198 0)
(1.90537 0.671368 0)
(1.93921 0.890309 0)
(1.98194 1.11986 0)
(2.03342 1.36285 0)
(2.09328 1.62193 0)
(2.16088 1.89987 0)
(2.2352 2.19977 0)
(2.31466 2.52522 0)
(2.39688 2.88034 0)
(2.4783 3.27013 0)
(2.55355 3.70103 0)
(2.61406 4.18131 0)
(2.64538 4.72068 0)
(2.62336 5.33782 0)
(2.50284 6.08354 0)
(2.16493 6.98265 0)
(1.30555 7.85545 0)
(-0.169778 0.0759064 0)
(-0.442783 0.0595822 0)
(-0.574402 0.000908248 0)
(-0.511611 -0.021161 -1.26772e-22)
(-0.437759 -0.00991561 0)
(-0.441493 0.0101178 0)
(-0.57062 0.0384237 0)
(-0.829169 0.0542888 0)
(-1.07366 0.0263175 0)
(-1.14719 -0.0119371 1.6924e-21)
(-1.24118 0.0496695 0)
(-2.37502 0.422282 0)
(-5.70129 0.509879 -6.07667e-21)
(-8.19061 0.406232 6.21732e-22)
(-9.51445 -0.0131937 0)
(-8.18336 -0.575584 -2.0662e-20)
(-4.96358 -0.775369 -1.8793e-20)
(-3.09105 0.218204 3.67654e-20)
(-7.96795 2.54098 0)
(-26.9487 2.19446 1.2421e-19)
(-32.6987 1.4922 4.13871e-19)
(-36.1143 0.69597 2.27533e-18)
(-37.1534 -4.88149 -5.24894e-18)
(3.52516 -6.49923 4.40069e-18)
(15.5459 -2.99261 0)
(23.3158 -1.24087 -7.76677e-19)
(27.0387 -0.593729 0)
(28.8951 -0.302539 5.92358e-19)
(29.736 -0.101191 1.14913e-18)
(29.9163 0.0240118 0)
(29.7914 0.0393878 5.15261e-19)
(29.5607 0.041466 -4.50929e-19)
(29.2683 0.0605068 2.12747e-19)
(28.9301 0.0782461 -2.50406e-19)
(28.6445 0.147591 0)
(27.8388 0.219926 0)
(27.0498 0.212843 -4.15565e-20)
(26.0159 0.233543 0)
(25.6163 0.0844742 -9.47541e-20)
(25.3609 0.0569584 0)
(25.1937 0.0549363 0)
(25.0124 0.0727272 -6.31989e-20)
(24.8359 0.0191719 0)
(24.6821 0.37462 0)
(23.8715 0.202247 2.36734e-21)
(23.5196 0.0573834 5.22858e-22)
(23.2561 0.0354914 0)
(23.0583 0.0244217 5.64776e-23)
(22.9185 0.0160125 -9.95225e-23)
(22.8224 0.00989494 1.39874e-22)
(22.7557 0.00655799 0)
(22.7007 0.00626977 -2.02409e-22)
(22.6432 0.00698989 0)
(22.5855 0.00603574 9.13017e-23)
(22.5411 0.00325352 0)
(22.5212 0.000135284 0)
(22.5295 -0.00413582 -5.58757e-26)
(22.56 -0.00678405 4.7859e-26)
(22.5948 -0.00541523 0)
(22.6055 -0.000954377 0)
(-0.240824 0.24675 0)
(-0.371037 0.166627 0)
(-0.467233 0.0466106 -1.57955e-22)
(-0.478477 -0.0327015 0)
(-0.469558 -0.022262 0)
(-0.488931 0.0243349 -1.38906e-22)
(-0.562862 0.0917339 -1.05368e-22)
(-0.693012 0.143529 0)
(-0.855846 0.125925 8.28879e-24)
(-1.05007 0.090881 -1.10725e-23)
(-1.40678 0.236847 1.99122e-23)
(-2.39555 1.10959 -1.91733e-20)
(-4.29435 1.79908 -1.27078e-21)
(-6.26349 1.33143 0)
(-7.53356 0.444019 0)
(-7.57069 -0.916057 4.47307e-21)
(-6.3423 -1.73462 0)
(-5.44703 0.0661864 0)
(-7.19364 3.70515 1.51857e-22)
(-9.537 6.98628 0)
(-6.88431 1.54753 0)
(4.06412 -5.11711 0)
(16.0563 -8.62187 -1.05572e-19)
(16.2072 -7.2571 6.97424e-20)
(17.2789 -4.51752 5.48131e-20)
(19.6259 -2.63926 9.8926e-20)
(21.7627 -1.62057 0)
(23.3783 -1.00336 0)
(24.5413 -0.569215 4.52045e-20)
(25.3703 -0.282758 -3.58774e-23)
(25.9385 -0.114753 0)
(26.2885 -0.0121562 9.72423e-24)
(26.474 0.0649049 -1.00815e-20)
(26.5048 0.144483 0)
(26.4177 0.242124 0)
(26.3141 0.313277 -2.40177e-21)
(26.1514 0.353648 0)
(26.0178 0.30218 0)
(25.8371 0.178933 0)
(25.5883 0.147543 1.04487e-21)
(25.3584 0.13676 8.19533e-22)
(25.1357 0.13734 -1.46377e-21)
(24.8991 0.145937 6.14869e-22)
(24.6116 0.270185 0)
(24.4184 0.267923 6.52415e-22)
(24.1558 0.196909 0)
(23.9346 0.147479 -7.72247e-23)
(23.7663 0.106698 8.26871e-23)
(23.6448 0.0743576 1.16548e-22)
(23.5616 0.0502632 -1.46704e-22)
(23.5063 0.0357631 1.69656e-22)
(23.4639 0.0327011 1.84245e-22)
(23.4199 0.0349715 -3.75716e-22)
(23.3747 0.0318397 0)
(23.3402 0.0200866 0)
(23.3274 0.00342194 0)
(23.3385 -0.011922 0)
(23.3666 -0.0204633 3.41813e-23)
(23.399 -0.0157898 -3.85236e-23)
(23.4154 0.00248437 0)
(-0.249405 0.373896 0)
(-0.345339 0.241447 -9.27263e-22)
(-0.418715 0.107728 0)
(-0.436205 -0.0176607 4.68375e-22)
(-0.458079 -0.0230339 6.52027e-22)
(-0.487707 0.029071 4.73403e-22)
(-0.535574 0.114118 0)
(-0.605607 0.194651 -1.33086e-21)
(-0.705467 0.211139 0)
(-0.863747 0.212645 0)
(-1.21459 0.456958 0)
(-2.18877 1.50214 0)
(-3.3015 2.58975 0)
(-4.75195 2.33808 0)
(-6.13365 1.24363 0)
(-6.79523 -0.698685 0)
(-6.54406 -2.17174 0)
(-6.20733 -0.351616 -4.70229e-19)
(-8.185 3.90149 0)
(-5.32536 3.67409 0)
(0.832225 -1.52235 0)
(16.4316 -9.81173 0)
(16.9951 -9.09194 0)
(17.4503 -7.72874 0)
(18.3043 -5.66677 0)
(19.792 -3.84896 0)
(21.2757 -2.58313 0)
(22.4579 -1.70993 0)
(23.3445 -1.08412 3.82581e-20)
(24.0085 -0.65194 0)
(24.4966 -0.367862 -1.87091e-20)
(24.8372 -0.173985 0)
(25.0575 -0.0267988 0)
(25.1816 0.106613 0)
(25.2478 0.227044 0)
(25.2761 0.319613 0)
(25.2727 0.375492 -2.95648e-22)
(25.2469 0.353893 0)
(25.1437 0.286477 0)
(24.9914 0.253937 0)
(24.836 0.239944 -6.28742e-22)
(24.6751 0.241201 5.83132e-22)
(24.4962 0.267759 -5.39729e-22)
(24.3167 0.347418 0)
(24.1935 0.358028 7.84856e-23)
(24.0437 0.301733 0)
(23.8991 0.236357 0)
(23.7801 0.174669 0)
(23.6914 0.122523 0)
(23.6315 0.0819857 -1.61618e-22)
(23.5943 0.0565481 0)
(23.5678 0.0510259 -3.70656e-22)
(23.5362 0.0559993 0)
(23.5007 0.0513222 0)
(23.4752 0.0311765 -8.1384e-23)
(23.4701 0.00251645 7.76502e-23)
(23.4864 -0.0233464 -1.51328e-22)
(23.5156 -0.037027 3.44069e-23)
(23.5478 -0.0294091 0)
(23.5662 0.0024408 3.5649e-24)
(-0.260617 0.45021 0)
(-0.327556 0.313393 0)
(-0.386187 0.164197 0)
(-0.394843 0.0145432 0)
(-0.434653 -0.0103011 -6.92965e-22)
(-0.475372 0.0318303 0)
(-0.511777 0.115063 0)
(-0.542472 0.208885 6.72161e-24)
(-0.587698 0.258166 0)
(-0.662472 0.275132 -1.17258e-24)
(-0.785015 0.546571 -8.11493e-21)
(-0.954774 1.83242 0)
(-2.17242 3.05791 0)
(-3.09969 3.17153 -1.07044e-22)
(-4.72425 2.08835 4.9565e-22)
(-5.79028 -0.120703 -7.38649e-23)
(-5.85088 -2.12034 2.70842e-20)
(-5.681 -1.63417 0)
(-7.01349 3.48836 -1.09944e-20)
(-4.1276 2.42281 0)
(15.7981 -10.4319 2.08693e-23)
(16.7095 -10.3673 2.01229e-23)
(17.4687 -9.57671 -9.12867e-23)
(18.1511 -8.33045 -3.08494e-21)
(18.9731 -6.57904 -2.09701e-20)
(20.0992 -4.81282 0)
(21.2247 -3.38345 0)
(22.1221 -2.30843 -1.35507e-22)
(22.7782 -1.52193 9.56385e-23)
(23.2575 -0.970297 0)
(23.6124 -0.595861 1.62322e-20)
(23.8725 -0.333594 0)
(24.0586 -0.134899 0)
(24.1918 0.0321882 0)
(24.2951 0.174332 -4.87912e-21)
(24.3747 0.287076 0)
(24.4349 0.360131 0)
(24.4679 0.370634 -4.10726e-23)
(24.4427 0.34021 -4.52323e-22)
(24.3745 0.31676 4.68219e-22)
(24.2906 0.30614 9.97008e-22)
(24.1942 0.312051 0)
(24.0841 0.343873 9.10315e-22)
(23.9834 0.400894 0)
(23.9177 0.413439 2.73682e-23)
(23.8439 0.366214 1.062e-22)
(23.7657 0.295819 0)
(23.6963 0.222554 1.24913e-22)
(23.6435 0.156662 0)
(23.6097 0.10324 -1.6524e-22)
(23.5931 0.0681839 -1.78525e-22)
(23.5848 0.0614765 1.93422e-22)
(23.5658 0.0720439 -1.98125e-22)
(23.538 0.0668944 -1.73098e-22)
(23.5201 0.0384727 0)
(23.5221 -0.00189559 7.44514e-23)
(23.5438 -0.0368498 7.5035e-23)
(23.5743 -0.0541031 -3.57253e-23)
(23.607 -0.0447175 0)
(23.6284 0.0007451 0)
(-0.281749 0.509663 -3.27558e-22)
(-0.330988 0.388169 -5.75008e-22)
(-0.346313 0.211519 0)
(-0.362975 0.0559619 2.54067e-22)
(-0.411895 0.0135965 -7.01364e-22)
(-0.461083 0.0400387 0)
(-0.499405 0.107901 0)
(-0.508975 0.196477 8.44642e-24)
(-0.514113 0.272565 -6.81299e-24)
(-0.551381 0.283221 3.55658e-21)
(-0.543859 0.435951 4.60714e-21)
(-0.479645 1.41383 8.28786e-23)
(-0.153476 3.11692 -2.53401e-20)
(-0.896727 3.79583 0)
(-0.361464 5.10008 2.93258e-22)
(-4.36169 0.517231 3.09221e-21)
(-4.39314 -1.85053 0)
(-3.99279 -2.47238 9.69313e-20)
(-6.50628 4.74098 1.17177e-19)
(13.5827 -9.32727 0)
(16.3718 -11.3044 8.84513e-21)
(17.2573 -10.889 -4.11716e-23)
(18.0679 -10.1516 0)
(18.8314 -8.96871 0)
(19.6022 -7.35819 2.2146e-20)
(20.4598 -5.61721 2.33892e-22)
(21.273 -4.05956 0)
(21.9039 -2.80856 0)
(22.3486 -1.87711 1.13143e-22)
(22.6685 -1.22381 0)
(22.9146 -0.78119 -2.70788e-20)
(23.1124 -0.471263 -3.66295e-23)
(23.2728 -0.239781 5.61936e-21)
(23.4089 -0.0533374 -6.6995e-21)
(23.5318 0.102289 3.70261e-21)
(23.642 0.228365 1.67215e-21)
(23.7391 0.31636 0)
(23.8134 0.35316 5.27695e-25)
(23.8464 0.351571 0)
(23.8425 0.342054 -3.80787e-22)
(23.8174 0.338618 -4.13146e-22)
(23.7771 0.350188 -4.02564e-22)
(23.7268 0.382886 -3.72249e-22)
(23.6861 0.426108 2.98644e-22)
(23.6677 0.436348 -6.67387e-23)
(23.6488 0.396306 8.54467e-23)
(23.6236 0.327214 -3.64661e-22)
(23.5976 0.249547 -7.13077e-25)
(23.5774 0.175611 1.40807e-22)
(23.5674 0.113325 -1.62912e-22)
(23.5685 0.0699297 1.76924e-22)
(23.5783 0.062852 0)
(23.5712 0.0836364 2.24699e-22)
(23.5489 0.0792623 -1.69141e-22)
(23.537 0.0425568 0)
(23.5443 -0.00919212 6.68034e-23)
(23.5697 -0.0521108 7.2831e-23)
(23.5993 -0.070672 1.8264e-26)
(23.6301 -0.0617675 0)
(23.6552 -0.00236118 -1.64319e-23)
(-0.254621 0.536646 1.18486e-22)
(-0.30268 0.438969 0)
(-0.314174 0.264411 6.41479e-25)
(-0.342461 0.105493 0)
(-0.396821 0.0453288 0)
(-0.452032 0.0575815 5.01232e-22)
(-0.502174 0.106179 0)
(-0.513381 0.170847 4.29999e-22)
(-0.490358 0.261045 -3.67395e-21)
(-0.519279 0.302811 7.04324e-21)
(-0.555664 0.339321 -1.61847e-21)
(-0.539327 1.03373 -4.40758e-21)
(-0.383357 2.62521 3.70567e-20)
(-0.0384053 3.5422 1.05252e-20)
(-0.0739929 5.00684 0)
(-2.22508 1.6816 1.11469e-19)
(-2.4074 -1.51629 0)
(-2.32218 -2.63748 0)
(-1.04359 3.18537 -6.84555e-19)
(15.6966 -12.0312 0)
(16.6963 -11.8765 0)
(17.7519 -11.4796 -1.87106e-20)
(18.6705 -10.7677 -3.10896e-20)
(19.4648 -9.61218 0)
(20.1506 -8.04296 -2.58226e-20)
(20.7613 -6.28069 0)
(21.2656 -4.60678 3.81749e-20)
(21.6248 -3.20477 0)
(21.8763 -2.15663 4.82678e-20)
(22.0817 -1.42731 0)
(22.272 -0.940825 -1.07219e-20)
(22.4554 -0.601864 6.85551e-21)
(22.6257 -0.350346 0)
(22.7856 -0.152137 -2.39426e-21)
(22.9383 0.0130859 1.22171e-21)
(23.0817 0.149187 -4.76182e-22)
(23.2122 0.250717 -3.62466e-24)
(23.3222 0.308633 -1.72764e-22)
(23.3995 0.330622 2.75863e-22)
(23.4433 0.337086 -9.86452e-25)
(23.4624 0.343282 0)
(23.4646 0.360635 3.42406e-22)
(23.4588 0.393122 3.0287e-22)
(23.4613 0.427476 0)
(23.4799 0.435282 -2.34228e-26)
(23.5002 0.400408 -6.28552e-23)
(23.5145 0.335463 1.63152e-22)
(23.5217 0.258581 2.21257e-22)
(23.5265 0.181434 -2.55608e-22)
(23.5339 0.114441 -1.54425e-22)
(23.5451 0.0639788 1.6634e-22)
(23.568 0.0547489 2.35779e-22)
(23.5724 0.0920349 -2.82342e-22)
(23.5541 0.0890427 0)
(23.5485 0.043953 1.17746e-22)
(23.5587 -0.0181947 0)
(23.5839 -0.0683031 6.93101e-23)
(23.6088 -0.0841356 0)
(23.6308 -0.07948 0)
(23.6583 -0.00779514 0)
(-0.208127 0.506791 -5.99214e-22)
(-0.261615 0.488847 0)
(-0.280168 0.322483 0)
(-0.321437 0.163583 -1.41275e-21)
(-0.385018 0.0869424 0)
(-0.457953 0.0852212 0)
(-0.521906 0.118914 0)
(-0.557984 0.153943 0)
(-0.544832 0.221772 0)
(-0.534178 0.333495 0)
(-0.632753 0.331749 0)
(-0.773973 0.810564 -1.82968e-20)
(-0.991121 2.2091 0)
(-0.716853 3.26538 0)
(-0.721681 4.7218 -7.67117e-20)
(-2.01689 3.09462 0)
(-0.00343432 -1.07749 -8.07194e-23)
(-0.208895 -2.89805 0)
(11.3778 -6.88869 -7.99199e-21)
(16.0792 -12.7776 0)
(17.1703 -12.5431 0)
(18.2804 -12.1429 -2.13546e-20)
(19.2293 -11.4125 -2.14932e-20)
(19.9831 -10.2374 2.40232e-20)
(20.5226 -8.6341 -3.01341e-20)
(20.8582 -6.79574 0)
(21.0403 -5.01679 2.14024e-22)
(21.156 -3.52241 2.03896e-22)
(21.2925 -2.41968 0)
(21.4925 -1.64938 -1.02151e-20)
(21.7188 -1.13031 0)
(21.9491 -0.764507 -3.01352e-21)
(22.1665 -0.490713 1.12487e-23)
(22.3673 -0.277389 -6.37843e-22)
(22.5548 -0.101619 0)
(22.7286 0.0459797 -3.2841e-22)
(22.8878 0.16153 5.98422e-22)
(23.0265 0.238906 7.62032e-22)
(23.1342 0.283349 3.96764e-22)
(23.2078 0.308665 3.8874e-22)
(23.2525 0.32765 0)
(23.2783 0.351434 -2.9305e-22)
(23.2977 0.383202 -2.41339e-22)
(23.3268 0.409904 1.0036e-24)
(23.3709 0.414991 0)
(23.4179 0.384088 7.01269e-24)
(23.4593 0.325063 -1.10999e-22)
(23.4888 0.253641 1.68609e-22)
(23.5084 0.177943 0)
(23.5242 0.110454 1.46683e-22)
(23.5349 0.0569598 0)
(23.5561 0.0392693 0)
(23.5726 0.0950629 0)
(23.5632 0.0935016 0)
(23.5677 0.0430622 0)
(23.579 -0.0245834 0)
(23.5942 -0.0790612 0)
(23.6098 -0.0905289 -8.73891e-23)
(23.614 -0.0897673 -1.23762e-23)
(23.6304 -0.0160597 7.09608e-23)
(-0.146967 0.435848 0)
(-0.214684 0.542676 1.85405e-23)
(-0.236343 0.387458 -7.10665e-22)
(-0.29378 0.230709 -1.49709e-21)
(-0.370918 0.142717 0)
(-0.466625 0.127966 0)
(-0.560751 0.149456 0)
(-0.634891 0.167247 -1.51221e-21)
(-0.674618 0.193207 0)
(-0.670372 0.316758 0)
(-0.72113 0.382081 0)
(-1.00998 0.699611 -9.33812e-20)
(-2.32748 1.93981 0)
(-3.5914 3.17058 0)
(-6.06377 6.31875 5.4787e-19)
(-2.86165 1.57033 0)
(2.52449 -1.19128 0)
(2.56163 -2.96873 0)
(15.1944 -13.428 8.72717e-20)
(16.6089 -13.4174 -5.02142e-21)
(17.7708 -13.2345 0)
(18.8248 -12.8175 -2.37726e-20)
(19.702 -12.0441 -2.59503e-20)
(20.3176 -10.8036 -2.9077e-20)
(20.612 -9.09828 -3.65599e-20)
(20.5796 -7.1876 0)
(20.4242 -5.37064 0)
(20.417 -3.74448 0)
(20.6481 -2.58388 0)
(20.9907 -1.77678 0)
(21.338 -1.23648 0)
(21.643 -0.857787 -2.98839e-20)
(21.9145 -0.572795 0)
(22.1518 -0.350202 0)
(22.3644 -0.16814 2.63997e-20)
(22.5623 -0.0204745 2.51297e-20)
(22.7429 0.104214 1.22534e-22)
(22.9038 0.189976 0)
(23.0291 0.245765 0)
(23.116 0.283014 0)
(23.1688 0.311262 0)
(23.1995 0.339412 0)
(23.2271 0.370162 0)
(23.2707 0.390653 0)
(23.3327 0.393201 0)
(23.3991 0.364883 0)
(23.4573 0.311221 0)
(23.5 0.246881 0)
(23.5248 0.175437 0)
(23.5371 0.109308 -1.01842e-21)
(23.5402 0.057155 0)
(23.5286 0.0317601 0)
(23.5391 0.0957263 0)
(23.5334 0.0934183 0)
(23.4702 0.0489052 -2.32568e-21)
(23.0009 -0.0121636 0)
(22.8705 -0.0882672 0)
(22.8229 -0.0946476 0)
(22.7949 -0.0885797 0)
(22.7637 -0.0350348 -1.67853e-23)
(-0.123273 0.340592 1.57206e-21)
(-0.156058 0.558861 0)
(-0.1793 0.462627 -3.22165e-22)
(-0.263409 0.308738 0)
(-0.352854 0.210969 0)
(-0.467364 0.190697 0)
(-0.597912 0.205929 2.85122e-21)
(-0.71751 0.212934 0)
(-0.818813 0.215802 -5.21022e-21)
(-0.916161 0.296344 0)
(-1.05755 0.578418 3.37475e-20)
(-2.6104 1.17203 -2.20402e-19)
(-3.2194 2.73155 0)
(-4.95501 3.9562 0)
(-5.07857 5.22677 -6.73772e-19)
(3.38315 -1.27321 2.01705e-19)
(3.42589 -1.47273 6.67907e-20)
(4.4668 -3.51839 1.28127e-19)
(16.4708 -14.0946 2.35365e-20)
(17.3209 -14.095 0)
(18.3697 -13.8939 2.2506e-20)
(19.3 -13.4508 -2.62315e-20)
(20.0178 -12.6112 0)
(20.3898 -11.251 3.66385e-20)
(20.2866 -9.46799 0)
(19.8236 -7.46167 -1.14136e-19)
(19.9027 -5.27778 8.25619e-20)
(19.8705 -4.1045 0)
(20.059 -3.01182 0)
(20.3213 -2.17791 0)
(20.5734 -1.57603 2.75425e-20)
(20.7852 -1.14114 2.34014e-20)
(20.9602 -0.813119 -3.81754e-20)
(21.1111 -0.55785 0)
(21.2572 -0.364892 1.31251e-20)
(21.4313 -0.266756 -1.97472e-20)
(21.6765 -0.175921 6.64891e-22)
(21.8938 -0.012643 -1.8313e-21)
(22.0483 0.097624 6.76131e-23)
(22.1428 0.186332 6.24403e-22)
(22.2017 0.254604 -4.85555e-22)
(22.2398 0.300198 6.90747e-24)
(22.2763 0.322493 9.06972e-22)
(22.3259 0.319991 1.01454e-21)
(22.3914 0.309819 1.55054e-21)
(22.4529 0.289272 -1.3287e-21)
(22.499 0.253342 0)
(22.5256 0.211898 -8.75246e-22)
(22.5249 0.163715 6.12434e-24)
(22.4796 0.125903 0)
(22.3574 0.14047 0)
(22.1345 0.191164 0)
(21.9082 0.178717 0)
(21.7716 0.146004 5.25979e-22)
(21.6296 0.207987 0)
(21.5327 0.128756 0)
(21.4211 -0.0152954 -5.43444e-22)
(21.3343 -0.0599724 -1.33789e-22)
(21.2734 -0.0579712 -5.64687e-23)
(21.2188 -0.00472993 9.00704e-24)
(-0.0649892 0.250242 0)
(-0.0854727 0.526972 0)
(-0.125405 0.543785 0)
(-0.239329 0.399783 0)
(-0.335608 0.288341 0)
(-0.461166 0.267553 0)
(-0.621111 0.289184 0)
(-0.785822 0.291064 0)
(-0.941926 0.290238 0)
(-1.13338 0.354039 0)
(-1.40778 0.711304 0)
(-1.78394 1.2739 0)
(-2.70351 3.07476 0)
(-3.33768 4.18795 0)
(-1.24456 3.12125 0)
(2.80426 -1.08358 0)
(3.40719 -1.79085 0)
(14.8238 -12.3189 0)
(17.1568 -14.7301 0)
(17.9565 -14.6706 0)
(18.8455 -14.4846 0)
(19.6107 -14.0058 0)
(20.1042 -13.0636 0)
(20.1126 -11.6071 0)
(19.8532 -9.58781 0)
(19.5385 -7.317 0)
(19.177 -5.71385 2.73553e-20)
(19.0923 -4.30116 0)
(19.1516 -3.2256 0)
(19.2809 -2.3851 0)
(19.4484 -1.74759 0)
(19.6086 -1.27485 0)
(19.745 -0.919024 0)
(19.8609 -0.646868 0)
(19.9663 -0.448046 0)
(20.0638 -0.338902 0)
(20.1357 -0.226653 0)
(20.2299 -0.059539 0)
(20.3315 0.0781766 0)
(20.4124 0.174425 0)
(20.4717 0.243172 0)
(20.5183 0.289758 0)
(20.562 0.315723 0)
(20.6068 0.322218 0)
(20.6505 0.316085 0)
(20.6912 0.299343 0)
(20.7187 0.268405 0)
(20.7235 0.231929 0)
(20.6975 0.19708 8.71139e-22)
(20.626 0.184233 1.23837e-21)
(20.5101 0.221279 0)
(20.3901 0.278729 0)
(20.295 0.257905 0)
(20.1886 0.223935 0)
(20.1017 0.243914 6.32982e-22)
(20.0787 0.166393 9.63518e-23)
(20.0083 0.0417548 -1.85819e-22)
(19.9232 -0.0155344 0)
(19.8502 -0.0207276 -5.1357e-23)
(19.7933 0.017078 0)
(-0.00342242 0.145905 -2.13695e-21)
(-0.0534205 0.475622 0)
(-0.118564 0.61772 -3.08758e-22)
(-0.219214 0.500079 -1.34565e-21)
(-0.324805 0.37234 0)
(-0.453667 0.350358 0)
(-0.630178 0.391204 0)
(-0.835611 0.394609 -4.96149e-21)
(-1.01925 0.395427 -5.34441e-21)
(-1.24691 0.466869 0)
(-1.56208 0.758272 1.57484e-20)
(-1.74505 1.44791 0)
(-1.95989 3.3019 0)
(-0.910661 3.64551 -6.7042e-21)
(2.5738 0.379347 1.84027e-18)
(2.34561 -0.819893 -5.51166e-20)
(3.03735 -2.03872 7.91604e-23)
(16.706 -14.6848 0)
(17.5775 -15.1161 -2.98973e-20)
(18.3662 -15.1669 4.26417e-20)
(19.1221 -14.9948 9.80846e-23)
(19.7031 -14.4572 -6.19402e-20)
(19.8946 -13.4209 3.82592e-20)
(19.8088 -11.9987 3.00362e-19)
(19.0989 -9.43207 0)
(18.3705 -7.52382 1.51229e-22)
(18.0301 -5.82215 2.65516e-20)
(17.8806 -4.47124 0)
(17.8756 -3.41018 2.40082e-20)
(17.9516 -2.57165 2.16623e-20)
(18.0743 -1.91784 -1.92981e-20)
(18.2083 -1.41749 1.65477e-20)
(18.3327 -1.03481 0)
(18.4419 -0.741285 0)
(18.537 -0.524707 0)
(18.6108 -0.387115 0)
(18.6431 -0.271319 4.35467e-21)
(18.6815 -0.122609 -2.26839e-21)
(18.7428 0.0168919 -1.21275e-24)
(18.8062 0.125539 -2.2011e-22)
(18.863 0.204971 4.05291e-22)
(18.9138 0.258043 0)
(18.9607 0.2871 -4.82846e-22)
(19.0029 0.296531 0)
(19.0387 0.293827 0)
(19.0669 0.282516 0)
(19.0816 0.263219 0)
(19.0754 0.241834 0)
(19.0419 0.227163 0)
(18.9765 0.235224 -1.16537e-21)
(18.896 0.276594 0)
(18.8373 0.316629 -6.99548e-22)
(18.7955 0.301171 -3.98242e-22)
(18.7375 0.272498 3.55671e-22)
(18.6993 0.259342 4.07683e-22)
(18.693 0.186423 0)
(18.6474 0.0866033 -1.11087e-22)
(18.5764 0.0298461 -1.10006e-22)
(18.5078 0.0177283 0)
(18.4574 0.0383493 -7.45226e-24)
(0.0757963 0.0380193 1.92195e-21)
(-0.0570013 0.424278 0)
(-0.13217 0.65567 0)
(-0.206798 0.605553 -1.29431e-22)
(-0.328941 0.465812 0)
(-0.457147 0.431323 -2.95049e-21)
(-0.650507 0.508656 -5.09746e-21)
(-0.853415 0.510496 0)
(-1.04696 0.508621 -1.16713e-20)
(-1.27323 0.584802 6.09286e-21)
(-1.53106 0.818459 -1.84949e-20)
(-1.69859 1.36809 0)
(-1.54534 1.91141 0)
(-0.240172 2.0507 0)
(1.15314 1.08268 -1.94532e-19)
(1.92021 -0.675442 1.88222e-22)
(7.51254 -7.74908 0)
(17.0294 -15.3075 0)
(17.8173 -15.5283 4.22216e-20)
(18.5601 -15.6174 0)
(19.1937 -15.4236 -5.53239e-20)
(19.556 -14.8079 0)
(19.5825 -13.7918 1.32426e-19)
(19.0939 -11.5272 4.52036e-20)
(17.8092 -9.39752 1.55905e-20)
(17.0741 -7.50373 2.0666e-20)
(16.6615 -5.90895 0)
(16.4725 -4.61039 0)
(16.4286 -3.56984 -1.98556e-20)
(16.4723 -2.73674 0)
(16.5686 -2.07459 1.62649e-20)
(16.6876 -1.5556 1.41003e-20)
(16.8086 -1.15137 0)
(16.9214 -0.837612 9.82134e-21)
(17.0214 -0.600604 7.96222e-21)
(17.0988 -0.433976 -5.0818e-24)
(17.1396 -0.301905 4.22654e-21)
(17.1714 -0.163019 2.41066e-21)
(17.2177 -0.0296238 0)
(17.2732 0.081471 2.80259e-22)
(17.33 0.16597 3.47451e-22)
(17.3847 0.224083 -7.49825e-22)
(17.4351 0.258124 4.8789e-22)
(17.4786 0.273215 -5.68937e-22)
(17.5135 0.276249 6.69789e-22)
(17.5383 0.271741 7.38789e-22)
(17.5499 0.262531 0)
(17.5438 0.253852 8.10701e-22)
(17.5171 0.253465 -9.03625e-22)
(17.4731 0.270856 -1.08501e-21)
(17.4296 0.305901 0)
(17.4083 0.331581 0)
(17.3982 0.320394 0)
(17.3797 0.29404 0)
(17.3718 0.263486 0)
(17.3723 0.198272 3.11027e-23)
(17.3426 0.119832 -5.73728e-23)
(17.2889 0.068872 0)
(17.2334 0.0511475 -1.41929e-26)
(17.1939 0.056463 -7.82241e-24)
(0.157772 -0.102244 0)
(-0.0805411 0.397446 0)
(-0.157931 0.64505 6.97253e-22)
(-0.239003 0.705587 0)
(-0.359784 0.568194 0)
(-0.48766 0.51417 5.91155e-21)
(-0.655622 0.608624 -1.05705e-20)
(-0.834561 0.633362 0)
(-1.04317 0.625736 0)
(-1.26171 0.689939 -4.8814e-25)
(-1.45718 0.853295 0)
(-1.51091 1.21254 0)
(-1.22242 1.64132 -1.58653e-21)
(-0.397121 1.71947 -3.54107e-20)
(0.511818 1.06742 -2.38974e-20)
(1.19627 -0.725135 2.58202e-19)
(16.572 -15.7845 -1.50468e-19)
(17.1727 -15.6656 -1.40742e-23)
(17.907 -15.9288 -4.71235e-20)
(18.592 -16.022 0)
(19.083 -15.7672 0)
(19.2284 -15.1087 -8.04631e-20)
(19.3652 -13.2818 -3.46543e-19)
(17.4403 -11.2967 7.60082e-21)
(16.4025 -9.2032 1.73791e-20)
(15.6877 -7.45144 0)
(15.2466 -5.96119 -1.66897e-20)
(15.0205 -4.72204 1.68628e-20)
(14.9406 -3.70962 -1.62312e-20)
(14.9543 -2.88738 0)
(15.0268 -2.22359 1.35164e-20)
(15.1316 -1.69338 -1.18114e-20)
(15.2484 -1.27315 0)
(15.365 -0.941936 8.48979e-21)
(15.4733 -0.685487 -6.92368e-21)
(15.5637 -0.49364 -5.43417e-21)
(15.6263 -0.342658 7.70113e-21)
(15.6742 -0.203578 0)
(15.726 -0.074305 1.16499e-21)
(15.7848 0.0364152 0)
(15.8467 0.123603 3.21718e-22)
(15.9079 0.186085 6.942e-27)
(15.9648 0.22574 4.89735e-22)
(16.0142 0.247357 -5.73754e-22)
(16.0541 0.257086 0)
(16.0834 0.259825 -7.19819e-22)
(16.1005 0.259405 -7.62073e-22)
(16.1036 0.260519 -1.087e-25)
(16.0931 0.268774 8.8498e-22)
(16.0752 0.28842 0)
(16.0636 0.315123 0)
(16.0689 0.330882 0)
(16.0817 0.321524 4.44003e-22)