/*--------------------------------*- C++ -*----------------------------------*\
| =========                 |                                                 |
| \\      /  F ield         | OpenFOAM: The Open Source CFD Toolbox           |
|  \\    /   O peration     | Version:  v1912                                 |
|   \\  /    A nd           | Website:  www.openfoam.com                      |
|    \\/     M anipulation  |                                                 |
\*---------------------------------------------------------------------------*/
FoamFile
{
    version     2.0;
    format      ascii;
    class       surfaceScalarField;
    location    "36";
    object      alphaPhi0.water;
}
// * * * * * * * * * * * * * * * * * * * * * * * * * * * * * * * * * * * * * //

dimensions      [0 3 -1 0 0 0 0];
oriented        oriented;


internalField   nonuniform List<scalar> 
40282
(
0.00278966
0.00266452
1.91899
-1.92564
1.92008
0.00556526
-1.91108
1.89894
0.0121394
-1.88375
1.86563
0.0181218
-1.84458
1.82074
0.0238345
-1.79408
1.76475
0.029334
-1.73268
1.6981
0.034583
-1.66091
1.62133
0.0395842
-1.57922
1.53482
0.0443932
-1.48806
1.43919
0.0488657
-1.38812
1.33507
0.0530533
-1.2799
1.22285
0.0570553
-1.16384
1.10311
0.0607311
-1.04066
0.976632
0.0640276
-0.911098
0.844055
0.0670427
-0.775707
0.705712
0.0699954
-0.63444
0.561269
0.0731705
-0.486946
0.409987
0.0769587
-0.33154
0.248863
0.0826765
-0.164124
0.0726725
0.0914511
-0.00421908
0.00559967
1.85413
-1.8497
1.84279
-0.0141115
0.0210235
-1.83315
1.82073
-0.0256239
0.038047
-1.80551
1.78751
-0.0368933
0.0548875
-1.7668
1.74341
-0.0479537
0.0713453
-1.71738
1.68875
-0.0587516
0.0873843
-1.65756
1.62384
-0.0692053
0.102927
-1.58764
1.54901
-0.0792557
0.117887
-1.50801
1.46469
-0.0888697
0.132194
-1.41912
1.37134
-0.0980237
0.145803
-1.32142
1.2694
-0.106651
0.158672
-1.21535
1.1593
-0.114697
0.170746
-1.10133
1.04148
-0.122121
0.181977
-0.979804
0.916357
-0.128853
0.1923
-0.851198
0.784378
-0.134808
0.201628
-0.715937
0.64596
-0.139956
0.209934
-0.574463
0.501617
-0.144403
0.217249
-0.427478
0.352407
-0.148756
0.223827
-0.276459
0.200286
-0.154489
0.230661
-0.123998
0.0514995
-0.16536
0.237858
-0.00701671
0.00836092
1.78769
-1.7835
1.77669
-0.0281809
0.0349897
-1.76722
1.75511
-0.0506743
0.06278
-1.74039
1.72305
-0.0729233
0.0902586
-1.70312
1.68059
-0.0947428
0.117266
-1.65551
1.6279
-0.116019
0.143626
-1.59781
1.56526
-0.136648
0.169194
-1.53031
1.493
-0.156511
0.193821
-1.45339
1.41152
-0.175513
0.217377
-1.36747
1.32129
-0.193562
0.239742
-1.27305
1.22285
-0.210617
0.260826
-1.17074
1.1168
-0.226663
0.280601
-1.0611
1.00369
-0.241649
0.299054
-0.944641
0.883993
-0.255499
0.316147
-0.821797
0.758096
-0.268049
0.33175
-0.692924
0.626315
-0.279007
0.345616
-0.558303
0.488972
-0.288081
0.357412
-0.418457
0.347
-0.295248
0.366705
-0.274901
0.202674
-0.301184
0.373412
-0.130956
0.0620507
-0.30877
0.377676
-0.00964433
0.0109213
1.72367
-1.71981
1.71339
-0.0416985
0.0481206
-1.70441
1.69288
-0.0748101
0.0863382
-1.67882
1.66224
-0.107554
0.124133
-1.64316
1.6216
-0.139737
0.161299
-1.59757
1.57112
-0.17118
0.197637
-1.54225
1.51102
-0.201707
0.232945
-1.47744
1.44156
-0.231137
0.267018
-1.40342
1.36306
-0.259293
0.299646
-1.32055
1.27595
-0.286018
0.330626
-1.22931
1.1807
-0.311174
0.359776
-1.13022
1.07795
-0.334685
0.38696
-1.02397
0.968392
-0.356538
0.412117
-0.911299
0.852778
-0.37674
0.435261
-0.792903
0.73174
-0.395245
0.456408
-0.669343
0.605758
-0.411813
0.475397
-0.541027
0.475177
-0.425829
0.491679
-0.40822
0.340204
-0.43638
0.504396
-0.271258
0.201669
-0.443124
0.512713
-0.131837
0.0634435
-0.447344
0.515738
-0.0121421
0.013349
1.66194
-1.65829
1.6522
-0.0544924
0.0605789
-1.64369
1.63276
-0.097781
0.108713
-1.61941
1.60367
-0.140602
0.156344
-1.58554
1.56504
-0.182728
0.203227
-1.54219
1.517
-0.223945
0.249133
-1.4895
1.45972
-0.264031
0.293818
-1.42767
1.3934
-0.302753
0.337027
-1.35693
1.31831
-0.339873
0.378493
-1.27758
1.23478
-0.375147
0.417941
-1.18998
1.14323
-0.408351
0.455102
-1.09459
1.04415
-0.439288
0.48973
-0.991988
0.938195
-0.467828
0.521622
-0.882875
0.826135
-0.493943
0.550683
-0.768081
0.708811
-0.51768
0.57695
-0.648409
0.586943
-0.538982
0.600448
-0.524462
0.461001
-0.557366
0.620827
-0.39659
0.331246
-0.571708
0.637052
-0.264999
0.197931
-0.580562
0.647631
-0.130089
0.0632537
-0.583828
0.650663
-0.0144964
0.0156245
1.60253
-1.59893
1.59321
-0.0665951
0.0723131
-1.58521
1.57494
-0.119522
0.129799
-1.56238
1.54756
-0.171919
0.18674
-1.53048
1.51115
-0.223526
0.24286
-1.48957
1.46576
-0.274097
0.297905
-1.43974
1.41151
-0.323375
0.3516
-1.38111
1.34854
-0.371076
0.403639
-1.31385
1.27705
-0.41691
0.453707
-1.23819
1.1973
-0.460566
0.501459
-1.15442
1.1096
-0.501736
0.546551
-1.06291
1.01439
-0.540126
0.588641
-0.964129
0.912194
-0.575464
0.627398
-0.858681
0.803689
-0.607579
0.66257
-0.74733
0.689717
-0.636458
0.694071
-0.630962
0.571167
-0.662166
0.721962
-0.510413
0.448764
-0.68446
0.74611
-0.386259
0.322923
-0.702292
0.765627
-0.258762
0.193765
-0.713719
0.778716
-0.12774
0.0630074
-0.717532
0.782265
-0.0166901
0.0177298
1.54494
-1.54191
1.5366
-0.0779342
0.0832426
-1.52917
1.51962
-0.139908
0.14946
-1.50794
1.49414
-0.20133
0.215132
-1.47821
1.46016
-0.261916
0.279968
-1.43998
1.41768
-0.321403
0.343701
-1.39327
1.36674
-0.379502
0.406031
-1.33811
1.30738
-0.435888
0.466613
-1.27458
1.23971
-0.490216
0.52508
-1.20281
1.1639
-0.542112
0.581024
-1.12301
1.08018
-0.591192
0.634021
-1.03546
0.988884
-0.637067
0.683639
-0.940523
0.890441
-0.679348
0.729431
-0.838713
0.785429
-0.717703
0.770987
-0.73069
0.674609
-0.751958
0.808039
-0.617305
0.5589
-0.782138
0.840543
-0.499503
0.439205
-0.808173
0.868471
-0.378071
0.316135
-0.829216
0.891152
-0.253386
0.189751
-0.843121
0.906756
-0.124758
0.0618532
-0.848215
0.911119
-0.0187038
0.0196446
1.48976
-1.487
1.48215
-0.0884218
0.0932724
-1.47536
1.46661
-0.158788
0.167532
-1.45591
1.44324
-0.228626
0.241294
-1.4286
1.41197
-0.297646
0.314275
-1.39335
1.37272
-0.365579
0.386209
-1.35007
1.32541
-0.43212
0.456787
-1.29871
1.26998
-0.496906
0.525632
-1.23923
1.20644
-0.559545
0.592331
-1.17163
1.13482
-0.619596
0.65641
-1.09602
1.05525
-0.676597
0.717366
-1.01254
0.96794
-0.730066
0.774668
-0.921484
0.87323
-0.779496
0.82775
-0.823242
0.771595
-0.824403
0.876049
-0.718382
0.663708
-0.864419
0.919093
-0.607695
0.550478
-0.899414
0.956631
-0.492193
0.432971
-0.929358
0.98858
-0.372928
0.312154
-0.953622
1.0144
-0.250694
0.1885
-0.970085
1.03228
-0.124701
0.0641471
-0.976828
1.03738
-0.0205154
0.0213452
1.43646
-1.43381
1.42947
-0.0979581
0.102295
-1.42339
1.41556
-0.175987
0.183824
-1.40595
1.39455
-0.253567
0.264966
-1.38134
1.3663
-0.330422
0.345459
-1.34941
1.33065
-0.406296
0.425064
-1.30997
1.28738
-0.480882
0.503479
-1.26283
1.23631
-0.553792
0.580309
-1.20781
1.17729
-0.62459
0.655101
-1.14477
1.11022
-0.692771
0.727317
-1.07366
1.03508
-0.75779
0.79637
-0.994495
0.951934
-0.819063
0.861625
-0.907422
0.861
-0.875961
0.922383
-0.812718
0.762639
-0.927839
0.977918
-0.710841
0.657421
-0.974122
1.02754
-0.602494
0.546197
-1.01445
1.07074
-0.488681
0.430102
-1.04868
1.10726
-0.370613
0.310355
-1.07634
1.13659
-0.249421
0.187827
-1.09543
1.15702
-0.124198
0.0653935
-1.104
1.1628
-0.0221009
0.0228073
1.3852
-1.38289
1.37913
-0.106428
0.110194
-1.37384
1.36701
-0.191305
0.198133
-1.35862
1.34864
-0.275874
0.285858
-1.33703
1.32377
-0.359895
0.373158
-1.30881
1.29212
-0.443151
0.459845
-1.27365
1.25335
-0.525353
0.545645
-1.2312
1.20713
-0.606101
0.630164
-1.18113
1.15313
-0.684928
0.712921
-1.12312
1.09106
-0.761267
0.793325
-1.05693
1.02072
-0.834486
0.870701
-0.982408
0.942
-0.903894
0.944302
-0.899506
0.854947
-0.968721
1.01328
-0.808354
0.759776
-1.02815
1.07673
-0.709277
0.656942
-1.08138
1.13372
-0.602879
0.547228
-1.12776
1.18341
-0.490151
0.431834
-1.16693
1.22524
-0.372477
0.312283
-1.19839
1.25858
-0.251428
0.190037
-1.22033
1.28172
-0.125859
0.0688068
-1.23087
1.28792
-0.0234356
0.0240062
1.33563
-1.33369
1.33056
-0.113714
0.116847
-1.32615
1.32044
-0.204531
0.210241
-1.3134
1.30499
-0.295247
0.30366
-1.29516
1.28387
-0.385686
0.396974
-1.27107
1.2567
-0.475698
0.490071
-1.24069
1.22298
-0.565033
0.582739
-1.20351
1.18221
-0.653307
0.674607
-1.15902
1.13386
-0.740033
0.765189
-1.10668
1.07742
-0.824596
0.853856
-1.04603
1.01246
-0.906282
0.939853
-0.97667
0.938634
-0.984283
1.02232
-0.898333
0.855759
-1.05768
1.10025
-0.810923
0.763847
-1.12545
1.17252
-0.714576
0.663178
-1.18654
1.23793
-0.609749
0.554421
-1.23995
1.29528
-0.497368
0.4388
-1.28497
1.34354
-0.378962
0.318132
-1.32098
1.38181
-0.256579
0.194593
-1.34627
1.40825
-0.128575
0.0731765
-1.35923
1.41463
-0.0244958
0.0249201
1.28792
-1.28621
1.28376
-0.119694
0.122139
-1.28031
1.27582
-0.215447
0.219937
-1.27025
1.26356
-0.311372
0.318064
-1.25569
1.24658
-0.407386
0.416494
-1.23617
1.22437
-0.503433
0.51523
-1.21111
1.1963
-0.59934
0.61415
-1.17985
1.16167
-0.694762
0.712943
-1.14166
1.11973
-0.789223
0.811152
-1.09579
1.06973
-0.882084
0.908137
-1.04148
1.01095
-0.972559
1.00309
-0.978056
0.942735
-1.05973
1.09505
-0.904929
0.864592
-1.14252
1.18285
-0.821697
0.776231
-1.21967
1.26514
-0.728209
0.677668
-1.28985
1.34039
-0.624684
0.569379
-1.35164
1.40695
-0.511926
0.452565
-1.40384
1.4632
-0.391596
0.329402
-1.4455
1.50769
-0.266401
0.203161
-1.47493
1.53817
-0.134247
0.0804999
-1.49094
1.54469
-0.0252618
0.0255321
1.24208
-1.2408
1.23909
-0.124261
0.125973
-1.23666
1.23347
-0.223855
0.22704
-1.22949
1.22465
-0.323952
0.328791
-1.21889
1.21215
-0.424589
0.431331
-1.20434
1.19537
-0.525838
0.534809
-1.18514
1.17355
-0.62764
0.639235
-1.16047
1.1458
-0.729727
0.744398
-1.12941
1.11116
-0.831675
0.849919
-1.09094
1.0686
-0.932857
0.955198
-1.04401
1.01704
-1.03246
1.05942
-0.987571
0.955475
-1.12947
1.16156
-0.920641
0.88297
-1.22265
1.26032
-0.842377
0.798796
-1.31054
1.35412
-0.752187
0.702541
-1.39144
1.44109
-0.649891
0.594327
-1.46345
1.51901
-0.536013
0.475207
-1.5247
1.58551
-0.41228
0.347757
-1.57371
1.63823
-0.282296
0.216959
-1.6087
1.67403
-0.144031
0.0918906
-1.62862
1.68076
-0.02572
0.0258323
1.19753
-1.1969
1.19595
-0.127331
0.12828
-1.19458
1.19276
-0.229594
0.231413
-1.19044
1.18756
-0.332734
0.335617
-1.18405
1.17983
-0.43693
0.441149
-1.17481
1.1689
-0.542417
0.548332
-1.16197
1.1539
-0.649286
0.657349
-1.14457
1.13383
-0.757396
0.76814
-1.12152
1.10749
-0.866429
0.880463
-1.09156
1.07356
-0.975831
0.993829
-1.05331
1.03063
-1.08481
1.1075
-1.00532
0.977202
-1.19235
1.22046
-0.946091
0.91181
-1.29709
1.33137
-0.874192
0.833088
-1.39736
1.43846
-0.788371
0.739947
-1.49111
1.53954
-0.687768
0.631855
-1.57586
1.63177
-0.572322
0.509414
-1.64886
1.71177
-0.443552
0.37542
-1.70773
1.77586
-0.305965
0.237
-1.75035
1.81931
-0.157658
0.106601
-1.77548
1.82653
-0.025865
0.0258204
1.15484
-1.15467
1.15449
-0.128853
0.12903
-1.15421
1.15378
-0.232559
0.23299
-1.15315
1.15227
-0.337535
0.338412
-1.15108
1.14948
-0.444119
0.445715
-1.14739
1.14471
-0.55273
0.555418
-1.1413
1.13704
-0.663655
0.667915
-1.13178
1.12536
-0.776929
0.783348
-1.11761
1.10833
-0.892403
0.901678
-1.09733
1.08439
-1.00968
1.02262
-1.06928
1.05176
-1.1281
1.14562
-1.03157
1.00846
-1.2467
1.26982
-0.982145
0.952351
-1.36417
1.39396
-0.9188
0.881218
-1.47871
1.51629
-0.839346
0.792948
-1.58798
1.63437
-0.741832
0.685876
-1.68887
1.74483
-0.625075
0.559598
-1.77757
1.84304
-0.489873
0.416761
-1.85025
1.92336
-0.341611
0.267451
-1.90404
1.9782
-0.178858
0.131075
-1.93778
1.98556
-0.0257016
0.0255067
1.11363
-1.11373
1.1143
-0.128823
0.128246
-1.11508
1.11601
-0.232727
0.23179
-1.11707
1.11819
-0.338282
0.337162
-1.11931
1.12036
-0.445991
0.44494
-1.12125
1.12188
-0.556472
0.555845
-1.12212
1.12186
-0.670239
0.670508
-1.12092
1.11916
-0.78755
0.789313
-1.11638
1.11239
-0.908498
0.912493
-1.10695
1.09982
-1.03294
1.04006
-1.09074
1.07941
-1.16045
1.17178
-1.06551
1.04871
-1.29033
1.30713
-1.02863
1.00489
-1.42146
1.4452
-0.977062
0.944715
-1.55217
1.58452
-0.907393
0.864641
-1.68006
1.72281
-0.816021
0.761142
-1.80154
1.85642
-0.699724
0.631686
-1.91154
1.97958
-0.557281
0.477395
-2.00415
2.08403
-0.393761
0.310596
-2.07457
2.15773
-0.207531
0.160451
-2.12208
2.16916
-0.0252454
0.0249117
1.07389
-1.0746
1.07589
-0.127288
0.125999
-1.07767
1.0799
-0.230163
0.227928
-1.08256
1.0856
-0.335031
0.331993
-1.08896
1.09259
-0.442543
0.438914
-1.09641
1.10033
-0.553521
0.549604
-1.10424
1.10802
-0.668717
0.664934
-1.11154
1.11463
-0.78865
0.785554
-1.11713
1.11882
-0.913709
0.912017
-1.11948
1.11886
-1.04409
1.04472
-1.11666
1.11257
-1.17977
1.18386
-1.10624
1.09725
-1.32047
1.32945
-1.08517
1.06949
-1.46557
1.48125
-1.04965
1.02504
-1.61391
1.63852
-0.994973
0.958692
-1.76353
1.79981
-0.915395
0.864252
-1.91093
1.96207
-0.804467
0.735405
-2.05014
2.1192
-0.656792
0.569211
-2.17263
2.26021
-0.474594
0.378358
-2.26976
2.366
-0.258318
0.209515
-2.33913
2.38794
-0.0245218
0.0240658
1.03544
-1.03654
1.03847
-0.124348
0.122414
-1.04116
1.04457
-0.225031
0.221612
-1.0487
1.05351
-0.327976
0.323172
-1.05895
1.06499
-0.433963
0.427923
-1.07157
1.07862
-0.543991
0.53694
-1.08606
1.09379
-0.659045
0.651312
-1.10171
1.10967
-0.77991
0.771948
-1.11753
1.12511
-0.907304
0.899725
-1.1322
1.13858
-1.04183
1.03546
-1.14396
1.14804
-1.18396
1.17988
-1.15047
1.15082
-1.33403
1.33368
-1.14862
1.14331
-1.49223
1.49754
-1.13425
1.12068
-1.65843
1.672
-1.1017
1.07627
-1.8319
1.85733
-1.04316
1.00097
-2.0105
2.05269
-0.948086
0.882844
-2.18885
2.25409
-0.803715
0.709974
-2.35668
2.45042
-0.602532
0.48725
-2.49946
2.61474
-0.343913
0.288011
-2.61228
2.66818
-0.0235648
0.0230059
0.998442
-1.00007
1.00256
-0.120149
0.117658
-1.00604
1.01049
-0.217583
0.213131
-1.0159
1.02226
-0.317457
0.311097
-1.02955
1.03774
-0.420639
0.412446
-1.04681
1.05671
-0.528266
0.518367
-1.06739
1.07879
-0.641522
0.63012
-1.09084
1.10345
-0.761432
0.748827
-1.1165
1.12987
-0.889023
0.87565
-1.14341
1.15693
-1.02532
1.0118
-1.17022
1.18303
-1.17131
1.15851
-1.19504
1.20592
-1.32808
1.31721
-1.21523
1.22245
-1.49681
1.48958
-1.22699
1.22806
-1.67882
1.67774
-1.22475
1.21586
-1.87558
1.88447
-1.19994
1.17509
-2.08811
2.11296
-1.13896
1.0886
-2.31503
2.36539
-1.02052
0.93105
-2.54904
2.63851
-0.817335
0.681502
-2.77253
2.90837
-0.508588
0.431507
-2.9768
3.05388
-0.0224142
0.0217736
0.962911
-0.964635
0.967584
-0.114874
0.111925
-0.971711
0.977014
-0.208141
0.202837
-0.983495
0.991152
-0.303925
0.296268
-0.999986
1.01
-0.403133
0.393123
-1.02118
1.03352
-0.506985
0.494641
-1.04701
1.06163
-0.616805
0.602189
-1.07734
1.09411
-0.733795
0.717025
-1.11189
1.13061
-0.85923
0.840507
-1.1502
1.17055
-0.994479
0.974132
-1.19153
1.213
-1.14101
1.11954
-1.23476
1.2566
-1.30055
1.2787
-1.27824
1.29934
-1.47524
1.45414
-1.31948
1.33812
-1.66798
1.64934
-1.35457
1.36793
-1.88282
1.86946
-1.37698
1.38003
-2.12541
2.12236
-1.37474
1.35781
-2.40246
2.41939
-1.32463
1.26883
-2.7196
2.7754
-1.18241
1.0535
-3.07776
3.20666
-0.87593
0.786492
-3.48968
3.57912
-0.0347954
-0.0216511
0.056433
-0.0377781
0.102563
-0.0647852
-0.158283
0.206978
-0.0486945
-0.252662
0.293372
-0.0407094
-0.326432
0.350068
-0.0236099
-0.369744
0.38922
-0.0194754
-0.409097
0.430493
-0.0213961
-0.457191
0.486727
-0.0295352
-0.514594
0.54213
-0.0275357
-0.569917
0.596906
-0.0269377
-0.623176
0.63738
-0.022521
-0.652031
0.650891
0.00143125
-0.629765
0.552662
0.077816
-0.408121
0.175941
0.232182
0.115755
-0.388855
0.272068
0.449131
-0.156528
0.200462
0.231305
-0.28839
0.0570842
0.481126
-0.954454
0.0100733
0.986852
-0.472399
0.0309281
0.426781
-0.177457
-0.409676
-0.212287
0.517087
-0.684572
-0.646551
0.733809
-0.185727
-0.874279
0.83432
-0.14081
-1.04131
0.991175
-0.113953
-1.19665
1.33439
-0.0656172
-1.80328
2.72703
0.0155999
-2.86823
2.71212
-0.0108185
-2.37291
2.39626
-0.0364267
-2.38768
4.20061
0.00532899
-5.63191
5.75853
-0.106489
-5.97298
3.7244
-0.23558
-0.184483
0.227061
-0.0153627
-0.256129
0.31967
-0.0363258
-1.45544
1.88973
0.0723003
-1.75664
1.75022
0.0276425
-0.888169
-3.96072e-13
-0.0012081
3.44121e-13
1.20371e-12
-8.66205e-15
-2.97394e-12
4.36054e-12
6.05527e-13
-1.70537
4.64234
-0.00384707
-4.9851
5.09724
-0.00143371
-5.40018
5.97805
-0.0421266
-6.3087
6.36212
-0.0534221
-6.39962
6.42434
-0.0247196
-6.44016
6.45129
-0.0111288
-6.46076
6.46952
-0.00876535
-5.89747
5.89572
0.0017547
-5.88811
5.87612
0.011989
-6.43809
6.4293
0.00879386
-6.42955
6.44376
-0.0142188
-6.26811
3.884
-0.0177957
-3.88809
3.88042
0.00767567
-3.86262
5.24151
0.0204489
-6.28393
6.31445
-0.0306124
-4.82314
3.86946
-0.012502
-3.68291
5.02476
0.0021376
-6.32841
6.40323
-0.0729435
-2.12582
0.192189
-0.0116079
-0.183659
0.18124
0.00241842
-0.190984
0.207647
-0.000634023
-0.218724
0.216101
0.000219006
0.0856864
-0.132143
0.062089
-0.0844298
0.11012
0.103185
-0.131193
-0.141687
0.177806
0.0848861
-0.110965
-0.2224
0.261046
0.0736205
-0.0988096
-0.287659
0.307201
0.0467616
-0.0638704
-0.322707
0.336222
0.0386681
-0.0515136
-0.350028
0.369481
0.0418951
-0.0554781
-0.398373
0.43627
0.0539314
-0.0769113
-0.460486
0.483325
0.0530598
-0.0776651
-0.505461
0.526467
0.0502668
-0.071566
-0.544215
0.554547
0.037996
-0.0472266
-0.550781
0.524946
-0.0170722
0.0384033
-0.479761
0.409546
-0.154481
0.222359
-0.317395
0.184237
-0.403682
0.536729
-0.00309995
-0.209351
-0.507412
0.719887
0.401926
-0.267066
-0.527433
0.746369
0.103044
-0.170731
-0.151237
0.218924
0.544738
-0.327541
-0.0386294
0.0298211
0.18524
-0.0154625
0.0652993
-0.136626
-0.078588
0.530042
1.48121
-1.44201
-1.02704
1.84523
1.36248
-1.50876
-2.38722
2.94699
0.923441
-1.90633
-3.38086
3.87647
0.571201
-1.24791
-4.47687
4.80224
0.450967
-0.872277
-5.06475
5.3254
0.282035
-0.52368
-5.51243
5.5069
0.0830109
-0.251743
-5.47461
5.44786
0.0791133
-0.192159
-5.29091
5.30083
0.0998188
-0.0870034
-5.17104
3.29169
0.0800003
-0.0815537
-2.8224
2.9093
0.121434
-0.27813
-3.23636
6.01296
0.169241
-0.660063
-6.61709
6.69264
0.485093
-0.783927
-6.6951
6.63452
0.37418
-0.742848
-6.49741
5.75298
0.19804
-0.659737
-3.07616
0.37253
0.00251978
-0.233437
-0.000916399
6.56289e-17
4.11662e-19
0.000916399
-6.89371e-17
6.82079e-17
1.85925e-18
5.14815e-18
-3.88883e-15
0.0856151
-0.0435606
0.0240525
-0.0587166
0
0.000996045
-4.30697e-05
-5.16859e-21
6.88863e-37
-6.75489e-24
5.17535e-21
9.77055e-22
4.96334
0.0386526
-0.00846659
-6.85505
6.84256
0.0711598
-0.0586686
-6.835
6.82929
0.0323572
-0.0266466
-6.82384
6.81761
0.0129218
-0.00669722
-6.81031
6.8019
0.00479815
0.00360639
-6.79299
6.78398
-0.00835404
0.0173568
-6.77575
6.76836
-0.0205421
0.0279301
-6.7615
6.75512
-0.0128873
0.019265
-6.74875
6.74111
0.0119546
-0.00431789
-6.73263
6.72521
0.0153472
-0.00792239
-6.72031
6.71954
-0.0185187
0.019286
-6.72305
6.72552
-0.0193375
0.0168622
-6.72407
6.71885
0.0281802
-0.022963
-6.71516
6.71883
0.0162909
-0.0199566
-6.72861
6.73817
0.0166404
-0.0261994
-6.73668
6.72539
0.0711859
-0.0598876
-6.39763
5.97615
0.00623424
-0.00244753
-5.9706
6.08807
-0.0295393
0.0606616
-6.42883
6.68961
-0.0184427
0.0282064
-6.69991
6.68542
-0.0180952
0.0325788
0.263617
-0.363427
0.0998104
-0.132205
0.156977
0.146964
-0.19291
-0.177348
0.198306
0.149755
-0.170709
-0.212577
0.206383
0.11067
-0.143798
-0.227302
0.254318
0.0730085
-0.110331
-0.277593
0.304981
0.0624939
-0.0917416
-0.329178
0.347817
0.078833
-0.101827
-0.351087
0.342522
0.0977543
-0.102473
-0.35052
0.349155
0.0856111
-0.102284
-0.379879
0.383822
0.0781254
-0.0981065
-0.405082
0.407514
0.0466041
-0.0542029
-0.412665
0.43218
-0.0552628
0.0800124
-0.4054
0.346567
-0.28646
0.345293
-0.28652
0.226906
-0.632734
0.692349
-0.108402
-0.0650153
-0.915455
0.589087
0.254718
-0.373775
-0.865335
0.984392
0.449171
-0.354446
-0.609741
0.655261
0.0788167
-0.0564305
-0.0054499
-0.00346745
0.0350916
0.0236173
0.342313
-0.179166
-0.175425
0.686234
0.760432
-1.3192
-2.14427
2.77886
3.14921
-3.78381
-3.14894
3.51546
2.58398
-2.95051
-3.87485
4.21878
1.82619
-2.17013
-4.53972
4.8348
1.18879
-1.48387
-5.04218
5.26537
0.753663
-0.953477
-5.40782
2.67996
0.390454
-0.591537
-1.85089
2.13203
0.12783
-0.448595
-2.36886
3.87996
0.0844203
-0.342495
-6.11674
6.34575
0.275857
-0.357334
-6.43345
6.49364
0.440955
-0.501151
-6.54127
6.57582
0.714538
-0.749081
-6.60839
6.6546
0.853185
-0.899402
-6.71491
6.77955
0.839513
-0.904155
-6.8419
6.89291
0.752467
-0.803478
-6.92393
6.80531
0.541388
-0.585158
-4.4032
0.732205
-0.00268315
-0.130668
-0.00833724
0.00153325
-4.31448e-18
0.0167294
-0.0162904
0.016904
-0.017669
0.00149837
-0.000597498
0
1.56971e-05
2.11758e-22
4.69615e-23
0
2.04163e-20
0
-2.59509
7.1768
-0.0559701
0.175998
-7.10705
7.05843
0.0233051
0.0253066
-7.02502
7.00123
0.0102058
0.013581
-6.98288
6.96704
-0.0050226
0.020862
-6.95217
6.9379
-0.0153782
0.0296456
-6.92459
6.91253
-0.0279508
0.0400098
-6.90198
6.89276
-0.0361489
0.0453712
-6.88432
6.87602
-0.0265981
0.0348991
-6.86719
6.85742
-0.00480259
0.014572
-6.84742
6.83897
-0.000749331
0.00920162
-6.83389
6.83255
-0.0201977
0.0215426
-6.83366
6.83461
-0.014654
0.0137108
-6.83248
6.82869
0.0185834
-0.014799
-6.82585
6.82635
0.0215109
-0.0220125
-6.83021
6.83062
0.0294693
-0.029879
-6.8261
6.81688
0.0488861
-0.0396695
-6.80862
6.80953
0.000897607
-0.00180805
-6.82059
6.8321
-0.0473256
0.0358217
-6.83208
6.82813
-0.0347298
0.038675
-6.81728
6.80448
-0.0466453
0.0594418
0.451487
-0.529277
0.0777898
-0.131578
0.151886
0.211984
-0.232293
-0.163989
0.176305
0.186153
-0.198463
-0.190851
0.207111
0.161946
-0.178206
-0.223301
0.240075
0.128512
-0.145285
-0.256208
0.270071
0.107004
-0.120867
-0.266875
0.270478
0.108426
-0.121783
-0.30662
0.322083
0.127601
-0.146446
-0.339436
0.35555
0.136177
-0.152291
-0.370367
0.382109
0.120404
-0.132146
-0.38777
0.385906
0.0579567
-0.0560929
-0.377356
0.357608
-0.102219
0.113215
-0.327426
0.272839
-0.401086
0.455539
-0.214258
0.196855
-0.718122
0.735526
-0.115262
-0.00384569
-0.00779621
0.168114
0.000559669
-0.0129298
-0.202083
0.0183289
0.0349547
-0.00433766
-0.251235
0
0.00423048
0.00600653
0.0120866
-0.0259658
-0.00258038
0.00717655
0.0134751
-0.0205969
-0.550791
2.83902
2.70004
-4.21814
-3.06895
3.32271
4.08208
-4.33584
-3.59792
3.88123
3.26709
-3.5504
-4.16487
4.44723
2.47752
-2.75989
-4.72157
4.98229
1.75991
-2.02064
-5.22251
5.43967
1.2156
-1.43276
-5.63203
5.80053
0.835717
-1.00422
-5.94622
6.06951
0.57674
-0.700032
-6.17377
6.26089
0.428617
-0.515738
-6.33107
6.39226
0.420927
-0.48211
-6.44531
6.48547
0.549291
-0.589452
-6.51202
6.52655
0.772425
-0.786953
-6.53478
6.54546
0.925246
-0.935923
-6.56204
6.58384
0.943789
-0.965594
-6.60887
6.63415
0.837544
-0.862829
-6.65641
6.67671
0.596209
-0.616506
-6.69762
6.69205
0.177501
-0.206309
-6.10975
3.4302
-0.147845
0.322117
-0.531004
0.0388039
-0.00149837
0.194499
1.42137e-19
0
2.0874e-25
0
-4.36495
7.37341
-0.252389
0.68926
-7.3445
7.29005
-0.247714
0.302165
-7.23266
7.1856
-0.0763248
0.123381
-7.15003
7.12309
-0.040385
0.067321
-7.10149
7.08244
-0.0388551
0.0579037
-7.06448
7.0474
-0.0454189
0.0624973
-7.03164
7.0175
-0.0530806
0.0672198
-7.0051
6.99417
-0.0554005
0.0663315
-6.98429
6.97492
-0.0437541
0.0531264
-6.96563
6.95627
-0.0241919
0.0335516
-6.94742
6.9401
-0.0170662
0.0243841
-6.93523
6.93287
-0.0233949
0.0257589
-6.93193
6.93104
-0.0138043
0.014699
-6.9289
6.92623
0.0116713
-0.00899799
-6.92421
6.92356
0.0218172
-0.021164
-6.924
6.92247
0.028915
-0.0273856
-6.91896
6.91423
0.0329225
-0.0281906
-6.9114
6.91411
0.00392503
-0.00662838
-6.92229
6.9314
-0.025839
0.0167315
-6.93529
6.93559
-0.0403685
0.0400613
-6.92956
6.91994
-0.0705506
0.0801675
0.596183
-0.649163
0.0529803
-0.10431
0.123937
0.25249
-0.272119
-0.134408
0.143211
0.208357
-0.21716
-0.148566
0.134166
0.192578
-0.17148
-0.140606
0.15142
0.15518
-0.154643
-0.166185
0.173858
0.108454
-0.114643
-0.187022
0.240844
0.119926
-0.148093
-0.251947
0.261719
0.158808
-0.168581
-0.271541
0.282426
0.16573
-0.176615
-0.293603
0.301499
0.141558
-0.149453
-0.301406
0.278603
0.0500407
-0.0381912
-0.252812
0.23493
-0.125755
0.142785
-0.227751
0.19465
-0.502532
0.535634
-0.0291472
0.00109923
-0.318593
-0.0336026
-0.00735934
0.0389493
-0.827606
0.903832
-0.0138142
0.0114258
-0.0183289
0.45736
-0.000532689
0.000532689
-1.90196e-20
3.82525e-22
-0.0573687
0.0510989
0.0610038
-0.046344
-0.0278748
0.26242
0.026941
-0.267376
-3.16179
3.42603
5.1594
-5.42364
-3.61599
3.82165
4.55722
-4.76287
-4.04511
4.27903
3.80271
-4.03663
-4.51877
4.75822
3.01615
-3.2556
-4.99364
5.21797
2.25988
-2.4842
-5.42524
5.61209
1.63304
-1.8199
-5.77664
5.91937
1.1582
-1.30092
-6.04211
6.14767
0.813847
-0.919401
-6.23838
6.31575
0.598507
-0.675877
-6.37946
6.43158
0.538737
-0.590863
-6.47195
6.49826
0.621762
-0.648069
-6.5109
6.51264
0.793959
-0.795697
-6.50668
6.49823
0.935155
-0.9267
-6.49181
6.49116
0.974014
-0.973366
-6.49796
6.51302
0.881937
-0.896997
-6.53601
6.56788
0.643546
-0.675413
-6.61047
6.66441
0.24852
-0.302462
-6.73077
6.81212
-0.249388
0.16803
-6.91099
7.02416
-0.694205
0.581027
-7.13833
7.24046
-0.834934
0.732804
-7.31272
7.35006
-0.638324
0.600984
-7.35215
7.33119
-0.339639
0.360593
-7.30209
7.27391
-0.16163
0.189809
-7.24969
7.22947
-0.0914217
0.111636
-7.21161
7.19398
-0.0765035
0.0941428
-7.17553
7.15698
-0.0802325
0.0987852
-7.13961
7.12397
-0.0820159
0.0976583
-7.11015
7.09793
-0.0778402
0.0900595
-7.08703
7.07712
-0.0627033
0.0726149
-7.06796
7.05945
-0.0423833
0.0508942
-7.05188
7.04571
-0.0310255
0.037199
-7.04123
7.03825
-0.0284653
0.0314463
-7.03608
7.03401
-0.0162204
0.0182862
-7.03161
7.02928
0.00661697
-0.00428924
-7.0275
7.02635
0.0202289
-0.0190791
-7.02555
7.02389
0.025732
-0.0240702
-7.02166
7.01952
0.025021
-0.0228758
-7.01892
7.02151
0.00942632
-0.0120126
-7.02752
7.03516
-0.00842325
0.000783642
-7.04124
7.04497
-0.0379497
0.0342207
-7.04317
7.03689
-0.0881115
0.0943942
0.687449
-0.696327
0.0168133
-0.0629683
0.0632451
0.290936
-0.211017
-0.0685187
0.0675725
0.149686
-0.156988
-0.0940131
0.125835
0.183875
-0.226609
-0.134529
0.142951
0.165211
-0.192847
-0.151541
0.162266
0.143056
-0.166801
-0.171801
0.178098
0.163364
-0.171608
-0.182122
0.187877
0.176097
-0.176951
-0.195593
0.202347
0.184661
-0.191273
-0.210515
0.218088
0.156596
-0.163925
-0.217233
0.201271
0.0228523
-0.00661778
-0.165373
0.117991
-0.181983
0.229364
-0.0809887
0.0567185
-0.557882
0.582152
-0.00415734
-0.00404423
-0.000250893
0.00530434
0.131146
-0.124726
-0.872613
0.363221
0.0387338
3.94211e-05
-0.433524
0.0483159
-0.000525583
0.0653751
-1.82286e-05
-0.0115674
-0.0782027
0.0627175
0.0477744
-0.0139019
-0.175167
3.28165
0.930172
-3.40329
-3.71356
3.86809
5.59074
-5.74527
-4.04694
4.23803
4.95932
-5.1504
-4.44159
4.6535
4.25552
-4.46743
-4.86849
5.08114
3.4785
-3.69115
-5.28613
5.47824
2.69012
-2.88223
-5.65248
5.80778
1.98924
-2.14455
-5.94296
6.05881
1.42908
-1.54494
-6.15803
6.24309
1.01383
-1.09889
-6.31644
6.37859
0.745101
-0.807258
-6.43017
6.47243
0.637084
-0.679335
-6.50456
6.52322
0.669153
-0.687814
-6.52934
6.52677
0.793888
-0.791321
-6.5166
6.50078
0.913197
-0.897375
-6.48362
6.47048
0.965733
-0.952589
-6.46557
6.47179
0.907738
-0.913954
-6.49097
6.52472
0.709459
-0.743205
-6.57429
6.63902
0.362883
-0.427609
-6.7172
6.8071
-0.0817203
-0.00818607
-6.90592
7.01008
-0.474042
0.369883
-7.113
7.20605
-0.637669
0.54461
-7.28048
7.33165
-0.557546
0.506377
-7.35941
7.36917
-0.365366
0.355612
-7.36839
7.3617
-0.206949
0.213639
-7.35172
7.34077
-0.126965
0.137914
-7.3293
7.31562
-0.109857
0.123531
-7.29806
7.2783
-0.117754
0.137518
-7.25952
7.24276
-0.113751
0.130512
-7.22801
7.21493
-0.102649
0.115733
-7.20323
7.19282
-0.0826594
0.0930708
-7.18361
7.17546
-0.0590431
0.0671915
-7.1685
7.16294
-0.0429142
0.0484722
-7.15879
7.15568
-0.0345232
0.0376322
-7.15299
7.15021
-0.0207549
0.0235306
-7.14723
7.14448
0.00186133
0.000895954
-7.1422
7.14047
0.0177173
-0.0159883
-7.139
7.1372
0.0224138
-0.020619
-7.13542
7.13427
0.0214032
-0.0202562
-7.13422
7.1357
0.014083
-0.0155673
-7.13909
7.14412
0.00576822
-0.0108012
-7.14951
7.15496
-0.0293268
0.023879
-7.15772
7.15637
-0.0986017
0.0999482
0.58732
-0.702547
9.95146e-05
-0.0135938
0.0342435
0.219788
-0.240406
-0.060317
0.0928355
0.201821
-0.26848
-0.0985768
0.0998926
0.233356
-0.234672
-0.0999445
0.100002
0.197364
-0.197421
-0.100719
0.102014
0.172259
-0.173554
-0.103207
0.103685
0.176249
-0.176764
-0.105443
0.109342
0.188046
-0.191946
-0.0991562
0.0965596
0.169531
-0.165751
-0.116356
0.126718
0.172999
-0.183361
-0.137878
0.139552
-0.00409948
0.00241604
-0.115893
0.0378014
-0.294307
0.308029
0.0891484
-0.20749
-0.533347
0.210396
0
-8.72855e-22
-7.66163e-21
0
-8.08138e-20
-0.00719724
-0.00172686
0.0089241
-0.000213692
7.6631e-05
-0.00214857
1.35943e-05
-0.167775
0.257947
0.0467617
-0.0613568
-0.0971584
0.210717
0.00313983
-0.0978112
-3.36229
3.95027
5.86756
-6.39587
-4.0668
4.2143
5.8933
-6.0408
-4.38754
4.57375
5.33788
-5.52408
-4.77084
4.97266
4.67178
-4.8736
-5.17321
5.36688
3.89109
-4.08476
-5.5456
5.70746
3.05781
-3.21968
-5.84887
5.97093
2.28227
-2.40434
-6.07515
6.16311
1.64594
-1.7339
-6.23907
6.30611
1.17353
-1.24057
-6.36621
6.41888
0.862725
-0.915395
-6.46385
6.50428
0.718825
-0.759256
-6.53949
6.56301
0.706669
-0.730189
-6.57393
6.57571
0.790939
-0.792724
-6.4707
5.88338
0.882505
-0.537945
-4.77953
3.82135
0.934262
-0.071269
-3.72895
3.84195
0.9138
-0.211223
-4.2908
5.13082
0.77356
-0.293803
-6.06187
6.57492
0.492899
-0.459307
-6.7141
6.80845
0.099315
-0.193658
-6.9084
7.01111
-0.268528
0.165825
-7.11222
7.20639
-0.452997
0.358827
-7.28819
7.35415
-0.448117
0.38216
-7.4028
7.4358
-0.333484
0.300476
-7.45791
7.47088
-0.210323
0.197353
-7.47314
7.4676
-0.145246
0.150794
-7.45897
6.87924
-0.134604
0.103106
-3.93927
2.56518
-0.158152
0.003493
-2.71697
2.81096
-0.147427
0.000787412
-2.76904
2.52446
-0.128801
-4.89276e-05
-2.26081
2.10071
-0.103676
0
-1.99338
1.88319
-0.0560055
0
-1.72899
1.51432
-0.036014
0
-1.22624
0.873191
-0.0261702
8.67362e-19
-0.507283
0.202782
-0.0166476
-2.1684e-19
-0.0333941
0.00136691
-0.00253671
-7.36749e-18
3.13133e-20
-4.35107e-37
3.36414e-19
-3.67727e-19
-2.77502e-35
1.18909e-34
1.13145e-17
-1.13145e-17
-1.72109e-34
2.14983e-33
2.26208e-16
-2.26208e-16
-8.52585e-33
4.23056e-33
4.64717e-16
-4.64717e-16
0.000125923
0.0203373
0.00338039