/*--------------------------------*- C++ -*----------------------------------*\
| =========                 |                                                 |
| \\      /  F ield         | OpenFOAM: The Open Source CFD Toolbox           |
|  \\    /   O peration     | Version:  v1912                                 |
|   \\  /    A nd           | Website:  www.openfoam.com                      |
|    \\/     M anipulation  |                                                 |
\*---------------------------------------------------------------------------*/
FoamFile
{
    version     2.0;
    format      ascii;
    class       volScalarField;
    location    "36";
    object      alpha.water;
}
// * * * * * * * * * * * * * * * * * * * * * * * * * * * * * * * * * * * * * //

dimensions      [0 0 0 0 0 0 0];


internalField   nonuniform List<scalar> 
20320
(
1
1
1
1
1
1
1
1
1
1
1
1
1
1
1
1
1
1
1
1
1
1
1
1
1
1
1
1
1
1
1
1
1
1
1
1
1
1
1
1
1
1
1
1
1
1
1
1
1
1
1
1
1
1
1
1
1
1
1
1
1
1
1
1
1
1
1
1
1
1
1
1
1
1
1
1
1
1
1
1
1
1
1
1
1
1
1
1
1
1
1
1
1
1
1
1
1
1
1
1
1
1
1
1
1
1
1
1
1
1
1
1
1
1
1
1
1
1
1
1
1
1
1
1
1
1
1
1
1
1
1
1
1
1
1
1
1
1
1
1
1
1
1
1
1
1
1
1
1
1
1
1
1
1
1
1
1
1
1
1
1
1
1
1
1
1
1
1
1
1
1
1
1
1
1
1
1
1
1
1
1
1
1
1
1
1
1
1
1
1
1
1
1
1
1
1
1
1
1
1
1
1
1
1
1
1
1
1
1
1
1
1
1
1
1
1
1
1
1
1
1
1
1
1
1
1
1
1
1
1
1
1
1
1
1
1
1
1
1
1
1
1
1
1
1
1
1
1
1
1
1
1
1
1
1
1
1
1
1
1
1
1
1
1
1
1
1
1
1
1
1
1
1
1
1
1
1
1
1
1
1
1
1
1
1
1
1
1
1
1
1
1
1
1
1
1
1
1
1
1
1
1
1
1
1
1
1
1
1
1
1
1
1
1
1
1
1
1
1
1
1
1
1
1
1
1
1
1
1
1
1
1
1
1
1
1
1
1
1
1
1
1
1
1
1
1
1
1
1
1
1
1
1
1
1
1
1
1
1
1
1
1
1
1
1
1
1
1
1
1
1
1
1
1
1
1
1
1
1
1
1
1
1
1
1
1
1
1
1
1
1
1
1
1
1
1
1
1
1
1
0.999778
0.999878
0.999878
0.999665
0.999685
1
1
1
1
0.999925
0.987836
0.984323
0.999915
0.999986
0.999807
0.317372
0.136677
0.442366
0.311012
0.193503
0.253876
0.157058
0.15315
0.15315
0.16166
0.294751
0.397288
0.323824
0.398244
0.918977
0.848291
0.0264082
0.0264082
0.194402
0.200753
0.036082
6.56293e-14
1.23433e-13
0.539673
0.831127
0.918075
1
1
1
1
0.910678
0.910678
1
1
0.745215
0.598801
0.64186
0.992484
0.602666
0.600632
0.999983
0.110312
0.0276692
0.0300109
0.0330379
0.809719
0.859795
0.870258
0.96599
0.985487
0.972348
0.955485
0.982448
0.998745
0.996035
0.997776
0.993347
0.987141
0.999971
0.999967
0.904736
0.136677
0.456053
0.149689
0.805072
0.800594
0.861581
0.877045
0.973969
0.985983
0.984647
0.94869
0.896138
0.769621
0.437463
0.682989
0.974146
0.938921
0.845402
0.220475
8.31471e-18
8.28722e-18
0.0109047
0.0032411
-2.14221e-38
0.242222
1
1
1
1
1
1
1
1
1
1
1
1
1
1
1
0.918739
0.891803
0.978674
1
1
0.973817
1
0.894148
0.857228
0.915321
0.995698
0.960257
0.862136
0.862126
0.862079
0.905258
1
1
0.882003
1
0.714905
0.0574002
0.198419
0.123879
1
1
1
1
0.991171
0.848969
0.329125
0.402147
0.996221
1
1
1
1
1
1
0.354973
8.43289e-18
0.00264757
7.7715e-06
-1.0443e-18
0.737454
1
1
1
1
1
1
1
1
1
1
1
1
1
1
1
1
1
1
0.999999
1
0.99997
0.999966
1
1
1
0.89318
0.9927
1
1
1
0.993449
0.999617
1
0.0704599
0.0214178
0.0710691
0.0871755
0.00575934
0.804492
1
1
1
1
1
1
1
1
1
1
1
1
1
1
1
0.99982
0.748543
0.00922673
-1.03671e-18
0.848929
1
1
1
1
1
1
1
1
1
1
1
1
1
1
1
1
1
1
1
1
1
0.999996
1
0.911747
0.857442
0.798194
0.946763
1
1
0.999999
0.994518
0.932566
1
0.147055
0.768329
0.107264
1.66985e-21
0.101594
0.00578649
1
1
1
1
1
1
1
1
1
1
1
1
1
1
1
1
1
1
1
1
1
1
1
1
1
1
1
1
1
1
1
1
1
1
1
1
1
1
1
1
1
0.999424
0.934254
0.665952
0.897469
0.976988
0.99871
0.998484
0.979783
0.998025
0.999727
0.999885
1
1
0.0054931
0.663112
0.249312
0.0133682
0.028452
0.509719
1
1
1
1
1
1
1
1
1
1
1
1
1
1
1
1
1
1
1
1
1
1
1
1
1
1
1
1
1
1
1
1
1
1
1
1
1
1
1
1
1
0.664258
0.655349
0.962939
1
1
1
0.999718
1
0.847361
0.999999
0.999943
0.990736
0.68486
6.70087e-23
-8.70187e-20
0.000162578
0.295044
0.00102746
0.994346
1
1
1
1
1
1
1
1
1
1
1
1
0.957038
0.704468
0.623164
0.735713
0.966186
1
1
1
1
1
1
1
0.985968
0.446316
0.411296
0.393038
0.328202
0.291691
0.247404
0.164817
0.0561948
0.00154486
3.1815e-37
4.28034e-36
2.96238e-34
1.89911e-33
0.00140686
0.0150093
0.00688601
1
0.993648
1
1
0.999128
0.998646
1
0.994223
0.890157
0.844234
0.999943
0.0656661
0.121186
0.617588
0.388859
0.663694
5.30753e-20
0.508558
1
1
1
1
1
1
1
1
0.993323
0.922674
0.727117
0.304745
-5.54505e-20
-3.01262e-20
-2.05054e-20
-1.46515e-20
-4.85872e-21
0.00139559
0.0945902
0.272426
0.617756
0.660761
0.264603
0.014043
-2.02573e-21
-1.00679e-21
5.06745e-23
3.45839e-24
-1.23539e-20
-1.82644e-20
-1.78363e-20
-1.06605e-20
4.56704e-20
2.83237e-18
1.19965e-16
3.89742e-15
8.54052e-14
1.1182e-12
7.91097e-12
5.92168e-11
1.75924e-10
-3.36739e-28
1
0.999901
0.999861
1
0.998934
1
0.999996
0.994729
0.937611
0.902878
0.864287
-3.01869e-22
0.000272927
0.456255
0.0912047
0.23911
9.75708e-19
1
1
1
1
1
1
0.982374
0.491786
0.00370091
-2.57565e-21
-4.17217e-20
-4.50118e-20
-3.73922e-20
-2.68501e-20
-1.88012e-20
-1.50633e-20
-1.47069e-20
-1.58158e-20
-1.71982e-20
-1.75791e-20
-1.03348e-20
-3.06122e-23
-1.03621e-21
-3.90463e-21
-1.06127e-20
-1.30676e-20
-1.38771e-20
-1.41768e-20
-1.39151e-20
-1.28525e-20
-1.0237e-20
-3.91087e-21
5.15754e-20
1.54302e-18
3.60045e-17
5.63218e-16
3.37372e-15
5.49477e-15
4.65394e-14
2.35173e-13
5.87744e-10
1.16168e-09
7.27989e-09
1
0.99993
1
0.989291
0.932383
0.984881
0.996544
0.999428
0.899624
1
0.705602
-1.09694e-28
1.15629e-20
-5.16907e-20
0.846226
-3.75897e-36
0.748775
1
1
1
1
1
0.683616
2.81667e-20
-4.98398e-20
-1.70147e-20
-9.43049e-21
-8.86059e-21
-8.27066e-21
-7.99432e-21
-8.12583e-21
-8.51484e-21
-9.10466e-21
-9.81326e-21
-1.05585e-20
-1.13366e-20
-1.21009e-20
-1.2689e-20
-1.31155e-20
-1.31554e-20
-1.26486e-20
-1.18967e-20
-1.10271e-20
-1.01967e-20
-9.38108e-21
-8.65937e-21
-7.99275e-21
-6.93978e-21
-4.64006e-21
-2.39673e-22
4.0097e-20
2.26027e-19
1.95667e-19
1.85265e-20
1.34279e-19
8.71725e-17
1.22814e-14
9.69538e-14
3.32309e-12
1.34223e-11
0.999991
0.998539
0.765668
0.658653
0.65865
0.658649
0.88639
0.877778
1
1
0.869237
1.15022e-27
3.58505e-07
0.032677
0.485972
1.09131e-18
1
1
1
1
1
0.577607
-6.19972e-21
-5.91397e-21
-8.46297e-21
-8.97156e-21
-8.06077e-21
-7.25088e-21
-6.78552e-21
-6.41131e-21
-6.0171e-21
-5.64295e-21
-5.38019e-21
-5.2686e-21
-5.30195e-21
-5.46459e-21
-5.73567e-21
-6.08147e-21
-6.48272e-21
-6.85059e-21
-6.9544e-21
-6.80312e-21
-6.53405e-21
-6.26273e-21
-6.00992e-21
-5.80184e-21
-5.62972e-21
-5.45433e-21
-5.24312e-21
-4.94724e-21
-4.52986e-21
-4.19667e-21
-4.05647e-21
-4.004e-21
-3.90807e-21
-3.89173e-21
-4.00562e-21
-4.24124e-21
-1.95874e-21
1.17299e-21
0.999963
0.986564
0.959954
1
1
1
0.997085
0.961605
1
0.99999
0.999762
0.0935742
7.20602e-08
0.246051
2.65222e-37
0.836608
1
1
1
1
0.817771
-2.95581e-19
-1.03315e-20
-7.99499e-21
-6.87497e-21
-6.01261e-21
-5.42438e-21
-5.04079e-21
-4.65906e-21
-4.20772e-21
-3.74776e-21
-3.36039e-21
-3.08393e-21
-2.91813e-21
-2.85575e-21
-2.89626e-21
-3.03855e-21
-3.26573e-21
-3.54447e-21
-3.81967e-21
-4.00672e-21
-4.07507e-21
-4.04784e-21
-3.94554e-21
-3.77438e-21
-3.55163e-21
-3.30052e-21
-3.04311e-21
-2.80112e-21
-2.5918e-21
-2.42061e-21
-2.28007e-21
-2.16638e-21
-2.09847e-21
-2.10064e-21
-2.17047e-21
-2.29968e-21
-2.47278e-21
-2.66196e-21
-2.83499e-21
0.824609
0.656863
0.900144
0.772209
1
1
1
0.948881
0.86705
0.980907
0.994046
0.985806
0.388272
0.761505
-2.25505e-18
1
1
1
1
1
-1.96503e-19
-1.31117e-20
-7.07948e-21
-5.51319e-21
-4.73631e-21
-4.17214e-21
-3.77318e-21
-3.40165e-21
-2.99467e-21
-2.58342e-21
-2.21387e-21
-1.91064e-21
-1.68409e-21
-1.53995e-21
-1.48097e-21
-1.50608e-21
-1.60847e-21
-1.76936e-21
-1.95726e-21
-2.1319e-21
-2.24611e-21
-2.26804e-21
-2.19989e-21
-2.05694e-21
-1.86405e-21
-1.65435e-21
-1.45748e-21
-1.29121e-21
-1.16221e-21
-1.06954e-21
-1.0075e-21
-9.68294e-22
-9.47565e-22
-9.4838e-22
-9.71068e-22
-1.01522e-21
-1.07736e-21
-1.1499e-21
-1.22105e-21
-1.27957e-21
0.353316
0.353312
0.353316
0.877332
1
0.999717
1
0.90291
0.836865
0.836892
1
1
1
8.86962e-20
0.727974
1
1
1
1
0.226539
-8.55952e-20
-7.29073e-21
-5.17898e-21
-4.18602e-21
-3.46026e-21
-2.91308e-21
-2.47969e-21
-2.10335e-21
-1.75757e-21
-1.4468e-21
-1.18258e-21
-9.73397e-22
-8.24294e-22
-7.35447e-22
-7.01477e-22
-7.13199e-22
-7.6063e-22
-8.30406e-22
-9.03485e-22
-9.59012e-22
-9.78565e-22
-9.45274e-22
-8.67545e-22
-7.63384e-22
-6.53159e-22
-5.53527e-22
-4.73204e-22
-4.13423e-22
-3.71559e-22
-3.4372e-22
-3.26403e-22
-3.15861e-22
-3.10683e-22
-3.10927e-22
-3.16859e-22
-3.28053e-22
-3.43019e-22
-3.59158e-22
-3.73143e-22
-3.82368e-22
0.353495
0.961734
1
1
0.996354
1
0.9084
0.999554
0.98247
0.973154
1
0.924299
0.259719
-4.82938e-20
1
1
1
1
0.979692
-1.44392e-19
-5.98179e-21
-5.17903e-21
-3.97099e-21
-3.03674e-21
-2.34508e-21
-1.82836e-21
-1.44547e-21
-1.14604e-21
-8.97171e-22
-6.90289e-22
-5.26433e-22
-4.06261e-22
-3.2682e-22
-2.81402e-22
-2.61296e-22
-2.57759e-22
-2.6394e-22
-2.74717e-22
-2.83912e-22
-2.85338e-22
-2.75657e-22
-2.52998e-22
-2.19232e-22
-1.8251e-22
-1.48844e-22
-1.21379e-22
-1.00779e-22
-8.6228e-23
-7.65486e-23
-6.97958e-23
-6.49365e-23
-6.15266e-23
-5.93017e-23
-5.81146e-23
-5.78269e-23
-5.82089e-23
-5.89088e-23
-5.94785e-23
-5.94783e-23
-5.86742e-23
0.814994
0.95046
0.387238
0.337211
0.589619
1
0.921435
0.884072
1
1
0.933993
0.854429
-1.83526e-20
0.212077
1
1
1
1
0.131507
2.57036e-37
-4.83051e-21
-3.82997e-21
-2.80439e-21
-2.00613e-21
-1.41762e-21
-1.00813e-21
-7.30468e-22
-5.29589e-22
-3.75907e-22
-2.6017e-22
-1.78375e-22
-1.25187e-22
-9.34374e-23
-7.58298e-23
-6.64882e-23
-6.13415e-23
-5.77925e-23
-5.45216e-23
-5.10745e-23
-4.68888e-23
-4.1608e-23
-3.55239e-23
-2.90714e-23
-2.26429e-23
-1.7263e-23
-1.33097e-23
-1.06715e-23
-8.8461e-24
-7.50916e-24
-6.52395e-24
-5.79225e-24
-5.24279e-24
-4.82541e-24
-4.50446e-24
-4.25169e-24
-4.0407e-24
-3.84663e-24
-3.64883e-24
-3.43672e-24
-3.2151e-24
0.93911
0.41935
0.722884
0.424296
0.999998
1
0.952932
0.977891
1
0.991046
0.95578
0.675938
-7.48918e-22
0.840903
1
1
1
1
-6.89161e-19
-7.03888e-21
-3.90092e-21
-2.74145e-21
-1.84759e-21
-1.19052e-21
-7.47235e-22
-4.73964e-22
-3.04875e-22
-1.93098e-22
-1.17824e-22
-6.95617e-23
-4.10219e-23
-2.5351e-23
-1.70479e-23
-1.25451e-23
-9.88052e-24
-8.08281e-24
-6.69416e-24
-5.50896e-24
-4.44962e-24
-3.50128e-24
-2.67605e-24
-1.98962e-24
-1.44767e-24
-1.04096e-24
-7.48432e-25
-5.44262e-25
-4.0381e-25
-3.07159e-25
-2.39799e-25
-1.91838e-25
-1.56793e-25
-1.30458e-25
-1.10133e-25
-9.40748e-26
-8.11425e-26
-7.06155e-26
-6.20994e-26
-5.54998e-26
-5.10007e-26
-4.90276e-26
0.939306
0.411061
0.985434
0.999998
0.999998
0.999655
1
1
1
0.989165
1
0.311114
-2.02957e-20
1
1
1
1
0.240026
-1.59395e-20
-5.28338e-21
-2.93957e-21
-1.89286e-21
-1.1301e-21
-6.22645e-22
-3.33813e-22
-1.80568e-22
-9.70798e-23
-5.00119e-23
-2.43651e-23
-1.15052e-23
-5.55814e-24
-2.89663e-24
-1.66003e-24
-1.0303e-24
-6.73692e-25
-4.52784e-25
-3.07158e-25
-2.07555e-25
-1.38428e-25
-9.06074e-26
-5.80582e-26
-3.64613e-26
-2.25574e-26
-1.38712e-26
-8.58021e-27
-5.40387e-27
-3.49799e-27
-2.33823e-27
-1.61497e-27
-1.15212e-27
-8.50982e-28
-6.56833e-28
-5.39287e-28
-4.81393e-28
-4.74115e-28
-5.14182e-28
-6.0418e-28
-7.53804e-28
-9.81971e-28
-1.31972e-27
0.939492
0.508196
0.638485
0.275232
0.330822
1
0.999999
1
0.982932
0.984401
1
1.54884e-20
0.169009
1
1
1
1
-1.24648e-18
-1.1503e-20
-4.23634e-21
-2.1864e-21
-1.24457e-21
-6.16717e-22
-2.76918e-22
-1.19989e-22
-5.13198e-23
-2.09791e-23
-7.91925e-24
-2.78924e-24
-9.69813e-25
-3.56492e-25
-1.43514e-25
-6.28576e-26
-2.9266e-26
-1.41916e-26
-7.06592e-27
-3.57445e-27
-1.82197e-27
-9.29959e-28
-4.734e-28
-2.39981e-28
-1.21377e-28
-6.16087e-29
-3.17264e-29
-1.68827e-29
-9.55394e-30
-5.98504e-30
-4.32653e-30
-3.68067e-30
-3.62065e-30
-3.95551e-30
-4.61903e-30
-5.6211e-30
-7.03225e-30
-8.98805e-30
-1.17088e-29
-1.55402e-29
-2.10182e-29
-2.89718e-29
-4.06039e-29
0.939941
0.939938
0.177128
0.836456
0.84473
0.998078
0.99862
0.997821
0.996253
1
0.853179
-9.57921e-23
0.775063
1
1
1
0.629752
-5.03456e-21
-4.64947e-21
-2.94005e-21
-1.56753e-21
-7.39702e-22
-2.89053e-22
-9.92246e-23
-3.17461e-23
-9.50362e-24
-2.54281e-24
-5.9873e-25
-1.30875e-25
-2.90634e-26
-6.95663e-27
-1.80422e-27
-4.99838e-28
-1.46442e-28
-4.51772e-29
-1.46293e-29
-4.95212e-30
-1.74455e-30
-6.38278e-31
-2.4362e-31
-9.89781e-32
-4.50183e-32
-2.49384e-32
-1.7957e-32
-1.63158e-32
-1.70868e-32
-1.91782e-32
-2.2214e-32
-2.61177e-32
-3.09558e-32
-3.69022e-32
-4.42472e-32
-5.34586e-32
-6.52587e-32
-8.07767e-32
-1.01758e-31
-1.30954e-31
-1.72719e-31
-2.33903e-31
-3.24126e-31
0.189453
0.752566
0.237672
0.485513
0.519708
0.0914567
0.98762
1
1
1
0.105352
-1.56029e-22
0.991079
1
1
1
0.111443
-1.4747e-20
-4.01619e-21
-2.17158e-21
-1.03264e-21
-3.84548e-22
-1.10781e-22
-2.61259e-23
-5.28641e-24
-8.91838e-25
-1.18066e-25
-1.25922e-26
-1.2239e-27
-1.21333e-28
-1.27089e-29
-1.4407e-30
-1.82482e-31
-2.64044e-32
-4.4007e-33
-8.52797e-34
-2.01217e-34
-6.67658e-35
-3.68271e-35
-3.07853e-35
-3.1079e-35
-3.34624e-35
-3.67951e-35
-4.07356e-35
-4.51645e-35
-5.00419e-35
-5.5362e-35
-6.11471e-35
-6.74583e-35
-7.44223e-35
-8.22764e-35
-9.14133e-35
-1.0248e-34
-1.16483e-34
-1.34981e-34
-1.60406e-34
-1.96652e-34
-2.50077e-34
-3.30841e-34
-4.52986e-34
0.00904321
0.119431
0.137944
1.61816e-19
0.0659907
0.000615114
0.102283
0.875814
0.974978
0.256965
1.37117e-14
2.41352e-18
1
1
1
1
1.68308e-19
-3.7212e-21
-2.80675e-21
-1.50525e-21
-6.07233e-22
-1.67966e-22
-3.18552e-23
-4.26691e-24
-3.99024e-25
-2.24391e-26
-6.2116e-28
-1.52941e-29
-2.23768e-31
-2.66346e-33
-4.49592e-35
-1.21797e-36
-1.06146e-37
-4.43552e-38
-3.20962e-38
-2.6659e-38
-2.37029e-38
-2.21188e-38
-2.13792e-38
-2.11746e-38
-2.13155e-38
-2.16592e-38
-2.20996e-38
-2.25613e-38
-2.29862e-38
-2.33403e-38
-2.36237e-38
-2.3854e-38
-2.40758e-38
-2.4364e-38
-2.48213e-38
-2.55915e-38
-2.68807e-38
-2.8989e-38
-3.2391e-38
-3.78935e-38
-4.69661e-38
-6.24501e-38
-9.00643e-38
-1.40934e-37
0.00702449
-9.97961e-24
-5.37411e-21
0.117327
0.218271
0.0160198
-6.66339e-22
9.16141e-21
-1.4697e-20
1.41824e-27
3.40949e-10
0.583792
1
1
1
0.606437
-8.72884e-22
-3.26686e-21
-2.06739e-21
-9.92374e-22
-3.12156e-22
-5.77458e-23
-5.85721e-24
-2.89926e-25
-4.49042e-27
-4.78083e-29
-7.3427e-32
-3.82461e-34
-8.25459e-38
-2.10494e-40
-7.18108e-41
-2.85742e-41
-1.33317e-41
-7.32195e-42
-4.66117e-42
-3.29568e-42
-2.56044e-42
-2.1335e-42
-1.87149e-42
-1.70949e-42
-1.61099e-42
-1.55339e-42
-1.52523e-42
-1.52142e-42
-1.54132e-42
-1.5887e-42
-1.67167e-42
-1.80368e-42
-2.00547e-42
-2.31011e-42
-2.77213e-42
-3.48699e-42
-4.63076e-42
-6.55051e-42
-9.97825e-42
-1.65897e-41
-3.05782e-41
-6.35191e-41
-1.50238e-40
-3.98921e-40
0.000122558
-1.50075e-22
0.023926
0.0673677
2.12328e-20
0.0029509
4.51919e-05
9.4884e-08
3.73178e-10
3.03589e-08
4.11388e-26
0.935805
1
1
1
0.133828
-2.83269e-21
-2.92685e-21
-1.56123e-21
-6.0463e-22
-1.34677e-22
-1.38721e-23
-4.64714e-25
-2.64105e-27
-7.79282e-30
-5.93214e-33
-5.44113e-37
-2.33317e-42
-3.21096e-43
-4.39002e-44
-7.23561e-45
-1.59265e-45
-4.83276e-46
-2.01187e-46
-1.12385e-46
-8.27804e-47
-7.64474e-47
-8.23771e-47
-9.88905e-47
-1.27789e-46
-1.71577e-46
-2.36131e-46
-3.2641e-46
-4.49081e-46
-6.12194e-46
-8.259e-46
-1.10446e-45
-1.4697e-45
-1.95911e-45
-2.63867e-45
-3.62757e-45
-5.15353e-45
-7.67315e-45
-1.21781e-44
-2.10144e-44
-4.0353e-44
-8.85408e-44
-2.28065e-43
-7.00392e-43
-2.49451e-42
9.85654e-21
-4.82734e-35
0.0142064
0.00172665
1.6125e-05
6.94669e-05
1.20627e-06
3.79664e-07
1.08093e-05
1.74753e-06
1.59945e-19
1
1
1
1
7.28055e-19
-4.55599e-21
-2.46027e-21
-1.11787e-21
-3.26472e-22
-4.54118e-23
-1.7719e-24
-4.20281e-27
-5.91128e-30
-1.92793e-33
-7.91794e-38
-2.91962e-44
-1.71885e-45
-8.35846e-47
-4.13706e-48
-2.94609e-49
-6.38655e-50
-4.10152e-50
-3.77356e-50
-3.90454e-50
-4.33314e-50
-5.08436e-50
-6.2483e-50
-7.96556e-50
-1.04603e-49
-1.40699e-49
-1.90711e-49
-2.57781e-49
-3.44485e-49
-4.54453e-49
-5.89202e-49
-7.56243e-49
-9.69168e-49
-1.25258e-48
-1.65313e-48
-2.25873e-48
-3.24639e-48
-4.99988e-48
-8.43479e-48
-1.60037e-47
-3.52546e-47
-9.3544e-47
-3.10178e-46
-1.30619e-45
-6.58928e-45
0.0160373
0.0379563
0.0379563
6.99407e-23
8.14691e-09
3.36028e-07
3.60923e-06
7.70112e-05
2.07254e-05
2.38415e-07
0.494362
1
1
1
0.813464
9.06667e-21
-2.67596e-21
-1.91635e-21
-7.3407e-22
-1.5107e-22
-1.04339e-23
-3.84546e-26
-2.07942e-29
-2.71693e-33
-1.25175e-37
-1.41988e-45
-3.41531e-47
-5.17287e-49
-5.6191e-51
-1.02551e-52
-3.51397e-53
-2.53992e-53
-2.03965e-53
-1.77006e-53
-1.64323e-53
-1.62178e-53
-1.68936e-53
-1.84414e-53
-2.09725e-53
-2.46777e-53
-2.97797e-53
-3.65376e-53
-4.51505e-53
-5.59112e-53
-6.8789e-53
-8.375e-53
-1.01651e-52
-1.2481e-52
-1.56412e-52
-2.03768e-52
-2.80889e-52
-4.17994e-52
-6.86872e-52
-1.28171e-51
-2.81039e-51
-7.54734e-51
-2.60398e-50
-1.20718e-49
-7.56974e-49
-5.71755e-48
0.0055067
0.00953587
-4.72051e-22
-2.26218e-26
3.86382e-06
5.43371e-05
0.000194557
1.38622e-05
3.3066e-05
-1.10754e-25
0.924931
1
1
1
0.226452
-9.48528e-21
-2.81493e-21
-1.47098e-21
-4.35537e-22
-5.63774e-23
-1.11429e-24
-2.32658e-28
-1.31873e-32
-8.16746e-37
-4.21133e-46
-4.11606e-48
-2.20012e-50
-5.05597e-53
-6.07911e-56
-1.51125e-56
-6.82053e-57
-3.57076e-57
-2.13466e-57
-1.43924e-57
-1.08138e-57
-8.93364e-58
-7.96646e-58
-7.54935e-58
-7.51453e-58
-7.77446e-58
-8.30437e-58
-9.10025e-58
-1.01368e-57
-1.13867e-57
-1.28493e-57
-1.45689e-57
-1.67941e-57
-1.99434e-57
-2.46791e-57
-3.25945e-57
-4.68714e-57
-7.48547e-57
-1.36762e-56
-2.95345e-56
-7.85785e-56
-2.70274e-55
-1.26663e-54
-8.44027e-54
-7.84946e-53
-8.42236e-52
9.87464e-10
2.57177e-11
1.91867e-27
1.23328e-07
3.49484e-07
0.000242491
9.27019e-23
5.17126e-05
3.53459e-24
1.06935e-18
1
1
1
1
0.00389901
-2.73241e-21
-2.33558e-21
-1.02354e-21
-2.26323e-22
-1.49645e-23
-9.28549e-27
-4.77973e-31
-1.83397e-35
-9.78879e-46
-3.89195e-48
-7.92449e-51
-4.38141e-54
-4.92556e-58
-1.28573e-59
-1.657e-60
-2.97068e-61
-6.85314e-62
-2.10569e-62
-8.66005e-63
-4.52173e-63
-2.8055e-63
-1.96818e-63
-1.51403e-63
-1.25417e-63
-1.10049e-63
-1.00466e-63
-9.41698e-64
-9.01044e-64
-8.78806e-64
-8.73013e-64
-8.86642e-64
-9.34008e-64
-1.04058e-63
-1.25642e-63
-1.72753e-63
-2.88804e-63
-6.16188e-63
-1.66443e-62
-5.23259e-62
-1.76227e-61
-6.33685e-61
-2.74516e-60
-1.81524e-59
-1.99167e-58
-2.67265e-57
5.39354e-05
4.56509e-10
7.26756e-10
7.6574e-10
0.00164673
2.67407e-23
-6.16485e-23
9.83392e-06
8.41993e-16
0.676563
1
1
1
0.948672
-1.03979e-19
-4.42656e-21
-1.85445e-21
-6.46714e-22
-9.79828e-23
-1.99794e-24
-9.48753e-29
-1.37124e-33
-1.19967e-42
-2.48735e-47
-2.40619e-50
-5.96685e-54
-2.03264e-57
-7.48363e-59
-2.51549e-60
-7.59642e-62
-2.05293e-63
-4.96386e-65
-1.0769e-66
-2.12695e-68
-4.33669e-70
-2.31138e-71
-6.42402e-72
-3.65603e-72
-4.3144e-72
-9.86853e-72
-3.16493e-71
-1.24857e-70
-5.90824e-70
-3.22755e-69
-1.90548e-68
-1.14188e-67
-6.68695e-67
-3.76311e-66
-2.02257e-65
-1.03497e-64
-5.02497e-64
-2.30227e-63
-9.87558e-63
-3.93349e-62
-1.44133e-61
-4.8388e-61
-1.47399e-60
-4.01139e-60
-1.00161e-59
-2.46905e-59
0.0113481
7.20276e-12
7.20276e-12
0.0022187
0.000340254
-4.05432e-25
0.000593469
3.79762e-09
3.09569e-20
1
1
1
1
0.283238
-8.98502e-37
-2.94404e-21
-1.36296e-21
-3.66554e-22
-3.20188e-23
-2.38481e-26
-1.43097e-31
-3.46251e-36
-6.06365e-45
-4.66453e-49
-7.03667e-53
-3.71506e-56
-1.4686e-57
-5.35144e-59
-1.78053e-60
-5.36631e-62
-1.45536e-63
-3.53902e-65
-7.70997e-67
-1.50606e-68
-2.64188e-70
-4.17506e-72
-9.12462e-74
-1.03692e-73
-3.3749e-73
-1.18111e-72
-4.67889e-72
-2.20867e-71
-1.24502e-70
-8.0172e-70
-5.58622e-69
-3.99421e-68
-2.78527e-67
-1.83721e-66
-1.13459e-65
-6.54799e-65
-3.52827e-64
-1.77028e-63
-8.23649e-63
-3.53201e-62
-1.38825e-61
-4.96809e-61
-1.60947e-60
-4.70417e-60
-1.24851e-59
-3.09485e-59
0.0114715
0.00763523
0.00105206
0.00198861
1.16404e-05
0.00253998
1.08043e-22
9.8864e-09
0.471773
1
1
1
1
0.00615038
-8.84872e-22
-2.22868e-21
-9.43754e-22
-1.78754e-22
-6.26224e-24
-2.70318e-28
-9.64966e-34
-9.64883e-41
-3.28253e-45
-3.42546e-50
-7.06426e-55
-2.7273e-56
-1.04574e-57
-3.70569e-59
-1.2074e-60
-3.59389e-62
-9.71131e-64
-2.37016e-65
-5.20438e-67
-1.02669e-68
-1.81877e-70
-2.89317e-72
-4.39448e-74
-9.54712e-75
-3.20454e-74
-1.24041e-73
-5.58333e-73
-3.04012e-72
-1.9697e-71
-1.44264e-70
-1.13375e-69
-9.19112e-69
-7.41923e-68
-5.70087e-67
-4.0489e-66
-2.63689e-65
-1.57482e-64
-8.62622e-64
-4.32532e-63
-1.98012e-62
-8.23749e-62
-3.09662e-61
-1.04431e-60
-3.13144e-60
-8.18223e-60
-1.7195e-59
0.00535349
0
-1.71376e-22
-6.51519e-23
0.000898136
0.00176257
1.77732e-24
-1.11655e-20
0.992836
1
1
1
0.913876
-5.7235e-20
-2.82319e-21
-1.86608e-21
-5.94712e-22
-6.91154e-23
-3.09835e-25
-1.11724e-30
-3.97667e-36
-8.08933e-41
-1.91412e-45
-1.29329e-50
-4.83921e-55
-1.94501e-56
-7.27309e-58
-2.50855e-59
-7.96191e-61
-2.31902e-62
-6.17505e-64
-1.49736e-65
-3.29241e-67
-6.54344e-69
-1.17243e-70
-1.8891e-72
-2.74859e-74
-9.78899e-76
-2.3905e-75
-1.00889e-74
-5.04195e-74
-3.06862e-73
-2.21166e-72
-1.78236e-71
-1.52969e-70
-1.35152e-69
-1.19857e-68
-1.03588e-67
-8.35722e-67
-6.11095e-66
-4.02175e-65
-2.38303e-64
-1.27147e-63
-6.09592e-63
-2.61038e-62
-9.88424e-62
-3.26027e-61
-9.14899e-61
-2.09851e-60
-3.6423e-60
0.00827251
-1.28329e-23
-6.28229e-25
-7.5156e-23
0.00253982
4.4985e-08
5.70563e-09
0.508356
1
1
1
1
0.20011
-2.02281e-20
-2.84224e-21
-1.4077e-21
-3.23914e-22
-1.80392e-23
-1.64594e-27
-2.85928e-33
-3.12381e-37
-6.26953e-41
-1.13165e-45
-4.72827e-51
-3.3711e-55
-1.33267e-56
-4.89038e-58
-1.65209e-59
-5.12631e-61
-1.45892e-62
-3.80593e-64
-9.08617e-66
-1.97972e-67
-3.92795e-69
-7.07025e-71
-1.15022e-72
-1.68644e-74
-2.55724e-76
-1.39756e-76
-6.15337e-76
-3.28315e-75
-2.14153e-74
-1.64954e-73
-1.41342e-72
-1.28298e-71
-1.19416e-70
-1.114e-69
-1.01968e-68
-8.92305e-68
-7.16331e-67
-5.1155e-66
-3.22469e-65
-1.79314e-64
-8.76729e-64
-3.74025e-63
-1.37308e-62
-4.25078e-62
-1.07937e-61
-2.16652e-61
-3.2606e-61
0.00772834
-2.81041e-24
1.75117e-05
0.000670469
3.91182e-08
2.51923e-07
1.04431e-17
1
1
1
1
1
4.19656e-19
-7.07536e-21
-2.61301e-21
-9.72905e-22
-1.44376e-22
-1.96903e-24
-1.45012e-29
-2.87896e-34
-2.13588e-37
-4.26536e-41
-6.78847e-46
-1.65869e-51
-2.25016e-55
-8.73157e-57
-3.14793e-58
-1.04576e-59
-3.19068e-61
-8.92185e-63
-2.28548e-64
-5.35946e-66
-1.14989e-67
-2.25608e-69
-4.03974e-71
-6.57963e-73
-9.70836e-75
-1.30655e-76
-7.57092e-78
-2.75533e-77
-1.48435e-76
-9.7857e-76
-7.66442e-75
-6.70442e-74
-6.20108e-73
-5.85682e-72
-5.51416e-71
-5.08066e-70
-4.48881e-69
-3.71628e-68
-2.77774e-67
-1.8154e-66
-1.02633e-65
-4.99425e-65
-2.07608e-64
-7.27187e-64
-2.10304e-63
-4.88435e-63
-8.8051e-63
-1.1885e-62
1.47623e-21
1.72087e-06
9.41619e-05
4.37654e-09
2.59746e-06
1.40232e-06
0.809265
1
1
1
1
0.508625
1.3573e-21
-3.19358e-21
-2.07271e-21
-5.92139e-22
-4.62805e-23
-1.06095e-26
-1.55752e-31
-1.70314e-34
-1.253e-37
-2.49276e-41
-4.13302e-46
-7.52007e-52
-1.44235e-55
-5.48676e-57
-1.93957e-58
-6.3285e-60
-1.90025e-61
-5.23831e-63
-1.32356e-64
-3.06103e-66
-6.4747e-68
-1.2534e-69
-2.21957e-71
-3.5885e-73
-5.2831e-75
-7.05996e-77
-1.05456e-78
-9.19101e-79
-4.64335e-78
-2.86289e-77
-2.12671e-76
-1.7966e-75
-1.6206e-74
-1.49348e-73
-1.36393e-72
-1.20965e-71
-1.02305e-70
-8.09253e-70
-5.87198e-69
-3.79127e-68
-2.109e-67
-9.94052e-67
-3.92965e-66
-1.28766e-65
-3.43604e-65
-7.29856e-65
-1.20508e-64
-1.53805e-64
1.4813e-07
2.2502e-05
1.45808e-10
1.45808e-10
9.19522e-06
0.232683
1
1
1
1
1
0.0286543
-4.40481e-21
-3.55336e-21
-1.54592e-21
-2.97645e-22
-7.61499e-24
-2.03861e-28
-9.19166e-32
-9.78938e-35
-6.35879e-38
-1.26057e-41
-2.53459e-46
-5.15812e-52
-8.84203e-56
-3.30637e-57
-1.14736e-58
-3.67214e-60
-1.08223e-61
-2.93484e-63
-7.3142e-65
-1.67205e-66
-3.5004e-68
-6.70703e-70
-1.17584e-71
-1.88369e-73
-2.75279e-75
-3.66106e-77
-4.46776e-79
-2.80009e-80
-1.07098e-79
-5.68928e-79
-3.63057e-78
-2.72262e-77
-2.25551e-76
-1.94096e-75
-1.66451e-74
-1.38024e-73
-1.08372e-72
-7.90054e-72
-5.25574e-71
-3.12547e-70
-1.62792e-69
-7.20088e-69
-2.64292e-68
-7.90861e-68
-1.90125e-67
-3.62512e-67
-5.51595e-67
-7.11864e-67
3.01949e-06
1.79846e-06
0.000434933
0.000346582
1.36662e-18
1
1
1
1
1
0.776119
6.24277e-20
-5.52784e-21
-2.93567e-21
-9.84535e-22
-1.114e-22
-1.2162e-25
-5.12094e-29
-5.43182e-32
-4.98867e-35
-2.80823e-38
-5.5761e-42
-1.45644e-46
-3.67184e-52
-5.1563e-56
-1.89921e-57
-6.49129e-59
-2.04309e-60
-5.91298e-62
-1.57443e-63
-3.85825e-65
-8.69597e-67
-1.80033e-68
-3.41977e-70
-5.95244e-72
-9.4736e-74
-1.37566e-75
-1.81872e-77
-2.18472e-79
-2.84667e-81
-2.03706e-81
-9.0882e-81
-4.58225e-80
-2.68929e-79
-1.82191e-78
-1.35232e-77
-1.03431e-76
-7.77868e-76
-5.5594e-75
-3.68222e-74
-2.2123e-73
-1.1834e-72
-5.52043e-72
-2.2057e-71
-7.39836e-71
-2.04293e-70
-4.59886e-70
-8.52907e-70
-1.35474e-69
-1.8546e-69
1.42314e-05
0.000696815
9.36921e-05
7.96338e-19
0.986423
1
1
1
1
1
0.0678723
-4.21609e-21
-4.09799e-21
-2.07615e-21
-5.31618e-22
-2.49343e-23
-2.3523e-26
-2.91393e-29
-2.58183e-32
-2.07539e-35
-1.04301e-38
-2.0808e-42
-6.79334e-47
-1.98376e-52
-2.8577e-56
-1.03602e-57
-3.49184e-59
-1.08294e-60
-3.08579e-62
-8.08174e-64
-1.94708e-65
-4.31709e-67
-8.80656e-69
-1.65302e-70
-2.85155e-72
-4.51036e-74
-6.52073e-76
-8.59025e-78
-1.028e-79
-1.12162e-81
-4.1268e-83
-1.27521e-82
-5.46507e-82
-2.47312e-81
-1.22179e-80
-6.69003e-80
-3.98541e-79
-2.46759e-78
-1.51171e-77
-8.79614e-77
-4.71056e-76
-2.26424e-75
-9.59411e-75
-3.52562e-74
-1.10857e-73
-2.9623e-73
-6.73482e-73
-1.30963e-72
-2.16283e-72
-2.93043e-72
0.00052207
0.000505033
-4.05941e-19
0.97005
1
1
1
1
1
0.753154
-3.24418e-20
-3.47252e-21
-3.23145e-21
-1.3727e-21
-2.33219e-22
-3.07186e-24
-1.39439e-26
-1.47441e-29
-8.91817e-33
-6.24668e-36
-2.94818e-39
-5.87135e-43
-2.20149e-47
-7.07838e-53
-1.50254e-56
-5.36256e-58
-1.78238e-59
-5.44619e-61
-1.52892e-62
-3.94598e-64
-9.36577e-66
-2.0457e-67
-4.11092e-69
-7.60697e-71
-1.29569e-72
-2.02817e-74
-2.91115e-76
-3.81721e-78
-4.55654e-80
-4.93279e-82
-5.12838e-84
-1.32356e-84
-5.37939e-84
-2.24579e-83
-9.44595e-83
-4.06071e-82
-1.80804e-81
-8.34593e-81
-3.94051e-80
-1.85271e-79
-8.39366e-79
-3.56031e-78
-1.37954e-77
-4.78998e-77
-1.47274e-76
-3.96852e-76
-9.27287e-76
-1.84938e-75
-3.06451e-75
-4.06529e-75
0.208247
0.133963
1
1
1
1
1
1
1
0.021098
-3.31495e-21
-3.77257e-21
-2.50023e-21
-7.96494e-22
-8.78963e-23
-2.07914e-24
-1.03552e-26
-8.71473e-30
-2.47637e-33
-1.234e-36
-5.70329e-40
-1.10893e-43
-4.42684e-48
-1.56232e-53
-7.43748e-57
-2.61636e-58
-8.59175e-60
-2.59018e-61
-7.1653e-63
-1.82125e-64
-4.26005e-66
-9.17214e-68
-1.81878e-69
-3.32149e-71
-5.58573e-73
-8.63733e-75
-1.22635e-76
-1.59431e-78
-1.89128e-80
-2.03997e-82
-1.99475e-84
-2.35449e-86
-2.65403e-86
-1.14493e-85
-4.84943e-85
-2.01495e-84
-8.25085e-84
-3.34714e-83
-1.3473e-82
-5.37332e-82
-2.09886e-81
-7.90269e-81
-2.8102e-80
-9.2478e-80
-2.75997e-79
-7.32712e-79
-1.69904e-78
-3.35851e-78
-5.49684e-78
-7.21476e-78
1
1
1
1
1
1
1
1
1
1
1
1
1
1
1
1
1
1
1
1
1
1
1
1
1
1
1
1
1
1
1
1
1
1
1
1
1
1
1
1
1
1
1
1
1
1
1
1
1
1
1
1
1
1
1
1
1
1
1
1
1
1
1
1
1
1
1
1
1
1
1
1
1
1
1
1
1
1
1
1
1
1
1
1
1
1
1
1
1
1
1
1
1
1
1
1
1
1
1
1
1
1
1
1
1
1
1
1
1
1
1
1
1
1
1
1
1
1
1
1
1
1
1
1
1
1
1
1
1
1
1
1
1
1
1
1
1
1
1
1
1
1
1
1
1
1
1
1
1
1
1
1
1
1
1
1
1
1
1
1
1
1
1
1
1
1
1
1
1
1
1
1
1
1
1
1
1
1
1
1
1
1
1
1
1
1
1
1
1
1
1
1
1
1
1
1
1
1
1
1
1
1
1
1
1
1
1
1
1
1
1
1
1
1
1
1
1
1
1
1
1
1
1
1
1
1
1
1
1
1
1
1
1
1
1
1
1
1
1
1
1
1
1
1
1
1
1
1
1
1
1
1
1
1
0.999827
0.990526
0.95604
0.888134
0.783341
0.606154
-9.97966e-33
0.280086
0.279988
0.269479
0.252144
0.229501
0.2032
0.173818
0.142535
0.110042
0.0768528
0.0438056
0.0103165
-2.31231e-21
-8.95165e-22
-3.26579e-22
-3.24456e-22
-5.5346e-22
-1.02049e-21
-1.08077e-21
-3.53369e-33
-3.15777e-33
-6.35392e-33
-1.4489e-32
-2.7942e-32
-4.88419e-32
-7.92934e-32
-1.20843e-31
-1.73555e-31
-2.34999e-31
-3.00216e-31
-3.68926e-31
-4.70343e-31
-6.27774e-31
-7.6417e-31
-8.1125e-31
-7.45038e-31
-6.03268e-31
-4.84899e-31
-4.28309e-31
-2.16913e-33
-7.82884e-35
-1.68494e-34
-5.52377e-34
-1.65789e-33
-3.52529e-33
-6.2626e-33
-9.76409e-33
-1.36565e-32
-1.73789e-32
-2.0496e-32
-2.3362e-32
-2.81139e-32
-3.74325e-32
-4.379e-32
-4.2576e-32
-3.42094e-32
-2.31008e-32
-1.39003e-32
-8.18944e-33
-9.65646e-34
-1.68499e-36
-3.35412e-36
-1.00442e-35
-3.16073e-35
-7.98176e-35
-1.55914e-34
-2.55581e-34
-3.65745e-34
-4.69041e-34
-5.53611e-34
-6.24408e-34
-7.08252e-34
-8.09429e-34
-8.2362e-34
-6.98739e-34
-4.86304e-34
-2.78654e-34
-1.34125e-34
-5.63306e-35
-3.18846e-34
-4.305e-38
-7.66877e-38
-2.68587e-37
-8.13255e-37
-2.1472e-36
-4.46917e-36
-7.47678e-36
-1.06229e-35
-1.32702e-35
-1.49638e-35
-1.5599e-35
-1.52945e-35
-1.39516e-35
-1.1292e-35
-7.81747e-36
-4.5681e-36
-2.25802e-36
-9.58402e-37
-3.58045e-37
-9.26414e-35
-7.13282e-39
-1.67768e-39
-6.97189e-39
-2.36107e-38
-6.16111e-38
-1.28771e-37
-2.12117e-37
-2.88675e-37
-3.39474e-37
-3.54016e-37
-3.32596e-37
-2.83221e-37
-2.17186e-37
-1.47582e-37
-8.76094e-38
-4.51704e-38
-2.02782e-38
-7.99933e-39
-2.80856e-39
-2.2229e-35
-1.08713e-38
-9.95904e-41
-1.57474e-40
-5.91624e-40
-1.58607e-39
-3.2035e-39
-5.04863e-39
-6.47043e-39
-7.10852e-39
-6.86771e-39
-5.89466e-39
-4.50277e-39
-3.05095e-39
-1.82359e-39
-9.57142e-40
-4.40517e-40
-1.78228e-40
-6.37802e-41
-2.03573e-41
-2.05818e-36
-1.21395e-38
-6.12793e-41
-3.08023e-42
-1.15571e-41
-3.10238e-41
-6.04043e-41
-8.93436e-41
-1.07454e-40
-1.11167e-40
-1.00945e-40
-8.04817e-41
-5.6084e-41
-3.40569e-41
-1.80161e-41
-8.31863e-42
-3.36542e-42
-1.19967e-42
-3.79612e-43
-1.07562e-43
-7.34897e-39
-1.16582e-39
-7.59087e-42
-6.46163e-44
-1.55309e-43
-3.99317e-43
-7.35656e-43
-1.01617e-42
-1.1522e-42
-1.13736e-42
-9.82396e-43
-7.30863e-43
-4.63033e-43
-2.49629e-43
-1.15327e-43
-4.61486e-44
-1.61818e-44
-5.02855e-45
-1.39939e-45
-3.52037e-46
-3.53594e-43
-1.51203e-42
-1.67178e-44
-4.062e-46
-1.13482e-45
-2.67561e-45
-4.59174e-45
-5.93089e-45
-6.4141e-45
-6.1223e-45
-5.04975e-45
-3.47642e-45
-1.9694e-45
-9.24941e-46
-3.67449e-46
-1.26409e-46
-3.84158e-47
-1.04519e-47
-2.56623e-48
-5.72107e-49
-3.06313e-48
-3.11125e-47
-5.83129e-49
-9.74524e-49
-2.65016e-48
-5.64353e-48
-9.04122e-48
-1.10444e-47
-1.15915e-47
-1.08229e-47
-8.49131e-48
-5.31711e-48
-2.63065e-48
-1.05449e-48
-3.57209e-49
-1.06106e-49
-2.81178e-50
-6.66455e-51
-1.41644e-51
-2.72677e-52
1
1
1
1
1
1
1
1
1
1
1
1
1
1
1
1
1
1
1
1
1
1
1
1
1
1
1
1
1
1
1
1
1
1
1
1
1
1
1
1
1
1
1
1
1
1
1
1
1
1
1
1
1
1
1
1
1
1
1
1
1