/*--------------------------------*- C++ -*----------------------------------*\
| =========                 |                                                 |
| \\      /  F ield         | OpenFOAM: The Open Source CFD Toolbox           |
|  \\    /   O peration     | Version:  v1912                                 |
|   \\  /    A nd           | Website:  www.openfoam.com                      |
|    \\/     M anipulation  |                                                 |
\*---------------------------------------------------------------------------*/
FoamFile
{
    version     2.0;
    format      ascii;
    class       volScalarField;
    location    "36";
    object      epsilon;
}
// * * * * * * * * * * * * * * * * * * * * * * * * * * * * * * * * * * * * * //

dimensions      [0 2 -3 0 0 0 0];


internalField   nonuniform List<scalar> 
20320
(
4.44137e-05
0.000214352
0.000220193
0.00022597
0.000231637
0.000237148
0.000242445
0.000247457
0.0002521
0.000256282
0.000259893
0.000262803
0.00026488
0.000265982
0.000265928
0.000264473
0.000261197
0.000255136
0.000243749
0.000224519
4.40147e-05
4.39265e-05
4.46725e-05
4.64537e-05
4.97854e-05
5.53296e-05
6.39191e-05
7.66167e-05
9.47796e-05
0.00012012
0.000154806
0.000201462
0.00026326
0.00034392
0.000447543
0.000578058
0.000737116
0.000916113
0.00107295
0.0011155
4.44242e-05
4.49224e-05
4.61323e-05
4.81755e-05
5.14962e-05
5.67053e-05
6.46986e-05
7.68128e-05
9.50479e-05
0.000122326
0.000162733
0.000221783
0.000306589
0.000425783
0.000588941
0.000804493
0.00107382
0.00137571
0.0016284
0.00182717
4.50105e-05
4.65101e-05
4.8801e-05
5.1939e-05
5.63912e-05
6.28018e-05
7.21079e-05
8.57296e-05
0.000105863
0.000135922
0.00018112
0.000249015
0.00034988
0.00049666
0.00070417
0.000986392
0.00134826
0.00176338
0.00212415
0.00254852
4.57371e-05
4.85729e-05
5.23163e-05
5.69508e-05
6.29647e-05
7.1042e-05
8.21728e-05
9.78539e-05
0.000120407
0.000153507
0.000202994
0.0002779
0.000391363
0.00056075
0.000806084
0.00114591
0.00158758
0.00210099
0.00256404
0.00325736
4.65815e-05
5.10952e-05
5.66993e-05
6.33073e-05
7.14171e-05
8.17451e-05
9.53272e-05
0.000113726
0.000139353
0.000176032
0.000229931
0.000310957
0.000434452
0.000622177
0.000900471
0.00129353
0.0018099
0.00241275
0.00296971
0.00395654
4.75155e-05
5.40187e-05
6.18885e-05
7.09719e-05
8.17636e-05
9.49984e-05
0.000111743
0.000133611
0.000163094
0.000204125
0.000263084
0.000350392
0.00048288
0.000686032
0.000992943
0.00143539
0.00202417
0.00271341
0.00336004
0.00466084
4.85044e-05
5.72616e-05
6.77785e-05
7.98492e-05
9.39557e-05
0.000110837
0.000131568
0.000157797
0.000192073
0.000238431
0.000303419
0.000397814
0.000539472
0.000756814
0.00108937
0.00157786
0.00223727
0.00301149
0.00374401
0.00538143
4.9506e-05
6.07096e-05
7.41949e-05
8.97344e-05
0.000107801
0.000129131
0.000154795
0.000186448
0.000226681
0.000279611
0.000351947
0.000454766
0.000606709
0.000838552
0.00119569
0.00172854
0.00245883
0.0033214
0.00414422
0.00613231
5.04713e-05
6.42104e-05
8.08782e-05
0.000100282
0.000122913
0.000149528
0.000181183
0.000219533
0.000267186
0.00032833
0.000409826
0.000523047
0.000687325
0.000935451
0.00131813
0.0018957
0.00269844
0.00365309
0.00456895
0.00692911
5.13463e-05
6.75765e-05
8.74822e-05
0.000110994
0.000138685
0.000171387
0.000210183
0.000256731
0.000313658
0.000385204
0.000478389
0.000604897
0.000784764
0.00105269
0.00146441
0.0020904
0.00297141
0.00402761
0.00504592
0.00779834
5.20766e-05
7.05951e-05
9.35886e-05
0.000121227
0.000154276
0.000193757
0.00024087
0.000297343
0.000365857
0.000450725
0.000559139
0.000703149
0.000903585
0.00119715
0.0016447
0.00232724
0.0032976
0.0044701
0.00560268
0.00877307
5.26131e-05
7.30505e-05
9.87484e-05
0.000130252
0.00016867
0.000215396
0.000271923
0.000340211
0.000423123
0.000525131
0.000653691
0.000821343
0.00104993
0.00137854
0.00187369
0.00262806
0.00370874
0.00502424
0.00629137
0.00990427
5.29191e-05
7.47522e-05
0.000102538
0.000137329
0.000180759
0.000234832
0.000301626
0.000383626
0.000484169
0.000608147
0.000763525
0.00096365
0.00123186
0.00161044
0.00217302
0.00302627
0.00425503
0.00576149
0.00720041
0.0112832
5.29757e-05
7.55653e-05
0.000104627
0.000141823
0.000189484
0.000250508
0.000327944
0.000425286
0.000546878
0.000698598
0.000889512
0.00113451
0.00145948
0.0019117
0.002575
0.00357521
0.0050213
0.00680625
0.00847925
0.0130505
5.27857e-05
7.54364e-05
0.000104843
0.000143316
0.000194006
0.000260977
0.000348703
0.000462344
0.000608118
0.000793913
0.00103111
0.00133772
0.00174445
0.0023074
0.00312763
0.00436229
0.00616137
0.00841115
0.0104773
0.015605
5.23728e-05
7.44033e-05
0.000103203
0.000141687
0.000193862
0.000265135
0.000361844
0.000491591
0.000663651
0.000889553
0.00118515
0.00157454
0.00209784
0.00282798
0.0038988
0.0055288
0.00795694
0.0110912
0.0139436
0.0197926
5.17778e-05
7.25888e-05
9.99142e-05
0.000137151
0.000189071
0.000262444
0.000365768
0.000509812
0.000708281
0.000978552
0.00134424
0.00184049
0.00252507
0.00350303
0.00497363
0.00728973
0.0109281
0.0160188
0.020981
0.0281892
5.10516e-05
7.01769e-05
9.53337e-05
0.000130215
0.00018015
0.000253088
0.000359696
0.000514368
0.00073647
0.00105168
0.00149557
0.00212146
0.00301735
0.00434587
0.00643193
0.00992177
0.01595
0.0258166
0.038054
0.0515308
5.02478e-05
6.73804e-05
8.99007e-05
0.000121586
0.00016803
0.000237982
0.000343939
0.000503851
0.000743385
0.00109851
0.00162102
0.00239043
0.00354057
0.00532551
0.0082842
0.0136338
0.0241237
0.0455608
0.086242
0.160915
0.610847
2.4373
3.48822
4.23152
4.8723
5.91771
7.83448
11.2073
16.5404
25.0178
37.7935
54.3488
73.8645
101.827
203.516
314.147
553.521
894.392
1237.54
1576.35
1219.3
924.28
706.712
548.458
430.304
347.613
301.132
273.475
259.229
279.83
351.284
416.392
443.077
438.225
500.989
633.517
911.537
575.216
268.097
179.232
125.401
92.0985
73.1665
63.1732
57.5052
53.4594
50.2464
47.7387
45.9424
44.1784
42.3237
41.1465
40.8266
40.1536
39.6544
39.7416
38.7492
37.6872
37.5011
37.6059
1.22767
0.966994
1.24447
1.47316
1.71519
2.08864
2.7812
4.07818
6.42748
10.5435
17.2434
26.9078
40.6506
65.5064
131.289
210.982
318.639
455.635
633.787
615.028
465.824
343.709
267.175
215.799
179.348
152.31
132.966
121.211
117.585
123.685
141.635
171.552
211.774
269.466
376.307
505.152
479.313
374.13
252.456
182.712
114.439
72.3441
48.5018
35.3242
28.0709
23.9238
21.3404
19.5316
18.1457
17.0387
16.1665
15.4622
14.8641
14.3717
13.9614
13.6033
13.3264
13.12
12.892
12.8008
1.91994
1.12305
1.26906
1.45629
1.69436
2.08586
2.82608
4.25005
6.96979
11.9871
20.4376
32.7194
50.0437
79.2324
144.65
241.74
349.102
503.756
714.242
640.186
412.42
298.365
231.559
187.818
156.826
134.192
117.092
105.558
100.198
101.46
109.905
126.851
153.869
191.204
237.201
277.546
289.594
291.789
257.126
185.933
117.519
75.3481
50.4809
36.3321
28.4065
23.8682
21.0866
19.2078
17.8157
16.7175
15.8325
15.1177
14.5294
14.0343
13.6156
13.2502
12.9318
12.6746
12.4776
12.3617
2.86793
1.44689
1.51526
1.6901
1.95155
2.40947
3.29614
5.04925
8.5295
15.1882
26.7087
43.399
66.1815
102.961
171.159
295.549
450.042
648.688
1065.02
608.967
380.538
271.995
210.674
171.141
142.84
121.552
105.447
94.002
87.0019
84.4669
86.6493
94.3528
108.355
127.785
149.432
168.14
182.146
193.518
178.124
134.21
93.5886
64.5887
46.1287
35.0116
28.4321
24.4581
21.9175
20.1612
18.8499
17.8138
16.9767
16.2994
15.7423
15.2703
14.8627
14.5001
14.1755
13.8977
13.674
13.5248
3.96623
1.86693
1.8728
2.04363
2.3384
2.88119
3.95195
6.12066
10.569
19.3227
34.874
57.7622
87.29
135.98
216.602
364.895
616.019
870.553
997.108
561.296
352.057
246.673
188.486
152.171
126.656
107.58
93.0989
82.3077
74.7314
70.1769
68.6714
70.4616
75.7655
84.1351
94.2628
104.472
113.405
116.761
108.296
89.3125
68.6349
52.0392
40.5534
33.1094
28.3579
25.2637
23.1588
21.6443
20.4911
19.5725
18.8249
18.2158
17.7122
17.2787
16.8909
16.5341
16.2018
15.8966
15.6313
15.4393
5.0978
2.35729
2.31071
2.48083
2.8147
3.45292
4.73152
7.36549
12.9008
24.0457
44.334
75.7549
114.06
176.399
284.379
492.542
817.258
1299.89
908.069
512.538
317.762
218.174
163.725
130.723
108.353
92.077
79.8376
70.533
63.566
58.656
55.7307
54.815
55.9158
58.7772
62.9142
67.6877
72.2523
74.1614
70.6032
62.235
52.366
43.7207
37.2031
32.5896
29.3588
27.0539
25.3693
24.1018
23.1123
22.3095
21.6428
21.092
20.6357
20.2266
19.8364
19.4593
19.0896
18.7238
18.3917
18.1559
6.13447
2.92327
2.82315
2.99235
3.36906
4.10735
5.60486
8.73415
15.4189
29.1293
54.6063
97.4852
149.041
225.45
376.272
689.923
1235.23
1743.98
827.804
450.751
274.484
185.466
137.169
108.483
89.7007
76.5342
66.8864
59.5888
54.0019
49.8114
46.9313
45.3192
44.9415
45.6241
47.2176
49.4883
51.9106
53.3987
52.5158
49.3587
45.1623
41.0969
37.6502
34.8694
32.6701
30.8809
29.4494
28.3196
27.4083
26.6432
25.981
25.4199
24.9858
24.5499
24.0897
23.6333
23.1776
22.6803
22.2326
21.9982
7.35327
3.56455
3.40964
3.58191
4.00062
4.83774
6.55415
10.1894
18.051
34.434
65.3925
122.337
193.734
282.047
483.392
953.88
2194.16
1444.93
683.639
369.177
223.636
150.456
110.908
87.7465
72.9657
62.92
55.7829
50.5501
46.6783
43.7881
41.8305
40.5251
39.9038
39.8593
40.5213
42.0139
44.1058
46.0855
46.9694
46.8215
45.9996
44.7416
43.1877
41.3489
39.3771
37.4214
35.8736
34.6666
33.6705
32.7986
31.9847
31.1464
30.1155
29.1045
28.332
27.776
27.3916
27.1577
26.9128
26.6126
9.08367
4.28694
4.08601
4.26114
4.71824
5.65238
7.58294
11.7165
20.7351
39.8347
76.7508
145.465
252.567
379.227
668.117
1453.19
2176.28
1012.39
508.662
281.373
172.709
117.612
88.0103
70.9232
60.0736
52.6728
47.6743
44.3805
42.2474
40.7552
39.5274
38.6316
38.0274
37.9075
38.4681
40.0846
42.8411
46.5141
49.8393
52.3366
53.4677
52.335
49.1716
45.8
42.7025
40.212
38.3968
37.1088
36.0773
35.1358
34.1652
33.1132
32.1506
31.1913
30.3506
29.7973
29.4715
29.1915
28.9807
29.0891
11.2603
5.14485
4.87617
5.0532
5.54536
6.57069
8.70208
13.2941
23.3488
44.9175
88.3784
170.049
303.985
548.848
976.989
2478.81
1428.83
689.859
360.658
205.657
129.663
91.2384
71.1274
59.5817
51.4972
45.9625
42.4417
40.2903
39.0864
38.2699
37.6989
37.1385
36.6779
36.6021
37.0468
38.238
40.6234
44.3033
48.3779
51.3174
51.5926
49.7161
46.8331
43.6923
41.3221
39.3209
37.7077
36.5082
35.5352
34.6303
33.7099
32.8478
32.2002
31.5319
30.8793
30.4199
30.123
29.8921
29.9419
30.4888
13.9601
6.16136
5.80147
5.9806
6.51453
7.6338
9.96758
15.0069
26.0623
49.9097
98.8345
196.106
340.92
667.051
1490.02
2050.88
946.302
470.653
253.182
148.882
97.9503
73.2032
60.8073
52.1948
45.8729
41.568
38.817
37.1862
36.4033
35.9016
35.5355
35.1627
34.773
34.5833
34.7141
35.3488
36.848
39.1017
41.3408
43.2336
43.9328
43.1465
41.4685
39.5643
38.0311
36.6157
35.3737
34.3791
33.5469
32.7852
32.0775
31.5237
31.1631
30.7805
30.3738
30.0724
29.8974
29.8831
30.2588
31.07
17.2297
7.33882
6.86578
7.07282
7.68668
8.92757
11.5027
17.0622
29.4016
56.2431
111.465
224.088
427.303
911.39
2228.74
1338.47
638.43
325.015
178.949
109.475
77.1073
62.8947
54.0529
46.9958
41.6213
37.9785
35.6651
34.2964
33.5589
33.0895
32.6719
32.236
31.7645
31.3824
31.2023
31.3895
32.1576
33.3795
34.6211
35.8238
36.5826
36.5449
35.8696
34.9524
34.0611
33.1341
32.2553
31.5048
30.8668
30.3139
29.8685
29.5945
29.4584
29.3043
29.1245
29.0093
29.0205
29.2519
29.8547
30.7472
21.9242
8.66348
8.12846
8.411
9.16158
10.5934
13.5084
19.7907
33.9948
65.8259
134.301
279.028
606.389
1431.93
2069.96
933.461
444.991
228.039
128.729
83.7752
65.0797
56.9221
49.3324
42.7423
37.7143
34.332
32.2207
30.9476
30.153
29.5582
28.983
28.3893
27.7911
27.272
26.932
26.8984
27.2781
27.9894
28.8262
29.7319
30.4875
30.8229
30.7393
30.4055
29.942
29.3791
28.805
28.294
27.8669
27.5337
27.3235
27.2582
27.281
27.2947
27.295
27.3498
27.5333
27.9339
28.6167
29.4456
25.8599
10.1544
9.64238
10.0637
11.0585
12.8079
16.2513
23.6331
40.5588
80.272
172.556
393.876
968.98
2518.62
1549.44
668.892
314.127
161.964
95.5328
68.4004
59.3015
52.5224
45.2574
38.7571
33.7888
30.4435
28.3556
27.0558
26.1581
25.4119
24.6882
23.9762
23.315
22.7757
22.4393
22.385
22.6539
23.1924
23.8926
24.6813
25.4153
25.9045
26.1055
26.0766
25.8833
25.5819
25.2498
24.9504
24.7175
24.5733
24.5389
24.6102
24.7356
24.8575
24.979
25.1527
25.4415
25.9017
26.54
27.2194
25.1384
11.9402
11.5162
12.1954
13.565
15.8396
20.113
29.1621
50.0035
100.748
227.408
568.666
1600.03
2899.95
1101.85
470.638
221.31
117.059
74.646
60.7353
55.5403
48.4427
41.0516
34.6152
29.7089
26.3604
24.2234
22.841
21.8344
20.9749
20.1705
19.4298
18.8024
18.3484
18.1219
18.1577
18.4556
18.9682
19.6207
20.3381
21.0176
21.5465
21.8619
21.9863
21.9638
21.8486
21.7018
21.5735
21.4984
21.4979
21.578
21.7246
21.9012
22.0778
22.2626
22.4931
22.8112
23.2422
23.7658
24.2724
25.6539
13.8524
13.8365
14.9533
16.9189
20.0909
25.7106
37.2468
63.6418
128.974
299.291
776.786
2218.83
2016.58
763.923
329.33
157.305
87.5414
62.66
57.2504
52.0235
44.3377
36.732
30.3444
25.5336
22.2162
20.0435
18.5901
17.5089
16.6001
15.796
15.1123
14.5937
14.2815
14.1998
14.3492
14.705
15.2193
15.831
16.4757
17.0803
17.5775
17.9299
18.1343
18.2225
18.238
18.2284
18.2331
18.2746
18.3651
18.5053
18.6821
18.8734
19.0662
19.2693
19.5066
19.8008
20.1588
20.5549
20.9142
28.9431
15.9993
16.5588
18.3612
21.4142
26.1485
34.012
49.346
83.5968
168.229
392.814
1060.4
3471.5
1344.04
533.152
233.657
114.208
69.0222
57.1806
54.7872
48.1611
39.972
32.296
26.0378
21.388
18.1696
16.0219
14.5521
13.4565
12.5676
11.8327
11.2634
10.8874
10.7222
10.7659
10.9982
11.3839
11.878
12.4313
12.9943
13.5183
13.9624
14.3046
14.5465
14.7078
14.8185
14.9085
15.002
15.1145
15.2535
15.4181
15.5992
15.7858
15.9735
16.1695
16.3877
16.6388
16.9222
17.2182
17.4796
34.192
18.387
19.9201
22.7058
27.496
34.7672
46.3788
67.8518
113.778
225.313
524.321
1391.94
2395.98
938.913
382.315
168.5
85.311
58.2938
55.7008
51.6781
43.8363
35.3744
27.8119
21.8026
17.4038
14.3676
12.3227
10.9085
9.86555
9.05678
8.43697
8.00524
7.76756
7.71947
7.8429
8.10899
8.48301
8.92784
9.4064
9.88408
10.3298
10.7197
11.042
11.2984
11.5012
11.668
11.8166
11.9616
12.1125
12.2738
12.4447
12.6206
12.7971
12.9739
13.1565
13.3524
13.5672
13.7994
14.0372
14.2496
42.489
21.5574
24.1156
28.1624
35.4139
46.8527
64.5788
96.2506
161.105
313.765
714.57
1918.35
1825.56
681.799
278.3
122.462
66.2499
53.2936
54.2841
47.9954
39.2737
30.7001
23.3991
17.7565
13.7011
10.9282
9.06115
7.7716
6.84034
6.15455
5.66992
5.37022
5.24257
5.26837
5.42329
5.67995
6.0102
6.38669
6.78386
7.17885
7.55244
7.89082
8.18719
8.4422
8.66239
8.85714
9.03618
9.20779
9.37754
9.54811
9.71957
9.89056
10.0602
10.2299
10.4037
10.5865
10.7821
10.9906
11.2058
11.4025
55.8572
25.5004
29.1971
34.4459
44.8162
63.4806
90.5586
138.855
236.146
458.696
1037.53
2844.62
1307.24
503.152
201.596
89.3232
54.3942
52.7022
51.8698
43.8591
34.558
26.0802
19.1815
14.0098
10.3777
7.93458
6.3058
5.19535
4.41774
3.87689
3.5256
3.33515
3.28146
3.34115
3.49173
3.7121
3.9826
4.2852
4.60342
4.92292
5.23189
5.52186
5.78832
6.03066
6.25144
6.45483
6.64567
6.82811
7.00542
7.17936
7.35077
7.51986
7.68751
7.85567
8.0277
8.20736
8.39812
8.60152
8.81364
9.00934
75.2909
30.7292
35.5219
43.2485
55.5587
85.2909
125.594
199.157
350.597
706.41
1555.55
2712.52
983.456
364.672
142.41
65.9156
48.0842
52.8487
48.6263
39.28
29.7829
21.6352
15.2707
10.6523
7.50113
5.43337
4.08352
3.18723
2.58535
2.19246
1.95862
1.84926
1.83787
1.90367
2.03018
2.20365
2.41218
2.64493
2.89211
3.14496
3.39618
3.64025
3.87364
4.09485
4.30396
4.5023
4.69168
4.87404
5.05109
5.22414
5.39422
5.5623
5.72978
5.89874
6.072
6.25288
6.44465
6.6494
6.8633
7.05943
77.3922
37.6268
43.9476
55.5983
68.2744
102.092
170.252
277.038
502.931
1084.58
2603.59
2185.95
699.599
250.612
97.4297
50.4518
46.2348
51.8435
44.6527
34.5041
25.1198
17.4866
11.7553
7.74543
5.10867
3.44055
2.38986
1.72421
1.302
1.04596
0.907529
0.853594
0.861989
0.918341
1.01324
1.13922
1.29049
1.46125
1.64616
1.84009
2.03854
2.23775
2.43482
2.62785
2.81583
2.99842
3.17596
3.34906
3.51851
3.68523
3.85018
4.01443
4.17943
4.34706
4.51968
4.70014
4.89144
5.09531
5.30725
5.49876
69.9129
43.2588
51.783
64.8469
84.4362
118.518
218.067
372.239
670.2
1396.78
2996.53
1256.94
442.463
160.606
65.6035
41.5088
47.9628
49.2503
40.1353
29.6938
20.7035
13.7255
8.69276
5.31975
3.20951
1.95363
1.20572
0.760938
0.503657
0.364317
0.29891
0.28057
0.294659
0.333961
0.395091
0.476064
0.575342
0.690833
0.820565
0.961095
1.10988
1.2643
1.42212
1.58145
1.7409
1.89951
2.0568
2.21267
2.36742
2.52157
2.67587
2.83125
2.98892
3.15041
3.31763
3.49285
3.67848
3.87568
4.07901
4.25951
86.0292
40.7243
52.7182
72.3964
105.363
145.163
244.459
424.103
735.678
1419.63
1743.34
679.09
257.094
98.3758
45.3943
37.739
49.1593
45.7366
35.322
25.0093
16.6371
10.4113
6.11067
3.39033
1.82026
0.944489
0.469385
0.224602
0.10922
0.060953
0.0443259
0.0430484
0.0517295
0.0697588
0.0982073
0.138444
0.191493
0.25771
0.336818
0.427896
0.529507
0.640135
0.757503
0.880118
1.00661
1.13588
1.26715
1.39999
1.53434
1.67049
1.8089
1.95028
2.09552
2.24574
2.40235
2.56703
2.74147
2.92599
3.11442
3.27871
80.7917
41.5015
52.8243
77.788
119.814
164.816
244.858
399.828
669.546
1152.37
815.236
356.858
146.46
60.26
34.1316
38.0516
48.3637
41.2856
30.4127
20.5873
12.9913
7.57139
4.02467
1.97597
0.881481
0.341347
0.105926
0.0244615
0.00479337
0.00137153
0.000884291
0.00111823
0.00206103
0.00443239
0.00966165
0.0198157
0.0371805
0.0637152
0.100692
0.148643
0.207435
0.276409
0.354576
0.440752
0.533501
0.631617
0.734351
0.841196
0.951926
1.06662
1.18553
1.30912
1.438
1.5729
1.71475
1.86462
2.02341
2.19057
2.35941
2.50394
72.2626
42.6966
54.9905
82.1376
118.854
167.273
246.526
387.48
599.709
759.496
422.139
198.439
85.3408
38.6328
29.1081
41.5422
45.7084
36.5193
25.6274
16.5312
9.80452
5.21113
2.46583
1.00441
0.32259
0.0671197
0.00627574
0.00030692
8.04123e-05
6.37995e-05
6.16033e-05
6.50262e-05
7.97164e-05
0.000129371
0.000300612
0.000885567
0.00267826
0.00724746
0.0167563
0.0333198
0.0584495
0.0928775
0.136657
0.189346
0.250234
0.318491
0.393405
0.474171
0.560584
0.652609
0.750374
0.854152
0.964297
1.08127
1.2056
1.33777
1.47795
1.62467
1.77094
1.89382
67.4722
44.9541
59.6579
81.4854
111.919
160.893
243.367
382.013
541.955
479.094
249.412
117.725
51.3707
27.1309
28.3516
44.0727
42.1254
31.5342
21.0936
12.9012
7.08441
3.38416
1.3579
0.404423
0.0674069
0.00343759
0.000115436
6.18162e-05
5.77929e-05
5.5775e-05
5.41725e-05
5.30184e-05
5.25794e-05
5.35874e-05
5.83836e-05
7.51951e-05
0.000134814
0.000354344
0.00113084
0.00348458
0.00920005
0.02035
0.038575
0.0647369
0.0990054
0.141133
0.190714
0.24737
0.310874
0.380983
0.457702
0.541217
0.631738
0.729539
0.834845
0.947733
1.06767
1.19236
1.31468
1.41524
62.329
46.491
61.5964
78.7164
107.005
156.082
239.297
367.492
478.861
311.98
157.366
71.8286
31.9106
21.8762
30.7589
44.1143
37.3932
26.5549
16.9209
9.72632
4.84879
2.03025
0.629337
0.104989
0.004488
0.000101462
5.82772e-05
5.58787e-05
5.44307e-05
5.32107e-05
5.2118e-05
5.11927e-05
5.04592e-05
4.99292e-05
4.97339e-05
5.03125e-05
5.30326e-05
6.25968e-05
9.6779e-05
0.000225854
0.000712818
0.00234218
0.00669256
0.0157329
0.0309843
0.0531759
0.0824777
0.118831
0.162129
0.212342
0.269487
0.333711
0.405034
0.48366
0.569574
0.662615
0.761765
0.864057
0.962235
1.04041
64.006
45.0367
59.9796
75.586
104.128
156.479
243.282
363.694
384.575
206.68
99.7222
43.2473
21.1266
20.7196
35.4605
41.6392
32.4428
21.7979
13.1723
7.00698
3.12679
1.07838
0.215405
0.01155
0.000137161
5.57375e-05
5.33354e-05
5.22915e-05
5.13496e-05
5.05903e-05
4.99263e-05
4.9371e-05
4.89209e-05
4.85707e-05
4.83388e-05
4.82383e-05
4.83429e-05
4.90011e-05
5.14056e-05
5.98441e-05
9.14897e-05
0.000218686
0.000728569
0.00249888
0.00718687
0.0165273
0.0315774
0.0527756
0.0802763
0.114164
0.154524
0.201472
0.255107
0.315549
0.382673
0.456163
0.534704
0.614878
0.689323
0.744142
73.2868
41.2046
55.5148
71.3594
101.799
157.798
251.759
371.019
269.985
135.671
60.7282
25.5134
16.0966
22.4195
39.7976
37.6762
27.2856
17.3962
9.88469
4.76374
1.84693
0.468602
0.0416178
0.000413994
5.53453e-05
5.14852e-05
5.03823e-05
4.94256e-05
4.86754e-05
4.80979e-05
4.76428e-05
4.7316e-05
4.71087e-05
4.701e-05
4.70078e-05
4.70841e-05
4.72312e-05
4.74755e-05
4.79213e-05
4.90156e-05
5.24743e-05
6.52344e-05
0.000117916
0.000346788
0.00126682
0.00414074
0.0105936
0.021729
0.0380473
0.0597692
0.0870291
0.11993
0.158546
0.202885
0.25278
0.307677
0.366081
0.424446
0.474938
0.501726
71.0415
38.8713
49.2232
66.8645
99.7137
161.498
277.515
329.413
181.587
83.9379
34.4212
15.6466
14.9249
26.3889
39.8069
32.7846
22.3369
13.4519
7.07317
3.03244
0.95199
0.142033
0.00297365
6.24337e-05
5.01543e-05
4.91311e-05
4.8171e-05
4.72839e-05
4.65465e-05
4.59801e-05
4.55921e-05
4.53726e-05
4.52913e-05
4.53256e-05
4.5463e-05
4.56934e-05
4.60048e-05
4.63894e-05
4.68572e-05
4.7469e-05
4.84601e-05
5.07993e-05
5.86737e-05
9.1227e-05
0.00023787
0.000866147
0.00299166
0.00805191
0.0170307
0.0303296
0.0480876
0.070343
0.09706
0.128104
0.163125
0.201339
0.241008
0.278318
0.304791
0.301281
55.3958
39.0868
46.1959
64.503
100.691
178.217
304.629
234.844
111.295
46.6666
18.3836
11.3887
16.343
32.1838
36.812
27.716
17.7578
10.0092
4.73684
1.75006
0.390367
0.0219398
0.000131733
4.89799e-05
4.76445e-05
4.69556e-05
4.62886e-05
4.55904e-05
4.49402e-05
4.44041e-05
4.4024e-05
4.38e-05
4.37156e-05
4.37591e-05
4.39155e-05
4.4178e-05
4.4547e-05
4.50243e-05
4.561e-05
4.63112e-05
4.71739e-05
4.83644e-05
5.05753e-05
5.69481e-05
8.23143e-05
0.000197404
0.000701559
0.00245849
0.00672861
0.0143218
0.0254537
0.0400596
0.0579348
0.0787236
0.101813
0.126111
0.149593
0.168309
0.174229
0.150653
46.4408
35.5095
43.6403
64.424
108.811
209.09
282.205
141.562
60.8313
23.2406
10.5047
10.6967
19.6485
35.7318
32.6634
22.7026
13.6476
7.08374
2.94139
0.865381
0.105483
0.0011877
5.12109e-05
4.64507e-05
4.56989e-05
4.51265e-05
4.46107e-05
4.41062e-05
4.36368e-05
4.32226e-05
4.28854e-05
4.26356e-05
4.24915e-05
4.24719e-05
4.25711e-05
4.27866e-05
4.31195e-05
4.35743e-05
4.41616e-05
4.48967e-05
4.58006e-05
4.69147e-05
4.83789e-05
5.07485e-05
5.65738e-05
7.80787e-05
0.000173836
0.000592409
0.00206352
0.00567325
0.0120604
0.0212235
0.0328155
0.0462601
0.0606878
0.0747445
0.0862316
0.0914697
0.0844166
0.0566617
41.1389
30.7434
40.5489
66.7022
134.432
235.495
172.119
75.5061
29.1289
11.3049
7.82238
12.1619
24.814
34.6104
27.3746
17.858
10.0289
4.65948
1.6335
0.32808
0.0131071
8.13471e-05
4.59855e-05
4.50231e-05
4.43258e-05
4.3752e-05
4.32582e-05
4.28307e-05
4.248e-05
4.2194e-05
4.19526e-05
4.17422e-05
4.15867e-05
4.1521e-05
4.15545e-05
4.16911e-05
4.19354e-05
4.22964e-05
4.27896e-05
4.34355e-05
4.42636e-05
4.53127e-05
4.66392e-05
4.83705e-05
5.09504e-05
5.63967e-05
7.42951e-05
0.000149887
0.000472796
0.00160811
0.00443677
0.00945596
0.0164797
0.0248669
0.033638
0.0414009
0.0461698
0.0451716
0.0351258
0.0154072
38.9295
25.2161
37.6788
68.9919
165.253
212.171
91.8569
35.3568
12.9637
6.6827
7.86901
15.1696
30.764
31.0865
22.265
13.491
6.95208
2.78276
0.756668
0.0755844
0.000554087
4.66806e-05
4.4297e-05
4.37157e-05
4.321e-05
4.27541e-05
4.23013e-05
4.18884e-05
4.15506e-05
4.12968e-05
4.11107e-05
4.09665e-05
4.08665e-05
4.0825e-05
4.08433e-05
4.09261e-05
4.10873e-05
4.13422e-05
4.17055e-05
4.21992e-05
4.28588e-05
4.37273e-05
4.48607e-05
4.63314e-05
4.82595e-05
5.09913e-05
5.59459e-05
6.96335e-05
0.000121466
0.000330765
0.00105802
0.0029136
0.00626809
0.0108552
0.0158741
0.0201563
0.0222542
0.02064
0.0143965
0.005079
30.0042
21.3888
37.2026
79.1816
210.866
103.515
40.4716
14.7266
6.47376
5.62123
9.43744
19.7141
32.4031
26.3745
17.2588
9.67583
4.43621
1.45608
0.253286
0.00690706
6.125e-05
4.37876e-05
4.31243e-05
4.25989e-05
4.21975e-05
4.18679e-05
4.15387e-05
4.12115e-05
4.0903e-05
4.0649e-05
4.04621e-05
4.03318e-05
4.02613e-05
4.02531e-05
4.02959e-05
4.03823e-05
4.05169e-05
4.0709e-05
4.09726e-05
4.13299e-05
4.1811e-05
4.24545e-05
4.33157e-05
4.44651e-05
4.59898e-05
4.80065e-05
5.07661e-05
5.5109e-05
6.45441e-05
9.35443e-05
0.000196575
0.000533907
0.00139673
0.00297766
0.00504517
0.00691697
0.00769146
0.00662596
0.00381757
0.000995761
24.5196
21.5266
41.3888
126.818
128.718
46.8632
16.5249
6.63317
4.51994
6.22701
12.2189
25.9178
28.9494
20.9029
12.6681
6.48213
2.50424
0.609102
0.0452216
0.000234791
4.41601e-05
4.27856e-05
4.2267e-05
4.1769e-05
4.13837e-05
4.10798e-05
4.08219e-05
4.05925e-05
4.03733e-05
4.01804e-05
4.00197e-05
3.98895e-05
3.98085e-05
3.97907e-05
3.98322e-05
3.99259e-05
4.00674e-05
4.02542e-05
4.0488e-05
4.07785e-05
4.11449e-05
4.16149e-05
4.22296e-05
4.30488e-05
4.41498e-05
4.56293e-05
4.76023e-05
5.0246e-05
5.39685e-05
6.01606e-05
7.36465e-05
0.000109924
0.000207674
0.000428862
0.000792046
0.00116312
0.00127454
0.000961151
0.000439094
0.000130143
29.4016
38.706
90.6838
153.468
51.9721
17.5243
6.66904
3.87371
4.50467
7.90419
16.3602
28.5544
24.0892
15.8736
8.79959
3.94213
1.20144
0.167488
0.00261761
5.02105e-05
4.23743e-05
4.18672e-05
4.14455e-05
4.10551e-05
4.07397e-05
4.04636e-05
4.02242e-05
4.003e-05
3.98723e-05
3.97546e-05
3.96623e-05
3.95778e-05
3.95128e-05
3.94855e-05
3.95045e-05
3.95734e-05
3.96941e-05
3.98678e-05
4.00934e-05
4.03707e-05
4.07026e-05
4.10964e-05
4.1571e-05
4.21618e-05
4.29225e-05
4.39289e-05
4.52772e-05
4.70791e-05
4.94617e-05
5.25989e-05
5.68994e-05
6.33359e-05
7.43315e-05
9.37606e-05
0.000123246
0.000153877
0.000164286
0.000142716
0.000105798
7.27474e-05
62.0365
149.362
106.966
40.488
14.6742
5.83562
3.26915
3.42038
5.62298
10.6157
22.0816
25.5632
18.9449
11.3829
5.62813
2.04996
0.430842
0.0201488
0.000100404
4.25934e-05
4.15958e-05
4.11039e-05
4.069e-05
4.03492e-05
4.00967e-05
3.98911e-05
3.97145e-05
3.95603e-05
3.94297e-05
3.93402e-05
3.92886e-05
3.92606e-05
3.92526e-05
3.92645e-05
3.92973e-05
3.93563e-05
3.94496e-05
3.95866e-05
3.97744e-05
4.00185e-05
4.03227e-05
4.06876e-05
4.11136e-05
4.16079e-05
4.21892e-05
4.28947e-05
4.37879e-05
4.49527e-05
4.64863e-05
4.84839e-05
5.10258e-05
5.42116e-05
5.81779e-05
6.30065e-05
6.87533e-05
7.47957e-05
7.93664e-05
8.00705e-05
7.46603e-05
6.23151e-05
25.175
59.4557
21.9395
8.6654
4.00381
2.53149
2.65256
4.19639
7.75948
14.5388
24.286
20.9766
13.9058
7.52556
3.17982
0.873527
0.0906926
0.000729938
4.47897e-05
4.14425e-05
4.08448e-05
4.04072e-05
4.00438e-05
3.97376e-05
3.95017e-05
3.93268e-05
3.92034e-05
3.91129e-05
3.90401e-05
3.89856e-05
3.89506e-05
3.89369e-05
3.8951e-05
3.89953e-05
3.9066e-05
3.91576e-05
3.92672e-05
3.93976e-05
3.9557e-05
3.97552e-05
4.00032e-05
4.03103e-05
4.06826e-05
4.11225e-05
4.16293e-05
4.22059e-05
4.28675e-05
4.3652e-05
4.46176e-05
4.58378e-05
4.73827e-05
4.93037e-05
5.16019e-05
5.43004e-05
5.73659e-05
6.06443e-05
6.36832e-05
6.53048e-05
6.3356e-05
5.62105e-05
4.94164e-05
6.44084e-05
8.40623e-05
0.000112042
0.000153888
0.000218641
0.000319956
0.000478634
0.000726256
0.00110972
0.00169971
0.00260833
0.00402873
0.00633645
0.0103677
0.0182132
0.0355654
0.0790984
0.207015
0.868712
4.85757e-05
6.141e-05
7.81433e-05
0.00010218
0.000138719
0.000196552
0.000289623
0.000440327
0.000684637
0.00107907
0.00171297
0.00273286
0.00439625
0.00720911
0.0123184
0.0227227
0.047191
0.112693
0.304934
1.20664
4.77531e-05
5.84551e-05
7.23288e-05
9.24084e-05
0.000123322
0.000173125
0.000255104
0.000391619
0.000620452
0.00100415
0.00164622
0.00272201
0.00454398
0.00772182
0.0136108
0.0256748
0.0536632
0.124771
0.31056
0.781356
4.69773e-05
5.56571e-05
6.6857e-05
8.31876e-05
0.000108583
0.000150014
0.000219315
0.000337139
0.000539901
0.000890655
0.00149811
0.00255202
0.00439375
0.00767706
0.0137883
0.0260405
0.0530029
0.116071
0.259258
0.547318
4.62703e-05
5.31024e-05
6.19057e-05
7.48613e-05
9.51816e-05
0.0001286
0.000185008
0.000282101
0.00045206
0.00075257
0.00128645
0.00223784
0.00394077
0.00702201
0.012738
0.0238421
0.0467577
0.0957831
0.19624
0.383447
4.5647e-05
5.08465e-05
5.75787e-05
6.76265e-05
8.35321e-05
0.000109813
0.00015429
0.000231112
0.000366474
0.00060834
0.0010441
0.00183314
0.00326666
0.00588236
0.0107041
0.0197848
0.0374085
0.0721458
0.138192
0.252496
4.51158e-05
4.89165e-05
5.39139e-05
6.15456e-05
7.37856e-05
9.40844e-05
0.000128355
0.000187273
0.000290669
0.000475076
0.00080753
0.00141104
0.00251053
0.00451563
0.00817535
0.0148802
0.0272433
0.049992
0.0904627
0.156747
4.46792e-05
4.73165e-05
5.08989e-05
5.65797e-05
6.58874e-05
8.14157e-05
0.000107507
0.000151877
0.000228709
0.000363886
0.000604454
0.0010358
0.0018119
0.00320752
0.00570736
0.0101573
0.0180117
0.031662
0.054569
0.0905055
4.43367e-05
4.60337e-05
4.84826e-05
5.26182e-05
5.96487e-05
7.15229e-05
9.13922e-05
0.000124714
0.000181273
0.000278512
0.000447371
0.000742415
0.00125876
0.00215956
0.00371875
0.00638455
0.0108671
0.0182349
0.0299288
0.0474796
4.40853e-05
4.5042e-05
4.65842e-05
4.95046e-05
5.48086e-05
6.39827e-05
7.93321e-05
0.000104718
0.000146815
0.000217115
0.000335325
0.000534864
0.000871265
0.00143414
0.00236217
0.00385881
0.00620876
0.00979746
0.0151044
0.0225971
4.39237e-05
4.42964e-05
4.50967e-05
4.70778e-05
5.11046e-05
5.83179e-05
7.04677e-05
9.03972e-05
0.000122758
0.000175165
0.000260156
0.000398123
0.000621653
0.000980893
0.00154596
0.00240054
0.00363323
0.00535006
0.00772145
0.0110369
4.40493e-05
4.37796e-05
4.40805e-05
4.56097e-05
4.9144e-05
5.56181e-05
6.64905e-05
8.40517e-05
0.000111747
0.000154981
0.000222789
0.000330483
0.000504954
0.000801228
0.00133682
0.00237326
0.00467944
0.00961171
0.01951
0.0386527
0.000501146
8.46375e-05
0.000138678
0.000216168
0.000333038
0.000519499
0.000834244
0.0013771
0.00228732
0.00377916
0.00635202
0.0105359
0.0167691
0.0256937
0.0398942
0.062997
0.0978746
0.145648
0.200954
0.286264
0.0842581
0.0296619
0.0338595
0.0366438
0.0401923
0.0452154
0.0519917
0.0607584
0.0718805
0.0859075
0.103391
0.123735
0.137749
0.158359
0.220764
0.313555
0.440051
0.581906
0.661665
0.979308
0.0121448
0.0199354
0.0339195
0.0499944
0.0696533
0.0927898
0.119269
0.148611
0.181036
0.216906
0.252848
0.274273
0.270976
0.297185
0.308996
0.316837
0.339388
0.368481
0.407479
0.545477
0.00271442
0.00216607
0.00232407
0.00394247
0.00662742
0.0104568
0.0156317
0.0221959
0.0300978
0.0391661
0.0488595
0.0584116
0.0707638
0.0972013
0.112063
0.110879
0.101267
0.0890224
0.0824228
0.096094
0.001313
0.000778162
0.000363773
0.000553701
0.000933868
0.00149343
0.00225833
0.00324384
0.00444606