/*--------------------------------*- C++ -*----------------------------------*\
| =========                 |                                                 |
| \\      /  F ield         | OpenFOAM: The Open Source CFD Toolbox           |
|  \\    /   O peration     | Version:  v1912                                 |
|   \\  /    A nd           | Website:  www.openfoam.com                      |
|    \\/     M anipulation  |                                                 |
\*---------------------------------------------------------------------------*/
FoamFile
{
    version     2.0;
    format      ascii;
    class       volScalarField;
    location    "36";
    object      k;
}
// * * * * * * * * * * * * * * * * * * * * * * * * * * * * * * * * * * * * * //

dimensions      [0 2 -2 0 0 0 0];


internalField   nonuniform List<scalar> 
20320
(
0.0041392
0.00425408
0.00433102
0.00440644
0.0044798
0.00455058
0.00461809
0.00468152
0.0047399
0.00479217
0.00483708
0.00487313
0.00489877
0.00491234
0.00491168
0.00489375
0.00485325
0.00477788
0.00463462
0.00438739
0.00415089
0.0041492
0.00419456
0.00429152
0.00445995
0.00472044
0.00509185
0.00559074
0.0062312
0.00702496
0.00798345
0.00911521
0.0104269
0.0119219
0.0135955
0.0154242
0.0173339
0.0190886
0.0199511
0.0171696
0.00417742
0.0042175
0.0043038
0.00444321
0.00466127
0.00498934
0.00546715
0.00614388
0.00707774
0.00833175
0.00996396
0.0120182
0.014514
0.0174345
0.0207139
0.0242111
0.0276499
0.0304618
0.0312681
0.0266606
0.00421513
0.00431987
0.00447436
0.00468045
0.00496405
0.005358
0.00590551
0.00666482
0.00771413
0.00915517
0.0111103
0.0137044
0.0170321
0.0211171
0.0258706
0.0310479
0.0361677
0.0403084
0.0414295
0.0353368
0.00426142
0.00445076
0.00469388
0.00498705
0.00535575
0.00583293
0.00646228
0.00730382
0.00844123
0.00999111
0.0121114
0.0149967
0.0188459
0.0237886
0.029782
0.036509
0.0432793
0.0487992
0.0503867
0.0431113
0.00431463
0.00460769
0.00496002
0.00536249
0.00583931
0.00642282
0.00715614
0.00809913
0.00933617
0.0109879
0.0132263
0.0162859
0.0204512
0.0259844
0.0329657
0.0410821
0.0494436
0.0563348
0.0584193
0.0501402
0.00437276
0.00478552
0.00526524
0.0057977
0.00640503
0.00711813
0.00797865
0.00904535
0.0104019
0.0121693
0.0145249
0.0177221
0.0221016
0.0280434
0.0357874
0.0451092
0.0549765
0.0632264
0.0658204
0.0566672
0.00443349
0.00497801
0.00560004
0.00628101
0.0070404
0.00790689
0.00891963
0.0101352
0.0116356
0.013541
0.01603
0.0193652
0.0239216
0.0301699
0.0385107
0.0488644
0.0601283
0.069694
0.0727728
0.0629012
0.00449415
0.00517752
0.00595213
0.00679651
0.00772741
0.00877092
0.00996279
0.0113564
0.0130308
0.0151042
0.0177547
0.0212495
0.0259842
0.0324973
0.041334
0.0525895
0.065162
0.076035
0.0796249
0.0690091
0.00455183
0.005375
0.00630629
0.0073237
0.00844201
0.00968502
0.0110847
0.01269
0.0145762
0.0168578
0.0197113
0.0234054
0.028349
0.035131
0.0444212
0.0564966
0.0703061
0.0824611
0.0865428
0.0751924
0.00460345
0.00556034
0.00664484
0.00783789
0.00915414
0.0106166
0.0122536
0.0141097
0.0162548
0.0187983
0.0219133
0.025868
0.0310801
0.0381774
0.0479376
0.0608181
0.075857
0.0893274
0.0939182
0.0816888
0.00464605
0.00572294
0.00694862
0.00831135
0.00982883
0.011526
0.0134297
0.0155802
0.0180416
0.0209172
0.0243746
0.0286796
0.0342557
0.0417629
0.0520738
0.0658205
0.0821533
0.0970204
0.102125
0.0887974
0.00467708
0.00585279
0.00719876
0.00871561
0.0104284
0.0123686
0.0145651
0.0170564
0.0199023
0.023199
0.0271077
0.0318904
0.0379748
0.0460503
0.0570781
0.0718629
0.0896831
0.106151
0.111804
0.0969282
0.00469468
0.00594149
0.00737866
0.00902413
0.0109156
0.0130969
0.0156052
0.0184827
0.0217886
0.0256147
0.0301164
0.0355528
0.0423571
0.05125
0.063285
0.0794459
0.0991534
0.11764
0.123964
0.106753
0.00469792
0.0059834
0.00747612
0.00921546
0.011257
0.0136643
0.0164911
0.0197923
0.0236352
0.0281144
0.0333854
0.0397102
0.0475357
0.0576269
0.0711502
0.0892987
0.111657
0.132962
0.140191
0.11931
0.00468701
0.0059765
0.00748519
0.00927631
0.0114278
0.0140301
0.0171638
0.0209093
0.0253568
0.0306183
0.0368643
0.0443761
0.0536365
0.0654906
0.0812792
0.1025
0.128998
0.154862
0.163907
0.137191
0.0046632
0.00592269
0.00740711
0.00920362
0.011415
0.0141643
0.01757
0.0217532
0.0268477
0.0330076
0.0404462
0.0494982
0.0607304
0.075147
0.0944099
0.120581
0.154092
0.188299
0.201637
0.165622
0.00462867
0.00582758
0.00725025
0.00900535
0.0112202
0.0140534
0.0176693
0.0222464
0.0279863
0.0351192
0.0439445
0.0549081
0.0687463
0.0867711
0.111266
0.145476
0.191516
0.242941
0.26919
0.218589
0.00458613
0.00569956
0.0070289
0.00869958
0.01086
0.013703
0.0174429
0.0223269
0.0286488
0.0367534
0.0470821
0.0602724
0.0773566
0.100186
0.132172
0.178988
0.24729
0.335866
0.404447
0.34289
0.00453856
0.00554867
0.00676113
0.00831192
0.0103645
0.0131398
0.016899
0.0219623
0.0287311
0.0376987
0.0495054
0.0650694
0.0858636
0.114553
0.156332
0.22117
0.32584
0.489523
0.690687
0.732946
0.488866
0.854309
1.08506
1.23439
1.35622
1.54397
1.86143
2.36285
3.06192
4.03319
5.30837
6.76219
8.29776
10.2759
16.2626
21.721
31.7446
43.7163
54.3888
64.0376
53.9679
44.8729
37.5078
31.6669
26.9359
23.3271
21.1501
19.8144
19.0675
19.9313
23.0993
25.9659
27.2184
26.9703
29.2229
34.0259
43.7678
33.2764
19.8381
15.096
11.9038
9.68412
8.28615
7.49563
7.03239
6.69654
6.42457
6.20754
6.04953
5.89661
5.72977
5.61975
5.58886
5.53087
5.48131
5.49132
5.40639
5.30278
5.28196
5.29106
0.780888
2.13515
2.83184
3.28609
3.69488
4.24474
5.11335
6.46004
8.44259
11.2778
15.1383
19.9027
25.4076
32.8731
48.7228
65.9017
87.384
119.448
151.057
150.693
125.663
101.655
84.7529
72.4617
63.2423
56.0393
50.6286
46.7881
44.4658
43.9389
45.3434
48.3209
52.7167
59.132
70.7836
83.4923
74.0561
51.1838
43.5219
38.2835
29.1078
22.6593
18.9207
16.8904
15.7096
14.8805
14.2185
13.6891
13.2573
12.8768
12.5441
12.316
12.1799
12.0526
11.9399
11.822
11.6356
11.4826
11.4652
11.4832
1.05537
2.72356
3.63704
4.26321
4.83193
5.56325
6.69357
8.45057
11.1114
15.0354
20.5376
27.467
35.697
46.5195
65.7632
91.7454
118.392
155.62
196.311
184.528
140.711
114.514
96.9683
84.184
74.3284
66.5839
60.3019
55.4566
52.1047
50.2188
49.7093
50.6256
53.2838
57.685
63.2134
67.058
64.1514
59.5511
55.6467
45.6063
34.9776
28.2117
24.2448
21.9695
20.5445
19.5185
18.7131
18.0725
17.5586
17.1306
16.7802
16.5303
16.3595
16.2183
16.0923
15.958
15.7957
15.6589
15.5886
15.5704
1.38316
3.36087
4.40107
5.1491
5.84196
6.72536
8.07944
10.2086
13.5216
18.5553
25.8087
35.0191
45.8492
59.9034
81.0221
114.197
150.767
192.092
258.163
185.643
140.212
114.638
98.1273
86.2102
76.8213
69.1557
62.8669
57.8702
54.072
51.3873
49.7313
49.1506
49.8068
51.5629
53.7288
55.0202
54.649
53.8503
50.1016
42.3364
35.4407
30.6039
27.5306
25.5675
24.208
23.1794
22.368
21.7291
21.2263
20.8231
20.507
20.282
20.1251
19.9979
19.8796
19.7516
19.6064
19.4681
19.3608
19.3056
1.72169
4.10765
5.23003
6.06421
6.8586
7.87802
9.44013
11.9332
15.9222
22.1493
31.3483
43.205
56.6195
74.379
98.5455
135.696
187.419
230.95
249.484
176.052
133.462
108.574
93.0644
82.2758
73.8818
67.0067
61.3302
56.6933
52.9813
50.1101
48.0192
46.6962
46.1729
46.3456
46.871
47.2205
46.9812
45.7713
43.034
39.0875
35.281
32.3392
30.2451
28.7306
27.574
26.6554
25.9252
25.3578
24.9217
24.5831
24.3253
24.1448
24.0212
23.9194
23.8153
23.6959
23.5559
23.4034
23.2589
23.1657
2.04123
4.92382
6.12641
7.02828
7.90936
9.05147
10.8119
13.6614
18.3342
25.809
37.0755
52.1133
68.3481
89.4616
118.862
164.421
221.439
286.31
230.272
162.825
122.748
99.0685
84.6154
74.97
67.7641
62.0124
57.3131
53.4485
50.286
47.7452
45.7854
44.3801
43.5205
43.1297
43.0492
43.0244
42.7634
41.9572
40.4182
38.402
36.4102
34.7342
33.3883
32.2833
31.356
30.5807
29.9576
29.4807
29.123
28.8503
28.6428
28.4993
28.4078
28.3241
28.2217
28.0951
27.9387
27.7491
27.5584
27.4402
2.31649
5.77091
7.07576
8.046
9.00569
10.2542
12.1935
15.3842
20.7249
29.4514
42.8059
61.6407
81.4537
105.09
141.212
199.102
274.618
332.8
210.864
146.24
109.32
87.7328
74.7547
66.3799
60.4166
55.8828
52.3164
49.4494
47.1237
45.2442
43.7807
42.6968
41.9792
41.5748
41.4576
41.5431
41.6304
41.4677
40.9348
40.1532
39.3186
38.5267
37.7502
36.9786
36.2565
35.5907
35.0361
34.6147
34.2999
34.0542
33.8541
33.7078
33.6423
33.5506
33.4129
33.248
33.0504
32.782
32.5215
32.4294
2.62256
6.59083
8.07303
9.12772
10.1541
11.4862
13.5721
17.0689
23.0352
32.9721
48.3706
71.4318
95.7837
120.127
162.242
234.873
372.364
288.013
182.687
126.204
94.3373
75.9504
65.0727
58.24
53.5662
50.1946
47.7046
45.8486
44.4824
43.4469
42.727
42.1517
41.742
41.4786
41.4876
41.8909
42.6119
43.3735
43.8376
44.166
44.3953
44.4111
44.1445
43.5743
42.8146
41.9801
41.343
40.8873
40.5404
40.2483
39.969
39.6505
39.181
38.6984
38.3548
38.1401
38.0225
37.9843
37.9089
37.7907
3.02877
7.49308
9.1576
10.291
11.3652
12.7557
14.9477
18.6905
25.1929
36.2308
53.6343
79.8173
111.643
140.995
191.321
291.572
366.007
228.138
149.639
104.995
79.6258
65.2403
56.9595
51.8958
48.4639
46.0246
44.4364
43.5274
43.1146
42.9141
42.6965
42.4981
42.2902
42.2326
42.483
43.3104
44.8068
46.9005
48.872
50.5093
51.5272
51.3499
49.9814
48.393
46.8846
45.6813
44.843
44.3127
43.9256
43.572
43.169
42.6802
42.2468
41.796
41.3955
41.1809
41.1109
41.0396
40.9937
41.1971
3.5062
8.57112
10.3725
11.5646
12.6621
14.0789
16.3288
20.2323
27.1146
38.9909
58.3101
87.5032
123.21
171.156
231.847
387.938
277.648
177.298
119.341
85.9036
67.1347
56.9508
51.4297
48.0768
45.4312
43.5973
42.5926
42.2018
42.2485
42.4018
42.5692
42.5906
42.5316
42.6105
42.9391
43.6881
45.1835
47.5167
50.0939
52.0426
52.528
51.7826
50.4183
48.8062
47.641
46.6672
45.8946
45.3708
44.9796
44.611
44.2034
43.8159
43.589
43.3314
43.0503
42.8885
42.8247
42.7776
42.9359
43.4927
4.05983
9.81159
11.7317
12.9646
14.071
15.4899
17.7605
21.7495
28.8726
41.2978
61.7625
94.0425
130.347
186.659
288.295
343.408
212.356
138.028
95.1339
70.8864
58.0265
51.7534
48.6374
45.9935
43.7687
42.2655
41.4611
41.2069
41.3886
41.639
41.8693
41.9774
41.9648
42.0075
42.2064
42.7042
43.7841
45.4024
47.0324
48.4847
49.2444
49.0792
48.3318
47.3835
46.6706
46.0051
45.4164
44.9766
44.6343
44.3225
44.029
43.8401
43.8044
43.7383
43.6217
43.5594
43.5716
43.6882
44.119
44.9029
4.68671
11.1643
13.2104
14.5056
15.6413
17.0581
19.3358
23.3796
30.7374
43.6925
64.9888
98.8771
144.294
216.488
358.518
261.284
164.65
108.826
77.1445
60.2913
52.447
49.4623
47.1679
44.7012
42.5462
41.0957
40.3052
40.0215
40.0789
40.2331
40.3378
40.346
40.2517
40.165
40.183
40.4418
41.129
42.1745
43.2608
44.3679
45.2166
45.5295
45.3856
45.0422
44.7072
44.3185
43.9311
43.617
43.3718
43.1756
43.0489
43.0536
43.1723
43.2641
43.3067
43.3764
43.5296
43.8545
44.4977
45.3764
5.52076
12.5954
14.8531
16.2563
17.4516
18.8876
21.1898
25.3288
33.0461
46.955
70.3753
107.864
168.76
274.147
339.451
206.558
130.461
87.5
64.4409
53.6244
49.8725
48.643
46.2255
43.4547
41.0843
39.4765
38.5676
38.1499
38.0063
37.9458
37.8392
37.6631
37.4347
37.2309
37.141
37.279
37.7527
38.512
39.3952
40.3705
41.2675
41.8583
42.1197
42.1711
42.108
41.942
41.7395
41.5676
41.4493
41.3956
41.435
41.5945
41.8293
42.0437
42.2243
42.4312
42.7364
43.2294
43.9802
44.8457
6.18086
14.0894
16.6863
18.2587
19.5793
21.0851
23.4748
27.8341
36.1564
51.7546
79.4281
127.705
215.702
377.975
280.502
166.658
105
71.9664
55.9688
50.1424
49.4449
47.9991
45.0937
41.8625
39.1315
37.2376
36.1006
35.4684
35.0899
34.787
34.4644
34.1192
33.7893
33.5411
33.4503
33.5961
34.0297
34.7149
35.5608
36.51
37.4371
38.1686
38.6516
38.9281
39.0499
39.0576
39.0169
38.9876
39.004
39.0893
39.2664
39.5372
39.855
40.1592
40.4469
40.7686
41.1903
41.7756
42.537
43.3195
6.08264
15.6896
18.7728
20.6351
22.1441
23.799
26.3815
31.1547
40.4357
58.4739
92.3224
156.678
288.628
414.976
227.306
134.27
85.3844
60.8394
50.8524
49.1732
49.3113
46.9256
43.3534
39.6829
36.605
34.3992
32.9819
32.0927
31.4713
30.9481
30.4542
30.0032
29.6434
29.4331
29.4271
29.6666
30.1623
30.8758
31.739
32.6825
33.6056
34.394
34.981
35.3808
35.63
35.7748
35.8728
35.9748
36.1168
36.3229
36.6029
36.9465
37.3168
37.6796
38.0402
38.4386
38.9238
39.53
40.238
40.9088
6.18793
17.286
21.1702
23.4681
25.2738
27.2318
30.1885
35.6292
46.2943
67.4394
108.67
190.238
358.047
332.304
182.373
108.418
70.4956
53.2745
48.3798
49.4312
48.6769
45.2939
41.0432
36.948
33.5571
31.0646
29.3723
28.2292
27.3869
26.6907
26.0899
25.6055
25.2843
25.1696
25.2896
25.6514
26.2363
26.9983
27.875
28.7987
29.6902
30.4736
31.105
31.5778
31.9207
32.1758
32.3922
32.6125
32.8638
33.1619
33.5103
33.8967
34.2967
34.6937
35.0967
35.5346
36.0384
36.6211
37.2521
37.818
6.73184
18.8822
23.7806
26.7156
29.1124
31.6595
35.2915
41.7603
54.2877
79.1821
128.615
230.246
465.575
262.138
146.983
88.4235
59.5347
48.6217
48.0224
49.563
47.3051
43.0187
38.2024
33.7506
30.1021
27.3759
25.4536
24.0969
23.0808
22.2708
21.6275
21.1699
20.931
20.9325
21.176
21.6424
22.2949
23.0826
23.9483
24.8333
25.6787
26.4342
27.0712
27.5885
28.0063
28.3574
28.6767
28.9936
29.3283
29.6914
30.0833
30.4944
30.911
31.3273
31.7524
32.2058
32.7048
33.2512
33.8151
34.3056
7.55412
20.6772
26.7245
30.5379
33.8841
37.3993
42.1811
50.2662
65.3225
94.8084
153.946
275.009
382.137
211.23
119.94
73.0135
51.7656
46.311
48.9565
48.7955
45.1804
40.1537
34.9107
30.2004
26.3722
23.4857
21.4017
19.895
18.7673
17.9047
17.2729
16.8798
16.7374
16.8439
17.1794
17.7089
18.3879
19.1672
19.9968
20.8301
21.6252
22.3494
22.9856
23.5345
24.0105
24.4359
24.8339
25.2244
25.6209
26.0301
26.4519
26.8807
27.3106
27.7414
28.1812
28.6425
29.135
29.6565
30.1813
30.6326
8.76807
23.0679
30.1215
34.9921
39.6455
44.7731
51.403
62.0155
80.7713
116.386
187
335.915
320.768
173.333
98.5546
61.0513
46.6075
45.8924
49.3542
47.2228
42.4769
36.8344
31.2845
26.42
22.5028
19.5404
17.3749
15.7928
14.6205
13.761
13.1792
12.8659
12.8111
12.993
13.3782
13.9259
14.5921
15.3336
16.11
16.8857
17.6314
18.326
18.9589
19.5306
20.0502
20.5314
20.9888
21.4347
21.878
22.3229
22.7701
23.2176
23.6644
24.1128
24.5698
25.0438
25.5409
26.0583
26.574
27.0161
10.5687
26.3612
34.133
39.8235
46.1448
54.1311
63.4334
77.8529
102.347
147.183
234.445
423.634
262.668
143.148
80.9379
51.8667
43.5976
47.0572
48.7103
44.9706
39.2944
33.1862
27.4493
22.5362
18.625
15.6754
13.5114
11.9303
10.778
9.96829
9.45973
9.22553
9.23737
9.46079
9.85725
10.3872
11.0122
11.6974
12.4115
13.1284
13.8273
14.4938
15.1205
15.7065
16.2565
16.7778
17.2786
17.7662
18.2462
18.7217
19.1943
19.6645
20.1338
20.6057
21.0861
21.5813
22.0959
22.6274
23.1547
23.6044
12.9461
30.678
39.0806
46.0357
53.2961
65.5898
78.3741
98.1989
131.459
192.313
301.916
416.205
219.028
117.008
66.113
45.0864
42.3718
48.0705
47.1941
42.0817
35.7248
29.3271
23.5289
18.6706
14.859
12.0093
9.929
8.42332
7.35042
6.62828
6.20636
6.04352
6.09975
6.33581
6.71495
7.20314
7.77016
8.38915
9.03717
9.69498
10.3476
10.9843
11.5988
12.1888
12.7554
13.3016
13.8312
14.3484
14.8565
15.3582
15.8556
16.3506
16.8456
17.3444
17.8521
18.3737
18.9128
19.4667
20.0131
20.4745
13.2188
35.6635
45.2956
54.0593
61.2024
74.9382
96.0805
122.631
167.214
253.334
411.915
360.803
177.686
93.5242
53.8592
40.4493
42.6834
48.0204
44.8946
38.7379
31.9128
25.3828
19.6401
14.9347
11.3122
8.64843
6.73252
5.37709
4.44089
3.84023
3.51562
3.41619
3.49774
3.72366
4.06436
4.49364
4.99073
5.5361
6.11348
6.70858
7.3102
7.90975
8.50124
9.08127
9.64847
10.2029
10.746
11.2795
11.8056
12.3264
12.8442
13.361
13.8797
14.4037
14.9368
15.4834
16.0459
16.6203
17.1825
17.6506
12.4015
39.1413
50.9126
60.1588
70.1079
83.4665
113.871
150.703
205.822
307.703
469.341
267.142
137.189
72.873
44.2277
37.7166
44.3502
46.7188
41.9604
35.0733
27.9872
21.4658
15.8847
11.4233
8.07874
5.7013
4.03995
2.90121
2.1562
1.71392
1.50185
1.4616
1.55158
1.74456
2.02263
2.37201
2.78126
3.23857
3.73422
4.25555
4.79423
5.34256
5.89484
6.44682
6.99572
7.53998
8.07915
8.61366
9.1447
9.67385
10.2029
10.7338
11.2689
11.8108
12.3624
12.9266
13.5044
14.0905
14.6582
15.1236
14.3011
37.9936
52.2743
65.1224
80.6529
95.4378
125.057
168.944
228.491
329.53
355.87
191.574
102.146
55.9337
37.1963
36.6899
45.3001
44.6097
38.5664
31.2216
24.0597
17.6721
12.3479
8.23193
5.29603
3.28247
1.94825
1.11194
0.637371
0.40694
0.323336
0.326457
0.391732
0.513727
0.692993
0.929776
1.22198
1.5649
1.95235
2.37711
2.83161
3.30938
3.80227
4.30565
4.81586
5.33022
5.84719
6.36609
6.88713
7.41122
7.9394
8.47308
9.01368
9.56279
10.122
10.6927
11.2743
11.8593
12.4194
12.871
13.7587
38.6473
53.0001
68.8845
88.3292
105.047
129.794
171.381
229.795
307.897
236.643
135.826
74.9887
42.9095
32.5819
37.2634
44.8997
41.7094
34.8616
27.3046
20.2239
14.0773
9.11534
5.4977
3.03494
1.47223
0.582973
0.175449
0.0467519
0.0190708
0.01489
0.0179481
0.0287859
0.0542544
0.105889
0.196959
0.337854
0.53322
0.782243
1.08069
1.42256
1.80124
2.21032
2.6438
3.09571
3.56146
4.03858
4.52546
5.02132
5.52609
6.03998
6.56341
7.09683
7.64061
8.19496
8.75945
9.33147
9.90155
10.4402
10.867
12.8252
39.5848
54.7554
71.974
89.4384
108.29
134.555
174.921
224.362
248.59
164.801
97.5374
54.6512
33.4725
30.1695
39.3186
43.2586
38.4075
31.0041
23.4251
16.5538
10.7432
6.32492
3.2654
1.36382
0.382879
0.0529573
0.00807743
0.00583401
0.0055354
0.00540395
0.00537159
0.0055324
0.00624186
0.00873203
0.0168079
0.0394546
0.0911898
0.186961
0.335829
0.539483
0.794527
1.09515
1.43477
1.80707
2.20636
2.6283
3.06834
3.52476
3.99637
4.48234
4.98208
5.49489
6.01999
6.55615
7.10117
7.65026
8.19157
8.69501
9.08678
12.3027
40.8796
57.7424
72.4389
87.6238
107.707
136.351
176.712
213.428
189.782
119.984
70.2375
39.5247
27.2627
29.7516
40.7153
40.9542
34.7652
27.0949
19.6599
13.1013
7.80688
4.00485
1.58359
0.36916
0.0309665
0.0060999
0.00555628
0.00541739
0.00530005
0.00519857
0.00511675
0.00506012
0.00503935
0.00509077
0.00535096
0.00632408
0.0098221
0.0213909
0.0531755
0.121974
0.241334
0.4163
0.644591
0.920175
1.23613
1.58612
1.96504
2.36915
2.79489
3.23996
3.70274
4.1815
4.67442
5.17896
5.69128
6.20426
6.70352
7.15856
7.50461
11.7143
41.1808
58.9264
71.4739
86.1115
106.842
136.104
172.663
195.48
143.219
87.7967
49.6943
28.6958
23.9573
31.1495
40.7118
37.8337
30.9151
23.2249
16.0662
9.93614
5.30255
2.1848
0.517073
0.0363676
0.0057432
0.00536003
0.00527024
0.00518632
0.00511447
0.00505003
0.00499561
0.0049523
0.00491873
0.004897
0.00489572
0.00493984
0.00511518
0.0057477
0.00807725
0.0163942
0.0419024
0.10289
0.215428
0.384782
0.607057
0.874962
1.18145
1.52067
1.88817
2.2803
2.69424
3.12656
3.57462
4.03445
4.50103
4.96517
5.40967
5.80286
6.08971
11.9697
39.6425
57.6572
69.7158
84.6343
106.601
136.035
168.028
165.931
106.763
62.5879
34.0865
21.7919
23.1332
33.9323
39.2333
34.3933
26.9861
19.4603
12.681
7.16654
3.24647
0.911137
0.0766796
0.00580727
0.00515727
0.00507696
0.00501702
0.00496226
0.00491926
0.00488248
0.00485286
0.00483021
0.00481411
0.0048054
0.00480361
0.00480912
0.00482985
0.00489219
0.00508539
0.00576367
0.00836856
0.0182122
0.0494135
0.122745
0.251075
0.433632
0.663283
0.932489
1.23503
1.56592
1.92103
2.29639
2.68829
3.09165
3.50025
3.90301
4.27975
4.59578
4.79913
13.1547
37.5414
54.4077
66.7423
82.4061
105.037
134.676
162.982
127.321
77.2146
42.4182
23.0195
18.3581
24.2596
36.5564
36.7909
30.607
23.0733
15.8561
9.56772
4.80174
1.67059
0.224339
0.00764445
0.00501451
0.00493092
0.00486628
0.00480879
0.00476489
0.00473258
0.00470865
0.00469355
0.00468675
0.00468756
0.00469519
0.00470836
0.00472622
0.00474931
0.00478003
0.00483033
0.00494296
0.00527842
0.00652799
0.011638
0.0306625
0.0836381
0.187182
0.342606
0.542899
0.780308
1.04833
1.34151
1.6549
1.98355
2.32161
2.66121
2.98958
3.28403
3.50283
3.572
12.9465
36.5101
50.1515
63.0756
79.3112
102.314
135.439
143.317
93.0648
52.4277
26.9608
16.3824
17.6405
26.9164
36.7313
33.6068
26.7087
19.263
12.4581
6.8345
2.86644
0.622727
0.0239941
0.00493467
0.00481826
0.00476235
0.00470335
0.00464892
0.00460446
0.00457162
0.0045511
0.00454233
0.00454334
0.00455261
0.00456932
0.0045928
0.00462225
0.00465708
0.00469756
0.00474596
0.00480971
0.00491562
0.00516929
0.00603195
0.00959027
0.023763
0.0667436
0.155681
0.292229
0.468966
0.677681
0.911253
1.16328
1.42744
1.69647
1.9608
2.20556
2.40463
2.5072
2.40473
11.0144
36.2997
47.5325
59.9706
76.4435
102.118
133.684
108.025
62.4853
32.3005
16.6228
13.5566
18.8437
30.6584
35.0693
30.0612
22.8007
15.6137
9.3037
4.49929
1.40351
0.124378
0.00529948
0.00469634
0.00464589
0.00460377
0.00456285
0.00451986
0.00448014
0.0044483
0.00442731
0.00441734
0.00441731
0.00442648
0.00444385
0.00446898
0.00450192
0.00454282
0.0045917
0.0046489
0.00471661
0.00480095
0.00492251
0.00516372
0.00589101
0.00879994
0.0205962
0.0576064
0.136025
0.256884
0.411839
0.591575
0.787595
0.991618
1.19442
1.38421
1.54371
1.64399
1.63089
1.39171
9.83792
33.617
44.5852
57.2417
75.1007
104.277
117.334
71.2494
37.5923
18.1566
11.3759
13.4038
21.3741
33.0261
32.5139
26.2718
18.967
12.1742
6.5301
2.59931
0.471904
0.0121752
0.00462553
0.00455049
0.00450435
0.00446857
0.00443675
0.00440584
0.00437747
0.00435307
0.00433418
0.00432159
0.00431663
0.00432067
0.00433336
0.00435457
0.00438439
0.00442315
0.00447162
0.00453089
0.00460232
0.00468814
0.00479422
0.00493808
0.00518766
0.00584548
0.00831893
0.0182306
0.0496875
0.117313
0.221521
0.352844
0.500234
0.652838
0.799082
0.9249
1.01098
1.02787
0.92809
0.638202
9.1142
29.9208
40.6752
54.3721
77.5112
101.755
77.5821
41.7197
19.9383
10.4722
9.89022
14.8967
25.0448
32.6394
28.9975
22.2947
15.2467
8.97284
4.17637
1.1921
0.0775676
0.00475807
0.00449571
0.00444623
0.00440124
0.00436456
0.00433344
0.00430696
0.00428593
0.00426957
0.00425653
0.00424591
0.00423938
0.00423945
0.00424682
0.00426182
0.00428477
0.00431634
0.00435762
0.00441007
0.00447574
0.00455728
0.00465808
0.00478409
0.00494994
0.00520997
0.00579989
0.00779909
0.0154985
0.0400015
0.0938325
0.177489
0.280857
0.390885
0.49382
0.574253
0.613151
0.585412
0.459656
0.219986
8.83036
25.2665
36.2473
50.2859
76.4356
82.6436
44.4675
21.1871
10.1753
7.75908
10.5065
17.4694
29.0185
30.5872
25.2489
18.3398
11.7145
6.12309
2.29048
0.347822
0.00781371
0.00443155
0.0043858
0.00434862
0.00431593
0.00428674
0.00425785
0.00423179
0.00421102
0.00419626
0.00418641
0.00417971
0.00417635
0.0041774
0.00418299
0.00419347
0.00420986
0.00423328
0.00426476
0.00430588
0.00435912
0.00442749
0.00451479
0.00462563
0.00476621
0.00494908
0.00521297
0.00571743
0.00715902
0.0122437
0.0282393
0.0645443
0.122399
0.192516
0.26092
0.31228
0.330461
0.299553
0.209695
0.0787584
7.46193
21.0189
31.9016
47.0654
73.9334
43.5348
21.0991
9.87894
6.50434
7.69826
12.2564
20.963
30.3203
27.5178
21.2224
14.4945
8.43975
3.74124
0.945671
0.0440018
0.00447851
0.00433642
0.00429857
0.00426399
0.00423795
0.004217
0.0041962
0.00417562
0.00415645
0.0041412
0.00413079
0.00412452
0.00412266
0.00412542
0.00413205
0.00414208
0.00415586
0.00417409
0.00419779
0.00422855
0.00426852
0.00432042
0.00438808
0.0044763
0.00459079
0.00473817
0.00492883
0.00518711
0.00559999
0.00650872
0.00915948
0.0169162
0.0347639
0.0639195
0.0978529
0.124863
0.132529
0.112077
0.0661973
0.0204099
6.5567
18.0125
26.9809
46.6243
43.4387
20.4102
9.43594
5.71083
5.97807
8.85466
14.8128
25.2959
28.4247
23.5816
17.1104
10.8561
5.51985
1.88908
0.219449
0.00558308
0.00430568
0.0042665
0.00423223
0.00419911
0.00417385
0.00415434
0.00413813
0.00412402
0.00411072
0.00409939
0.00409043
0.00408376
0.00408072
0.00408232
0.00408831
0.00409825
0.00411185
0.00412896
0.00414977
0.004175
0.00420605
0.00424489
0.00429445
0.00435887
0.00444344
0.00455457
0.00469928
0.0048863
0.00512917
0.00546407
0.00600422
0.00711039
0.00962573
0.0147252
0.0223263
0.0293285
0.0307962
0.0242015
0.0136448
0.00690602
7.42574
19.9957
31.9463
41.942
19.1817
8.77168
5.11676
4.88924
6.75976
10.7378
18.1653
27.2648
25.2624
19.5064
13.1838
7.52706
3.1464
0.658032
0.019852
0.00431388
0.00422828
0.00419665
0.00416836
0.00414234
0.00412164
0.0041038
0.00408863
0.00407671
0.00406745
0.0040611
0.00405666
0.00405289
0.00405063
0.00405118
0.00405518
0.0040629
0.0040745
0.00409009
0.00410963
0.00413314
0.0041609
0.00419346
0.0042322
0.00427964
0.00433954
0.0044171
0.00451875
0.00465164
0.00482295
0.00503984
0.00531461
0.00566855
0.00615784
0.00686375
0.00778765
0.00866779
0.00896341
0.00836757
0.00718499
0.00576987
12.2609
37.8272
28.979
14.3198
7.09767
4.43772
4.1613
5.41601
8.2614
13.2825
22.3212
25.5645
21.4617
15.4028
9.5049
4.60743
1.39627
0.106853
0.00462256
0.00421716
0.00417057
0.00413708
0.00410902
0.00408617
0.00406959
0.00405643
0.00404543
0.00403611
0.00402855
0.00402397
0.00402217
0.00402213
0.00402362
0.00402663
0.00403128
0.00403793
0.0040472
0.00405974
0.00407609
0.00409665
0.00412174
0.00415143
0.0041858
0.00422542
0.00427166
0.00432712
0.00439622
0.00448459
0.0045986
0.00474407
0.00492502
0.00514493
0.00540628
0.00570399
0.00603141
0.00635181
0.00657582
0.00657055
0.00618607
0.00535264
6.74293
14.3893
7.75494
4.81105
3.73102
3.68894
4.56491
6.63771
10.4333
16.5352
24.024
22.4334
17.2608
11.3897
6.19304
2.36754
0.381343
0.00851608
0.00421496
0.00415248
0.00411223
0.00408206
0.00405723
0.00403656
0.00402095
0.00400974
0.00400227
0.00399724
0.00399356
0.00399128
0.00399047
0.00399126
0.0039941
0.00399918
0.00400623
0.00401489
0.00402497
0.00403668
0.00405063
0.0040675
0.0040881
0.0041131
0.00414296
0.00417787
0.00421784
0.00426312
0.00431485
0.00437564
0.00444946
0.0045412
0.0046553
0.00479471
0.0049586
0.00514679
0.00535387
0.00556405
0.00573881
0.005792
0.0055833
0.00501763
0.00448879
0.00538521
0.00646632
0.00787189
0.00977275
0.012408
0.0160758
0.021162
0.0281759
0.0377755
0.0508396
0.0686353
0.0931876
0.128169
0.181012
0.267516
0.420373
0.699764
1.19466
2.10103
0.00443788
0.00521686
0.00615916
0.00740291
0.00911822
0.0115505
0.0150197
0.0199594
0.0269698
0.0368645
0.0507659
0.0703119
0.0981041
0.138801
0.201862
0.308174
0.503829
0.876883
1.53889
2.80723
0.00438748
0.00504732
0.00584832
0.00692153
0.00842854
0.0106083
0.013784
0.0184101
0.0251427
0.0349097
0.0490342
0.0694744
0.0993094
0.143884
0.213668
0.331095
0.543595
0.932729
1.58202
2.371
0.00433941
0.00488325
0.00554668
0.00644973
0.0077396
0.00963778
0.0124516
0.0166256
0.0228227
0.0320134
0.0456235
0.0657946
0.0958603
0.141371
0.212519
0.329617
0.532473
0.883856
1.42936
2.08016
0.00429515
0.00473026
0.00526526
0.00600673
0.00708385
0.00869287
0.0111104
0.0147436
0.0202124
0.0284459
0.0408404
0.0595235
0.0877877
0.130905
0.197869
0.305051
0.481841
0.771213
1.2033
1.75238
0.00425576
0.00459247
0.00501204
0.00560672
0.00648647
0.00781848
0.00983981
0.0129021
0.0175451
0.024586
0.0352658
0.0514933
0.0762176
0.114031
0.172279
0.263124
0.406424
0.629636
0.955338
1.3756
0.0042219
0.00447248
0.00479173
0.00525806
0.00596319
0.00704529
0.00869945
0.0112146
0.015033
0.0208213
0.0295867
0.0428728
0.0630527
0.0937552
0.140518
0.211811
0.320272
0.482525
0.713581
1.01362
0.00419389
0.00437146
0.00460611
0.00496376
0.00552051
0.00638848
0.00772356
0.0097541
0.0128259
0.017452
0.0243909
0.0347785
0.0503233
0.0735802
0.108315
0.159965
0.236071
0.346053
0.498809
0.697165
0.00417179
0.00428941
0.00445426
0.00472208
0.00515707
0.00584966
0.0069223
0.00855126
0.0109984
0.0146435
0.0200316
0.0279452
0.0395065
0.0563135
0.0806056
0.115432
0.164764
0.233334
0.325709
0.444144
0.00415549
0.00422529
0.0043329
0.0045274
0.00486553
0.00542066
0.0062887
0.0076044
0.00956231
0.012438
0.0166165
0.0226283
0.0311884
0.0432345
0.0599447
0.0827158
0.11314
0.153012
0.204087
0.267267
0.00414496
0.00417664
0.00423643
0.00437247
0.00463603
0.00508612
0.00579988
0.00688317
0.00848023
0.0107866
0.0140701
0.0186903
0.0251188
0.0339417
0.0457764
0.0610874
0.0801033
0.103073
0.130557
0.162664
0.00414439
0.00413992
0.00415937
0.00425094
0.00445744
0.00482114
0.00539704
0.00625554
0.00747887
0.0091711
0.0114787
0.0146033
0.0188396
0.0246658
0.0327367
0.0439977
0.0613967
0.0905059
0.140613
0.225549
0.0079882
0.00444463
0.00474327
0.00518327
0.00592126
0.00723187
0.00960869
0.0138199
0.0208338
0.0319218
0.0495979
0.0760072
0.112403
0.16074
0.229138
0.326932
0.457761
0.618187
0.790581
1.0258
0.19015
0.0954284
0.125273
0.150343
0.176749
0.206821
0.241503
0.28179
0.328938
0.384413
0.449223
0.520942
0.574908
0.651763
0.838795
1.0929
1.40062
1.70695
1.88473
2.45031
0.0585203
0.105273
0.161502
0.223598
0.294578
0.373404
0.459052
0.549944
0.646258
0.748263
0.848291
0.917915
0.941399
1.03765
1.10235
1.15692
1.23276
1.3036
1.39577
1.67896
0.0217631
0.0273143
0.0309656
0.0459492
0.0677161
0.095177
0.12847
0.166931
0.209552
0.254964
0.30098
0.346692
0.406695
0.512899
0.576335
0.584021
0.556381
0.510019
0.478099
0.510332
0.0122017
0.0120055
0.00982663
0.0137443
0.0200212
0.0282112
0.0381749
0.0496754
0.0623623
0.0758128
0.0898096
0.105509
0.127975
0.161431
0.188028
0.194073
0.17981
0.152848
0.124651
0.104435
0.00869496
0.0079712
0.00497148
0.00568948
0.00715017
0.00935908
0.012218
0.015555
0.0191657
0.0228596
0.0265514
0.0304384
0.035108
0.040633
0.0445985
0.0441843
0.0389254
0.030767
0.0225374
0.016093
0.00734534
0.00749494
0.00421554
0.00414572
0.00430296
0.00466374
0.00520166
0.00587261
0.00661806
0.0073725
0.00808178
0.00872052
0.00928046
0.00968804
0.00973234
0.00924689
0.00833575
0.00732409
0.00650848
0.00598891
0.00684273
0.00757414
0.0042064
0.00395147
0.00389635
0.00393108
0.00401395
0.00412361
0.00424758
0.00437543
0.00449907
0.00461481
0.0047231
0.00482311
0.00490771
0.00497009
0.00501193
0.0050418
0.00506866
0.00509576
0.00708047
0.00739912
0.00428879
0.00397162
0.00388974
0.00388353
0.00390437
0.0039365
0.00397591
0.00402199
0.00407566
0.00413915
0.00421539
0.00430578
0.0044073
0.00451221
0.00461105
0.00469631
0.00476459
0.00481563
0.00787379
0.00681917
0.00433755
0.00402501
0.00394942
0.00393925
0.00394873
0.00396632
0.00398988
0.00401969
0.00405689
0.00410296
0.00415921
0.00422562
0.00429974
0.00437659
0.00445014
0.0045152
0.00456868
0.0046094
0.0106183
0.0060269
0.00432029
0.00407525
0.00401912
0.00400965
0.00401376
0.00402398
0.00403876
0.00405812
0.00408258
0.00411278
0.00414915
0.00419138
0.00423794
0.00428609
0.00433251
0.00437417
0.00440902
0.00443604
0.00914089
0.00506341
0.00424277
0.00411357
0.00408447
0.00407828
0.00407927
0.00408375
0.00409079
0.00410026
0.00411227
0.004127
0.00414454
0.00416468
0.00418673
0.00420949
0.0042315
0.00425139