/*--------------------------------*- C++ -*----------------------------------*\
| =========                 |                                                 |
| \\      /  F ield         | OpenFOAM: The Open Source CFD Toolbox           |
|  \\    /   O peration     | Version:  v1912                                 |
|   \\  /    A nd           | Website:  www.openfoam.com                      |
|    \\/     M anipulation  |                                                 |
\*---------------------------------------------------------------------------*/
FoamFile
{
    version     2.0;
    format      ascii;
    class       volScalarField;
    location    "36";
    object      nut;
}
// * * * * * * * * * * * * * * * * * * * * * * * * * * * * * * * * * * * * * //

dimensions      [0 2 -1 0 0 0 0];


internalField   nonuniform List<scalar> 
20320
(
0.0347183
0.00759847
0.00766688
0.00773334
0.00779746
0.00785881
0.00791689
0.00797107
0.00802062
0.00806473
0.00810243
0.00813256
0.00815393
0.00816522
0.00816467
0.00814975
0.00811596
0.00805268
0.00793101
0.00771615
0.0352312
0.0352732
0.0354467
0.0356816
0.0359584
0.0362451
0.0365059
0.0367162
0.0368698
0.0369756
0.037054
0.0371178
0.037168
0.0371944
0.0371702
0.0370405
0.0366858
0.0357966
0.0333884
0.0237844
0.0353541
0.0356361
0.0361361
0.0368816
0.0379731
0.0395099
0.0415787
0.0442276
0.047434
0.0510734
0.0549074
0.0586132
0.0618386
0.0642498
0.0655681
0.0655766
0.0640764
0.0607053
0.0540362
0.0350107
0.0355263
0.0361107
0.0369211
0.0379598
0.0393282
0.0411411
0.0435285
0.0466325
0.0505911
0.0554991
0.0613377
0.067879
0.0746211
0.0808073
0.0855416
0.0879543
0.0873196
0.0829251
0.0727238
0.0440968
0.0357341
0.0367043
0.0379026
0.0393034
0.0410001
0.0431024
0.0457389
0.0490642
0.0532599
0.0585249
0.0650345
0.0728359
0.0816761
0.0908261
0.0990307
0.104687
0.106186
0.10201
0.0891148
0.0513523
0.035968
0.0373963
0.0390509
0.0408811
0.0429698
0.0454184
0.0483485
0.0519112
0.0562942
0.0617275
0.0684736
0.0767657
0.086644
0.0976687
0.108617
0.117428
0.121565
0.118381
0.103429
0.0571873
0.0362175
0.0381555
0.0403153
0.0426253
0.045157
0.0480018
0.0512723
0.0551125
0.0597076
0.0652952
0.0721725
0.0806711
0.0910436
0.103171
0.116086
0.127586
0.134385
0.132594
0.116043
0.0620072
0.0364714
0.0389485
0.0416422
0.0444663
0.0474804
0.0507657
0.0544235
0.0585884
0.0634391
0.0692124
0.0762192
0.0848415
0.095467
0.108243
0.122526
0.136194
0.145439
0.145162
0.127304
0.0661703
0.0367181
0.0397401
0.0429748
0.0463293
0.0498528
0.0536168
0.0577096
0.0622535
0.0674171
0.0734313
0.0806102
0.0893614
0.100157
0.113347
0.1286
0.144
0.155418
0.156657
0.137688
0.0698925
0.0369462
0.0404943
0.0442547
0.0481371
0.0521837
0.0564575
0.0610336
0.0660189
0.0715678
0.0778996
0.0853246
0.0942611
0.105234
0.118741
0.13473
0.151536
0.16486
0.167525
0.147532
0.0734365
0.0371449
0.0411764
0.0454247
0.049813
0.0543813
0.0591878
0.0642947
0.0697915
0.0758138
0.0825636
0.0903395
0.0995602
0.110781
0.124611
0.141232
0.15925
0.17429
0.178305
0.157327
0.0770133
0.0373051
0.0417548
0.0464319
0.0512845
0.0563569
0.061708
0.0673896
0.0734732
0.0800723
0.0873654
0.0956312
0.105279
0.116879
0.131122
0.148387
0.167542
0.184202
0.189519
0.167537
0.0808894
0.0374196
0.0422032
0.0472311
0.0524874
0.0580285
0.0639217
0.0702139
0.0769607
0.0842523
0.0922386
0.101171
0.111439
0.123616
0.138448
0.156489
0.176855
0.195181
0.201847
0.178818
0.085373
0.0374836
0.042502
0.0477873
0.0533692
0.0593247
0.065739
0.0726631
0.0801428
0.0882478
0.0970982
0.106912
0.118051
0.131079
0.146787
0.165875
0.187706
0.207948
0.216183
0.192078
0.0909016
0.0374953
0.0426398
0.0480783
0.0538925
0.0601888
0.0670806
0.0746351
0.0828996
0.0919327
0.101829
0.112773
0.125095
0.139342
0.156341
0.176936
0.200739
0.223459
0.233769
0.208605
0.0981681
0.0374557
0.0426143
0.0480958
0.054038
0.0605829
0.0678828
0.0760351
0.0851053
0.0951576
0.106275
0.118617
0.132488
0.148424
0.167293
0.190102
0.21676
0.243068
0.256613
0.230773
0.10855
0.0373685
0.0424316
0.0478461
0.0538059
0.060492
0.0681034
0.0767824
0.0866332
0.0977501
0.11023
0.124229
0.140046
0.158227
0.179717
0.205753
0.236684
0.268568
0.287713
0.262427
0.124732
0.0372401
0.0421065
0.0473501
0.0532165
0.059926
0.0677277
0.0768204
0.0873677
0.0995238
0.113435
0.129293
0.147429
0.168448
0.193441
0.224022
0.261284
0.30207
0.3316
0.310838
0.152551
0.0370789
0.0416612
0.0466413
0.0523093
0.058921
0.0667735
0.0761276
0.0872219
0.1003
0.115599
0.133397
0.154115
0.178489
0.207863
0.244443
0.290602
0.345061
0.393257
0.386869
0.205346
0.0368945
0.0411232
0.0457634
0.05114
0.0575376
0.065294
0.0747276
0.0861584
0.0999389
0.116437
0.136069
0.159412
0.187408
0.221766
0.265513
0.322909
0.3961
0.473366
0.497836
0.300463
0.0352119
0.0269503
0.0303772
0.0324077
0.0339758
0.0362548
0.0398038
0.0448346
0.0510136
0.058518
0.0671038
0.0757228
0.0838934
0.0933285
0.116957
0.135167
0.16385
0.19231
0.215131
0.234132
0.214983
0.196068
0.179161
0.164555
0.151751
0.140886
0.133694
0.129208
0.126226
0.127767
0.136704
0.145729
0.150483
0.149388
0.153413
0.164476
0.189137
0.173254
0.132115
0.114432
0.101699
0.0916454
0.0844569
0.0800435
0.0774001
0.0754951
0.0739308
0.0726458
0.0716923
0.0708332
0.0698125
0.0690787
0.0688566
0.0685653
0.0681899
0.068289
0.0678883
0.0671516
0.0669558
0.0669997
0.0447033
0.424301
0.579957
0.659707
0.716357
0.776391
0.846099
0.920974
0.998052
1.08569
1.19611
1.32492
1.42924
1.48471
1.62734
1.85263
2.15679
2.81828
3.24029
3.32304
3.05095
2.70587
2.41966
2.18983
2.00706
1.85567
1.73498
1.62545
1.51336
1.40483
1.30647
1.22495
1.18105
1.16784
1.1983
1.24198
1.02978
0.63021
0.675262
0.721936
0.666322
0.638753
0.664291
0.72686
0.791257
0.833006
0.852601
0.86349
0.871719
0.875835
0.876007
0.882897
0.898242
0.909691
0.919006
0.924654
0.914338
0.904458
0.917676
0.927109
0.0522118
0.594452
0.938115
1.12322
1.24016
1.33541
1.42683
1.51224
1.59427
1.6973
1.85742
2.07519
2.2917
2.45815
2.69085
3.13374
3.61354
4.32664
4.85609
4.78695
4.32073
3.95558
3.65461
3.39597
3.17055
2.97341
2.79496
2.62215
2.43857
2.23707
2.02349
1.81841
1.66066
1.56628
1.51616
1.45817
1.27899
1.09384
1.08387
1.00679
0.936941
0.950665
1.04798
1.19562
1.33726
1.43654
1.49461
1.53038
1.55748
1.57985
1.60062
1.62673
1.65781
1.68679
1.71175
1.72973
1.73644
1.74112
1.75276
1.76509
0.0600374
0.702605
1.15047
1.41186
1.57391
1.68948
1.78238
1.85759
1.9292
2.0402
2.24451
2.54315
2.8587
3.13669
3.45184
3.97121
4.54568
5.1195
5.63213
5.0934
4.64956
4.34849
4.11349
3.90846
3.7184
3.54108
3.37329
3.20638
3.02454
2.81364
2.56884
2.30433
2.06049
1.87257
1.73865
1.62038
1.47567
1.34865
1.26831
1.20195
1.20788
1.30508
1.47877
1.68038
1.85503
1.97708
2.05451
2.10771
2.1512
2.19066
2.22943
2.2714
2.31553
2.35703
2.3931
2.42146
2.44062
2.4544
2.46715
2.48015
0.0672625
0.813394
1.31449
1.61953
1.81049
1.93868
2.02949
2.0939
2.15881
2.28505
2.53611
2.90849
3.3053
3.66156
4.03509
4.54162
5.13186
5.51421
5.61806
4.96974
4.55349
4.301
4.13553
4.00363
3.87876
3.75621
3.63619
3.51451
3.38053
3.22031
3.02201
2.78518
2.53247
2.29764
2.09754
1.92089
1.75169
1.61485
1.53905
1.53959
1.63222
1.80871
2.03013
2.24379
2.41306
2.53113
2.61199
2.67376
2.72791
2.77888
2.82896
2.88032
2.93196
2.98011
3.02206
3.05638
3.08234
3.10096
3.11477
3.12828
0.0735605
0.925623
1.46187
1.79202
2.00029
2.13548
2.22353
2.28051
2.34503
2.49315
2.79048
3.22648
3.68608
4.08337
4.47128
4.93983
5.39995
5.67556
5.25539
4.6554
4.26745
4.04865
3.93574
3.86959
3.81417
3.7588
3.7029
3.6452
3.58024
3.49775
3.38534
3.23385
3.04856
2.8483
2.65108
2.46129
2.2779
2.13638
2.08244
2.13263
2.27845
2.48354
2.69682
2.87819
3.01401
3.11105
3.18382
3.2454
3.30271
3.35779
3.41162
3.4657
3.51964
3.56971
3.61365
3.6507
3.68008
3.70125
3.71647
3.73248
0.0787277
1.02533
1.59608
1.94711
2.16655
2.304
2.38745
2.43877
2.50712
2.67993
3.02
3.50783
4.00642
4.40871
4.76964
5.17121
5.4948
5.71568
4.83416
4.2701
3.91852
3.7351
3.66661
3.65555
3.66235
3.67235
3.68283
3.69318
3.70095
3.69863
3.67574
3.62036
3.52908
3.40963
3.27602
3.13861
3.00474
2.89822
2.87169
2.93981
3.0808
3.25055
3.40654
3.52938
3.6213
3.6917
3.75145
3.80783
3.86321
3.91739
3.97018
4.02283
4.0768
4.12662
4.171
4.20968
4.24158
4.26445
4.28147
4.30262
0.0841805
1.09678
1.72031
2.0934
2.31951
2.45443
2.52943
2.57337
2.6456
2.8415
3.22016
3.75376
4.26206
4.60474
4.90082
5.20495
5.68735
5.16677
4.3937
3.88285
3.58151
3.45058
3.4362
3.479
3.5392
3.60386
3.67166
3.74259
3.81508
3.87975
3.92785
3.94593
3.92985
3.88473
3.82292
3.75914
3.70516
3.6739
3.68231
3.7495
3.85622
3.96748
4.06102
4.13275
4.1897
4.23848
4.28816
4.34019
4.39308
4.44511
4.49518
4.54289
4.5878
4.63092
4.6731
4.71341
4.75014
4.78145
4.80581
4.82974
0.0908896
1.17873
1.84717
2.23682
2.46389
2.59072
2.65188
2.6834
2.75482
2.96577
3.37322
3.94166
4.44151
4.71793
4.93076
5.26517
5.53996
4.6269
3.96189
3.52615
3.30396
3.25703
3.31773
3.41758
3.51881
3.6194
3.72766
3.84216
3.95996
4.06685
4.15078
4.20764
4.23278
4.2346
4.22253
4.21162
4.21764
4.25611
4.31312
4.38712
4.46914
4.53451
4.57241
4.60195
4.63286
4.6705
4.71342
4.76236
4.81333
4.86304
4.9091
4.95103
4.9962
5.04056
5.08138
5.12221
5.16123
5.19268
5.21876
5.25103
0.0982574
1.28513
1.98578
2.38198
2.60212
2.715
2.75759
2.77125
2.8339
3.04617
3.46245
4.05245
4.49451
4.8037
4.95172
5.46416
4.85567
4.10102
3.55405
3.2294
3.1284
3.19937
3.34683
3.4914
3.60717
3.72183
3.84697
3.97837
4.10997
4.22819
4.32618
4.39588
4.43876
4.46448
4.47918
4.49236
4.523
4.58669
4.66837
4.75001
4.81323
4.85415
4.88502
4.90668
4.94337
4.98474
5.02732
5.07465
5.12407
5.17214
5.21671
5.26018
5.31053
5.35917
5.40166
5.44208
5.4794
5.5096
5.5412
5.58387
0.106259
1.40619
2.13515
2.52941
2.73533
2.82878
2.84815
2.83693
2.87873
3.07547
3.47363
4.05881
4.48532
4.7009
5.02024
5.17515
4.28884
3.64314
3.21722
3.03756
3.09378
3.29299
3.50128
3.64761
3.7585
3.86773
3.98568
4.10962
4.23509
4.3464
4.43988
4.51017
4.55796
4.59229
4.61843
4.6431
4.68233
4.74465
4.81568
4.89362
4.96784
5.02449
5.06979
5.10732
5.15455
5.20219
5.24791
5.29567
5.34474
5.39279
5.43901
5.48717
5.54163
5.5936
5.63831
5.67856
5.71499
5.74837
5.78952
5.8405
0.114737
1.52855
2.28761
2.67743
2.86452
2.93339
2.92529
2.88324
2.89205
3.05483
3.41022
3.9266
4.38532
4.62814
5.19045
4.5905
3.82166
3.27949
2.99311
2.98838
3.21061
3.50089
3.70438
3.82667
3.91425
4.00218
4.0994
4.2032
4.3079
4.4027
4.48222
4.54467
4.59059
4.6265
4.65738
4.68943
4.7343
4.79582
4.86509
4.94548
5.02994
5.10506
5.16835
5.22403
5.28128
5.33504
5.38498
5.43471
5.48484
5.53448
5.5841
5.63704
5.69436
5.74864
5.79556
5.83731
5.87634
5.91719
5.96905
6.02693
0.125117
1.64807
2.44268
2.82774
2.99186
3.03082
2.99152
2.91748
2.89115
3.01445
3.31899
3.75275
4.227
4.72374
5.00998
4.11367
3.44233
3.02169
2.9033
3.08924
3.43969
3.74113
3.89829
3.97611
4.028
4.08526
4.15483
4.23254
4.31145
4.38422
4.44615
4.49697
4.53821
4.57439
4.60979
4.64991
4.70245
4.76916
4.84555
4.93344
5.02731
5.11603
5.19421
5.26405
5.32957
5.38893
5.44337
5.49615
5.54868
5.60127
5.65511
5.71239
5.77221
5.82862
5.87872
5.9246
5.97006
6.02102
6.08328
6.14701
0.132958
1.75944
2.59884
2.98141
3.11991
3.12404
3.05181
2.95036
2.90087
3.00314
3.29049
3.72647
4.32152
5.10511
4.57026
3.73714
3.15872
2.87795
2.95108
3.30822
3.71039
3.94788
4.04374
4.06951
4.07872
4.0993
4.1365
4.18471
4.23644
4.28588
4.33007
4.36979
4.40723
4.44554
4.48779
4.53797
4.60063
4.67659
4.76345
4.8607
4.9631
5.06151
5.15045
5.23018
5.30228
5.36688
5.42611
5.48298
5.53932
5.59622
5.65497
5.71662
5.77942
5.83921
5.89438
5.94716
6.00191
6.06402
6.13586
6.20485
0.132461
1.85546
2.75417
3.14237
3.2534
3.21824
3.11433
2.99551
2.94288
3.05442
3.37327
3.88511
4.68589
5.34438
4.22032
3.44758
2.96482
2.84582
3.11787
3.5831
3.94028
4.09104
4.12059
4.09433
4.05916
4.04005
4.04165
4.05825
4.08254
4.1097
4.13829
4.16974
4.20615
4.24928
4.30064
4.36231
4.43652
4.52329
4.62076
4.72674
4.83596
4.94117
5.03754
5.1242
5.20195
5.27198
5.33677
5.39906
5.4608
5.52341
5.58809
5.65505
5.72245
5.7876
5.84995
5.91191
5.97758
6.05089
6.13146
6.20531
0.134332
1.94137
2.91518
3.31482
3.39791
3.32198
3.19016
3.06736
3.03079
3.17371
3.55112
4.19311
5.19996
4.92831
3.91846
3.21227
2.84331
2.91788
3.36187
3.8412
4.09911
4.16437
4.12744
4.04897
3.96917
3.90934
3.87385
3.85798
3.85541
3.86235
3.87828
3.90462
3.94256
3.99227
4.05361
4.12701
4.21289
4.31042
4.41735
4.53049
4.64486
4.75481
4.85651
4.94887
5.03244
5.10887
5.18052
5.24988
5.31899
5.38923
5.46139
5.53519
5.60913
5.68171
5.75319
5.82592
5.90323
5.98744
6.07615
6.15458
0.140917
2.00561
3.07367
3.49842
3.56202
3.44988
3.29572
3.18066
3.1729
3.35425
3.79001
4.49943
5.61959
4.60139
3.64693
3.01161
2.79309
3.08257
3.6298
4.03532
4.18179
4.16678
4.06701
3.93734
3.813
3.71224
3.63937
3.5912
3.56298
3.55192
3.55773
3.58105
3.62158
3.67793
3.74869
3.83294
3.92971
4.03708
4.15217
4.27128
4.39004
4.50418
4.61086
4.70913
4.79962
4.88397
4.9644
5.04311
5.12179
5.20154
5.28279
5.36513
5.44758
5.52955
5.61176
5.69629
5.78552
5.88033
5.97688
6.05955
0.150205
2.09275
3.22679
3.69645
3.75809
3.62076
3.4527
3.35145
3.37527
3.59045
4.068
4.89007
5.48525
4.27688
3.38649
2.8474
2.82696
3.31123
3.87259
4.14663
4.19091
4.10207
3.94393
3.76494
3.5966
3.45513
3.34528
3.26563
3.21312
3.18568
3.18264
3.20333
3.2459
3.30782
3.38674
3.48064
3.58721
3.70349
3.82595
3.95084
4.07447
4.19363
4.30633
4.412
4.51132
4.60579
4.69723
4.78736
4.87749
4.96837
5.06024
5.1528
5.24559
5.3386
5.43278
5.52974
5.63097
5.7362
5.84031
5.92664
0.162845
2.22159
3.3861
3.91302
3.99444
3.85072
3.68239
3.59617
3.64457
3.88543
4.40434
5.29387
5.07256
3.96596
3.14111
2.73925
2.951
3.55671
4.03848
4.18163
4.13471
3.97749
3.76445
3.53794
3.32629
3.14459
2.99848
2.88834
2.81246
2.76915
2.75704
2.77414
2.81754
2.88393
2.97013
3.07286
3.18854
3.31326
3.44314
3.57458
3.70449
3.8305
3.95125
4.06647
4.17679
4.28339
4.38764
4.49079
4.59376
4.69708
4.80092
4.90521
5.00987
5.11526
5.22224
5.33198
5.44515
5.5605
5.6717
5.76088
0.179971
2.4526
3.5913
4.14366
4.27614
4.15428
3.99898
3.92854
3.99218
4.25045
4.76787
5.67806
4.75007
3.66533
2.92459
2.71054
3.14495
3.78151
4.1169
4.14992
4.02119
3.80055
3.53528
3.26265
3.0084
2.78713
2.60557
2.46565
2.36656
2.30675
2.28437
2.29673
2.34031
2.41103
2.50445
2.61587
2.74048
2.87377
3.01171
3.15098
3.28897
3.42391
3.55484
3.68161
3.80468
3.92489
4.04317
4.16036
4.27712
4.39387
4.51081
4.62804
4.74578
4.86445
4.98475
5.10734
5.23221
5.35719
5.47476
5.56588
0.200344
2.75641
3.86961
4.41022
4.60131
4.53954
4.40168
4.35772
4.43624
4.71197
5.2739
5.74758
4.39023
3.37885
2.76234
2.77552
3.36042
3.93518
4.12236
4.05749
3.85668
3.57782
3.26279
2.94523
2.64907
2.38896
2.17279
2.00353
1.88082
1.80348
1.76997
1.77756
1.82201
1.89782
1.99892
2.11906
2.25265
2.39477
2.54152
2.68981
2.83745
2.983
3.12569
3.26535
3.40223
3.53682
3.66973
3.80153
3.9327
4.0636
4.19452
4.32567
4.45735
4.58991
4.72375
4.85908
4.99523
5.12916
5.25218
5.34442
0.203203
3.04224
4.20165
4.73066
4.93766
4.9506
4.88001
4.88542
5.00355
5.3256
5.86524
5.35974
4.0616
3.14115
2.67961
2.91869
3.54643
4.00312
4.06241
3.9142
3.64885
3.316
2.95323
2.59172
2.25439
1.95654
1.70697
1.50921
1.36324
1.26894
1.22571
1.23048
1.27736
1.35887
1.46728
1.59526
1.73706
1.88767
2.04337
2.20123
2.35929
2.51626
2.67141
2.82446
2.97545
3.12462
3.27234
3.41901
3.565
3.71067
3.85632
4.00218
4.14844
4.29528
4.44275
4.59052
4.73731
4.87923
5.00661
5.09916
0.197985
3.18742
4.50511
5.02287
5.23898
5.29033
5.35157
5.49117
5.68883
6.10066
6.61608
5.1099
3.82827
2.97586
2.68352
3.08438
3.69087
3.98856
3.94817
3.72846
3.405
3.0214
2.61242
2.20769
1.83017
1.49743
1.21828
0.995526
0.830783
0.72568
0.679132
0.68526
0.73531
0.820197
0.931921
1.06367
1.21004
1.36639
1.52943
1.69585
1.86381
2.03185
2.19913
2.36526
2.53007
2.69364
2.85616
3.01788
3.17912
3.34018
3.50125
3.66245
3.82376
3.98504
4.14592
4.30555
4.46195
4.61049
4.74077
4.83271
0.213962
3.19014
4.66507
5.27214
5.55644
5.64712
5.7577
6.05697
6.38692
6.88427
6.53796
4.86396
3.65253
2.86221
2.7431
3.21029
3.75695
3.91596
3.78979
3.50794
3.13144
2.69968
2.24564
1.79889
1.38679
1.02671
0.727786
0.495443
0.334753
0.244517
0.212273
0.222812
0.266982
0.340494
0.440104
0.561985
0.701811
0.855231
1.0185
1.18851
1.36282
1.5398
1.71769
1.89575
2.07361
2.25113
2.42835
2.60534
2.78225
2.95922
3.1362
3.31305
3.48944
3.66482
3.83833
4.00857
4.1729
4.32601
4.45725
4.54741
0.210876
3.23904
4.78587
5.49001
5.8606
6.02576
6.19206
6.61141
7.09815
7.40393
6.18227
4.65277
3.45553
2.74992
2.79924
3.28424
3.75155
3.79237
3.59651
3.25922
2.83347
2.35561
1.85805
1.37665
0.940439
0.571477
0.288759
0.113256
0.0410394
0.0238659
0.0225651
0.0259268
0.0361841
0.0597688
0.104446
0.176192
0.276303
0.401617
0.546928
0.707127
0.878014
1.05642
1.24006
1.42726
1.61669
1.80736
1.99892
2.19114
2.38383
2.57674
2.7695
2.96157
3.1522
3.34039
3.5248
3.70345
3.87311
4.02802
4.15771
4.24465
0.204859
3.30299
4.90692
5.67613
6.05726
6.30954
6.60967
7.1068
7.5544
7.32292
5.79035
4.31476
3.14981
2.61013
2.81426
3.34927
3.68461
3.6354
3.3758
2.98747
2.51542
1.99332
1.46012
0.955436
0.518926
0.196569
0.0402188
0.0191321
0.0380938
0.0432239
0.042664
0.0399356
0.0345559
0.027104
0.0228279
0.0287109
0.05231
0.103264
0.187745
0.304633
0.448144
0.611715
0.789882
0.978481
1.17448
1.37562
1.58035
1.78696
1.99463
2.20252
2.40977
2.61534
2.81805
3.01646
3.20877
3.39251
3.56399
3.71717
3.8422
3.92396
0.201891
3.34568
5.02995
5.7957
6.17426
6.48923
6.87537
7.35693
7.56451
6.766
5.19484
3.77147
2.73693
2.46556
2.80987
3.38523
3.5834
3.44946
3.13233
2.69636
2.18056
1.62087
1.06303
0.558077
0.181957
0.0251057
0.02901
0.0449477
0.0457034
0.0453275
0.0448984
0.0444431
0.0438277
0.0426511
0.0399502
0.0342702
0.0266994
0.0245034
0.0364167
0.0730324
0.145542
0.257582
0.404343
0.577643
0.769705
0.974409
1.18721
1.40487
1.62497
1.8453
2.06414
2.27991
2.49098
2.69557
2.89149
3.07592
3.24477
3.39187
3.50813
3.58153
0.198144
3.28294
5.0735
5.84079
6.23678
6.58221
6.96701
7.30121
7.18188
5.9172
4.40848
3.09427
2.32243
2.36128
2.83905
3.38146
3.44514
3.23921
2.86897
2.38848
1.8325
1.24642
0.682626
0.229193
0.0265228
0.0292582
0.0443689
0.044736
0.0444752
0.044243
0.0440395
0.0438745
0.0437437
0.0436108
0.0433961
0.0428745
0.041412
0.0376194
0.030722
0.0259981
0.0339346
0.0674682
0.142364
0.265482
0.430062
0.623714
0.835381
1.05717
1.28367
1.51108
1.73657
1.95769
2.17213
2.37772
2.57195
2.75173
2.91266
3.04818
3.14953
3.20799
0.20146
3.1405
4.98823
5.78713
6.19112
6.53593
6.84598
6.98668
6.44343
4.96344
3.53534
2.41795
2.02302
2.32451
2.92231
3.32698
3.2815
3.00681
2.58749
2.06546
1.4783
0.879615
0.346861
0.0458165
0.0221287
0.0429472
0.0434946
0.0433214
0.0431583
0.0430502
0.0429728
0.0429305
0.0429221
0.0429438
0.0429937
0.0430513
0.0430568
0.0428455
0.0419023
0.0388928
0.0326789
0.0288219
0.0409729
0.0879404
0.188673
0.343279
0.53593
0.750253
0.974861
1.20246
1.4282
1.64852
1.86042
2.06124
2.248
2.41725
2.56407
2.68096
2.75765
2.78555
0.21251
3.07835
4.79904
5.61816
6.00369
6.29252
6.48396
6.44357
5.40388
3.95507
2.66659
1.86924
1.88436
2.36256
3.02213
3.23339
3.08995
2.75428
2.28914
1.72946
1.12354
0.536015
0.108836
0.012704
0.0408902
0.0425026
0.0423019
0.0421078
0.0419796
0.0419095
0.041883
0.0419022
0.0419648
0.0420675
0.0422065
0.0423749
0.0425639
0.0427597
0.0429116
0.0428412
0.0419054
0.0384392
0.0325258
0.0351506
0.0667947
0.152045
0.297663
0.486174
0.697199
0.916848
1.13651
1.35052
1.55465
1.74533
1.91902
2.07159
2.19728
2.28684
2.32511
2.28875
0.212342
3.08631
4.59875
5.35512
5.6775
5.83371
5.94896
5.61171
4.29269
2.94717
1.90057
1.54376
1.87652
2.4709
3.05041
3.10047
2.87425
2.48259
1.97483
1.38632
0.776776
0.245725
0.0174245
0.0351027
0.0416596
0.0415461
0.0413306
0.0411371
0.0409933
0.0409085
0.040887
0.0409267
0.0410183
0.0411547
0.041332
0.0415474
0.0417972
0.0420775
0.0423848
0.0427052
0.0429632
0.0428097
0.0409884
0.035895
0.0347988
0.0586752
0.134014
0.270905
0.45129
0.652618
0.85953
1.06243
1.25478
1.43151
1.58787
1.71862
1.81656
1.86982
1.85617
1.72745
0.197101
3.03402
4.4017
5.0181
5.22316
5.26623
5.27998
4.47208
3.15735
2.01213
1.35276
1.45234
1.95545
2.62847
3.00681
2.93443
2.63482
2.19208
1.64462
1.04106
0.454148
0.06346
0.0191874
0.040527
0.0407726
0.040624
0.0404801
0.0403291
0.0401967
0.0401057
0.0400714
0.040095
0.0401719
0.0402988
0.040471
0.0406868
0.0409468
0.0412522
0.0416035
0.0420008
0.0424425
0.0428914
0.0431198
0.0421395
0.0379443
0.0353058
0.054419
0.121483
0.247489
0.414684
0.599717
0.78624
0.963626
1.12416
1.26111
1.36739
1.43372
1.44521
1.37394
1.15708
0.187564
2.86429
4.09956
4.57742
4.66507
4.68038
4.39064
3.22744
2.09081
1.27663
1.10874
1.51165
2.09261
2.74727
2.91286
2.73619
2.37237
1.88303
1.30476
0.70267
0.190007
0.0112328
0.0376013
0.0401206
0.0399577
0.0398242
0.0397131
0.0396096
0.0395218
0.0394569
0.0394228
0.0394238
0.0394667
0.0395587
0.0396988
0.0398864
0.0401223
0.0404087
0.0407501
0.0411523
0.0416221
0.0421634
0.0427585
0.0432449
0.0428124
0.0393868
0.0358293
0.0504921
0.107678
0.218326
0.366194
0.527948
0.686292
0.829177
0.946941
1.03004
1.06675
1.03954
0.918322
0.646948
0.18173
2.62082
3.67217
3.98891
4.02225
3.95702
3.1473
2.07464
1.22827
0.873065
1.12542
1.64218
2.27501
2.77026
2.76449
2.50505
2.08614
1.55512
0.960996
0.389844
0.0413139
0.0250474
0.0395566
0.0395175
0.039331
0.0391856
0.0390696
0.0389789
0.0389178
0.038883
0.0388683
0.0388694
0.0388949
0.0389578
0.0390619
0.0392092
0.0394018
0.0396433
0.0399396
0.0402985
0.0407311
0.0412508
0.0418702
0.0425854
0.0432807
0.0433171
0.0407495
0.0365231
0.0457246
0.089553
0.1786
0.299834
0.43079
0.552993
0.652453
0.716869
0.732857
0.682812
0.541354
0.282689
0.180269
2.27854
3.13832
3.29866
3.18189
2.89718
1.93738
1.14265
0.7188
0.810794
1.26253
1.8106
2.46349
2.70864
2.57695
2.24381
1.77655
1.21257
0.624006
0.144054
0.00991696
0.0378632
0.039081
0.0389322
0.0387977
0.0386829
0.0385718
0.0384766
0.0384097
0.0383752
0.0383681
0.03838
0.0384123
0.0384706
0.0385562
0.0386713
0.0388214
0.0390123
0.0392498
0.0395423
0.0399026
0.0403465
0.0408932
0.0415632
0.042365
0.043231
0.0437165
0.0422499
0.0379748
0.0407895
0.0678355
0.128685
0.215111
0.307281
0.385984
0.435433
0.441643
0.391273
0.274891
0.109916
0.167018
1.85898
2.46203
2.5178
2.33301
1.64784
0.989969
0.596431
0.588155
0.948848
1.43257
2.0062
2.55343
2.58396
2.34867
1.95416
1.44507
0.865144
0.317769
0.0252284
0.0294715
0.0386504
0.0385628
0.0384128
0.0383061
0.0382269
0.0381506
0.0380774
0.0380131
0.0379704
0.0379543
0.0379614
0.0379935
0.0380522
0.0381341
0.0382374
0.0383644
0.038519
0.038707
0.0389369
0.03922
0.0395704
0.0400079
0.0405567
0.0412436
0.0420884
0.0430682
0.0439412
0.043728
0.0407583
0.038411
0.0482372
0.0778734
0.12349
0.17081
0.202858
0.205522
0.17062
0.103308
0.0376505
0.157798
1.35649
1.58297
1.54272
1.31935
0.800027
0.484925
0.442508
0.711592
1.1332
1.61618
2.22201
2.51186
2.39433
2.07996
1.63633
1.09502
0.527294
0.0958441
0.0119483
0.0377829
0.0382903
0.0381399
0.037993
0.0378868
0.0378111
0.0377536
0.0377084
0.037669
0.0376414
0.0376277
0.0376275
0.0376479
0.0376942
0.0377657
0.0378604
0.0379774
0.0381165
0.0382793
0.0384702
0.0386967
0.0389697
0.0393044
0.0397218
0.0402487
0.040916
0.041752
0.0427663
0.043873
0.0446645
0.0440559
0.041394
0.040154
0.0455041
0.0566405
0.0665575
0.0669704
0.0548449
0.038161
0.032982
0.168792
0.929686
1.01287
1.03162
0.637154
0.395155
0.353321
0.555389
0.912941
1.31285
1.81526
2.34302
2.38436
2.15734
1.77772
1.29349
0.741598
0.232677
0.0135502
0.0333568
0.0379724
0.0378595
0.0377308
0.0376155
0.0375287
0.0374585
0.0374033
0.037366
0.0373435
0.0373373
0.0373423
0.0373525
0.0373723
0.0374083
0.0374642
0.0375415
0.0376413
0.0377646
0.0379118
0.0380835
0.038282
0.0385108
0.0387779
0.0390965
0.0394862
0.0399729
0.0405882
0.0413644
0.0423253
0.0434609
0.0446764
0.0456601
0.045912
0.0452215
0.0442876
0.0439425
0.0440137
0.0441538
0.0439155
0.0411867
0.218091
0.862207
0.706584
0.455815
0.308973
0.303721
0.476722
0.771841
1.0924
1.49574
2.0307
2.30093
2.18816
1.87581
1.44469
0.931996
0.407255
0.0509998
0.0191539
0.0375787
0.0376343
0.0374755
0.037345
0.0372426
0.0371737
0.037124
0.0370871
0.0370603
0.0370439
0.0370439
0.0370592
0.0370849
0.0371199
0.0371644
0.037219
0.0372861
0.0373687
0.0374706
0.0375946
0.0377433
0.0379187
0.038122
0.0383543
0.0386195
0.0389255
0.039286
0.0397234
0.0402654
0.0409419
0.0417778
0.0427827
0.0439451
0.045215
0.0464745
0.0476198
0.0485469
0.0490349
0.0485259
0.0461299
0.0413795
0.162544
0.313422
0.246702
0.2404
0.312914
0.483804
0.707037
0.944938
1.26256
1.69252
2.13884
2.15923
1.92826
1.55141
1.08554
0.577511
0.144312
0.00894203
0.0356986
0.0374466
0.0372614
0.0371144
0.0369971
0.0369032
0.0368369
0.0367948
0.0367733
0.0367657
0.0367665
0.0367758
0.0367939
0.0368214
0.0368605
0.0369123
0.0369756
0.0370488
0.0371311
0.0372239
0.0373305
0.0374545
0.0376003
0.0377717
0.0379713
0.0382008
0.0384612
0.0387548
0.0390881
0.0394749
0.0399348
0.0404912
0.0411641
0.041965
0.042884
0.0439048
0.0449701
0.0459447
0.0465437
0.0462333
0.0442829
0.040311
0.036697
0.0405234
0.0447667
0.0497758
0.055856
0.0633741
0.0726939
0.0842076
0.0983801
0.115731
0.136858
0.162545
0.193995
0.233326
0.284429
0.353636
0.447182
0.557157
0.620485
0.457333
0.03649
0.0398862
0.0436912
0.0482704
0.0539421
0.0610889
0.0701023
0.0814254
0.0956173
0.113346
0.135405
0.16281
0.197031
0.240516
0.297714
0.376162
0.484116
0.614086
0.698957
0.587785
0.0362803
0.0392231
0.0425592
0.046659
0.0518449
0.0585028
0.067031
0.0778915
0.0916973
0.109228
0.131448
0.159589
0.195338
0.241295
0.301885
0.384273
0.495584
0.627539
0.725309
0.647523
0.0360758
0.0385602
0.0414154
0.0450056
0.0496497
0.0557268
0.0636243
0.0737884
0.0868284
0.103561
0.125048
0.152664
0.188228
0.234299
0.294799
0.375502
0.481436
0.605733
0.709245
0.711537
0.0358836
0.0379225
0.0403044
0.0433772
0.0474492
0.0528846
0.0600494
0.0693498
0.0813356
0.0967686
0.116689
0.142492
0.176006
0.21963
0.276629
0.351271
0.446885
0.558859
0.66405
0.720769
0.0357095
0.0373314
0.0392654
0.0418354
0.0453322
0.0500995
0.0564779
0.0648249
0.0755984
0.0894278
0.107204
0.130181
0.160047
0.198948
0.249549
0.314942
0.397403
0.494551
0.594393
0.674487
0.0355574
0.0368031
0.0383289
0.0404293
0.0433739
0.0474813
0.0530656
0.0604412
0.0699737
0.0821288
0.0975609
0.117237
0.142523
0.175192
0.217371
0.271351
0.338861
0.419161
0.506593
0.589924
0.03543
0.0363482
0.0375148
0.0391925
0.0416293
0.0451158
0.0499393
0.0563799
0.0647346
0.0753301
0.0885802
0.105096
0.12579
0.151913
0.185006
0.226733
0.278467
0.3404
0.41036
0.483324
0.0353284
0.0359717
0.0368306
0.0381394
0.040128
0.0430584
0.0471882
0.0527701
0.0600573
0.0692926
0.0807243
0.0946694
0.111592
0.132161
0.157245
0.187831
0.224831
0.268717
0.319016
0.373924
0.0352528
0.0356728
0.0362711
0.0372644
0.0388736
0.0413319
0.0448658
0.0496992
0.0560531
0.0641288
0.0741064
0.0861592
0.10048
0.117304
0.136909
0.159576
0.185554
0.215069
0.248182
0.284499
0.0352034
0.0354427
0.0358176
0.0365494
0.0378508
0.0399221
0.0429627
0.0471698
0.0527238
0.0597813
0.0684863
0.0789694
0.0913468
0.105703
0.121991
0.139906
0.158946
0.178721
0.198675
0.215765
0.0350934
0.0352334
0.0353224
0.0356578
0.0363867
0.0376119
0.0394271
0.0419011
0.0450482
0.0488434
0.0532277
0.0580758
0.0632607
0.0683405
0.0721507
0.0734102
0.0725001
0.0767
0.0912081
0.118453
0.0114598
0.0210063
0.0146013
0.0111856
0.00947494
0.00906065
0.00996042
0.0124821
0.0170786
0.0242674
0.0348543
0.0493492
0.0678093
0.0905034
0.118448
0.1527
0.192686
0.236144
0.279924
0.330825
0.0386208
0.0276312
0.0417137
0.0555147
0.0699538
0.085142
0.100961
0.117622
0.135475
0.154813
0.175664
0.197391
0.215948
0.241424
0.286831
0.342838
0.401217
0.450642
0.483173
0.551781
0.0253784
0.0500322
0.0692066
0.0900026
0.112125
0.135239
0.159015
0.183159
0.20763
0.232316
0.256138
0.27648
0.294346
0.326075
0.353937
0.3802
0.402995
0.415068
0.430293
0.465102
0.0157038
0.0309991
0.0371323
0.0481981
0.0622704
0.0779663
0.0950249
0.112991
0.131308
0.14938
0.166867
0.185196
0.210363
0.243576
0.266767
0.276854
0.275118
0.262976
0.249592
0.243922
0.0102051
0.0166698
0.0238903
0.0307053
0.038631
0.0479624
0.0580777
0.0684646
0.0787247
0.0885972
0.0982445
0.108864
0.122414
0.137834
0.14964
0.152815
0.146085
0.131327
0.112849
0.0938433
0.00829435
0.0110487
0.0203982
0.0251215
0.0262208
0.028956
0.0331332
0.0380426
0.0431142
0.0479677
0.0524674
0.056743
0.0608504
0.0641324
0.0654081
0.0632314
0.0571633
0.048485
0.0394989
0.0320325
0.00806035
0.0101428
0.0207336
0.0303691
0.0302677
0.0288241
0.0279934
0.0278997
0.0283601
0.0291174
0.0299424
0.0306563
0.0310805
0.0310315
0.0305104
0.0297676
0.0293285
0.0299064
0.0318868
0.0347869
0.00861794
0.0102097
0.0207698
0.0327116
0.0343378
0.0339931
0.0335504
0.0331311
0.0327895
0.0325799
0.0325383
0.0326848
0.033037
0.0336301
0.0345199
0.0357117
0.0370766
0.0383792
0.0394179
0.0401251
0.00920851
0.0105167
0.0221101
0.0336364
0.0350136
0.0350009
0.0350173
0.0350784
0.0351742
0.0353149
0.0355179
0.0358019
0.0361813
0.0366566
0.0372026
0.0377679
0.0382906
0.0387236
0.0390487
0.0392709
0.00800641
0.0113665
0.0255037
0.0345733
0.0351659
0.0351275
0.035159
0.0352329
0.0353363
0.0354703
0.0356407
0.0358545
0.0361165
0.0364245
0.0367641
0.0371098
0.0374327
0.0377095
0.0379281
0.0380855
0.00906753
0.0137614
0.0306972
0.0352354
0.0352339
0.0351782
0.0351892
0.0352315
0.0352958
0.0353816
0.0354909
0.0356267
0.0357903
0.0359794
0.0361862
0.0363972
0.036597
0.036772
0.0369137
0.0370184
0.0120594
0.0217324
0.0347903
0.035346
0.0352222
0.0351853
0.0351851
0.0352019
0.0352307
0.0352705
0.0353218
0.0353854
0.0354614
0.0355487
0.0356438
0.0357413
0.0358343
0.0359167
0.0359845
0.0360355
0.0613275
0.0791336
0.0885547
0.0972531
0.105071
0.110335
0.113259
0.114296
0.113826
0.112771
0.111758
0.110456
0.109197
0.108355
0.108581
0.27157
0.313492
0.482884
0.645977
0.741516
0.784043
0.801591
0.802746
0.792318
0.773513
0.748792
0.720582
0.690758
0.66039
0.629297
0.504651
0.332218
0.367319
0.475277
0.580598
0.638856
0.65816
0.65821
0.649603
0.637405
0.624147
0.611546
0.60132
0.59571
0.59791
0.612526
0.504756
0.434284
0.413688
0.419735
0.439495
0.467031
0.495659
0.522765
0.547528
0.570017
0.591103
0.612308
0.635251
0.660163