/*--------------------------------*- C++ -*----------------------------------*\
| =========                 |                                                 |
| \\      /  F ield         | OpenFOAM: The Open Source CFD Toolbox           |
|  \\    /   O peration     | Version:  v1912                                 |
|   \\  /    A nd           | Website:  www.openfoam.com                      |
|    \\/     M anipulation  |                                                 |
\*---------------------------------------------------------------------------*/
FoamFile
{
    version     2.0;
    format      ascii;
    class       volScalarField;
    location    "36";
    object      p;
}
// * * * * * * * * * * * * * * * * * * * * * * * * * * * * * * * * * * * * * //

dimensions      [1 -1 -2 0 0 0 0];


internalField   nonuniform List<scalar> 
20320
(
419522
429775
429802
429853
429925
430013
430115
430230
430353
430484
430617
430750
430881
431005
431120
431224
431314
431387
431443
431477
399599
409511
409546
409599
409672
409761
409864
409979
410103
410234
410368
410501
410632
410756
410871
410974
411062
411132
411183
411212
380274
389875
389911
389965
390038
390127
390231
390346
390470
390600
390734
390866
390996
391119
391232
391334
391420
391489
391539
391571
361550
370852
370886
370940
371013
371101
371204
371318
371441
371571
371703
371834
371962
372083
372194
372294
372378
372447
372497
372532
343412
352422
352456
352509
352580
352667
352768
352881
353003
353130
353260
353390
353516
353634
353743
353840
353923
353991
354042
354080
325848
334573
334606
334658
334727
334812
334911
335021
335140
335264
335392
335518
335641
335757
335863
335957
336037
336103
336155
336195
308845
317290
317322
317372
317439
317520
317616
317722
317837
317957
318080
318203
318321
318433
318535
318625
318702
318765
318816
318859
292390
300562
300593
300640
300703
300781
300871
300972
301080
301195
301311
301428
301540
301646
301742
301826
301898
301958
302006
302050
276473
284377
284405
284448
284507
284579
284662
284755
284856
284961
285069
285176
285279
285376
285463
285539
285604
285657
285702
285745
261080
268722
268747
268786
268839
268903
268978
269061
269150
269243
269338
269432
269521
269604
269678
269742
269795
269839
269878
269919
246202
253586
253607
253641
253686
253741
253804
253874
253948
254025
254102
254177
254246
254309
254363
254408
254444
254474
254504
254539
231829
238960
238977
239004
239040
239083
239132
239185
239240
239295
239348
239397
239438
239472
239497
239512
239522
239529
239543
239567
217950
224833
224846
224865
224890
224919
224950
224983
225014
225041
225062
225075
225078
225070
225051
225023
224991
224962
224949
224955
204555
211195
211201
211212
211224
211237
211248
211256
211258
211250
211231
211197
211147
211080
210998
210904
210807
210720
210663
210634
191635
198036
198037
198037
198036
198031
198019
197999
197966
197917
197848
197754
197635
197487
197313
197120
196921
196739
196605
196512
179181
185348
185342
185332
185316
185291
185255
185203
185132
185035
184906
184740
184531
184275
183974
183632
183271
182927
182656
182446
167180
173119
173106
173086
173054
173010
172948
172863
172750
172600
172404
172153
171836
171442
170967
170410
169793
169168
168634
168190
155623
161338
161319
161288
161242
161178
161090
160972
160816
160612
160345
160000
159559
159000
158301
157446
156436
155322
154255
153276
144497
149996
149971
149930
149870
149787
149675
149525
149328
149070
148733
148293
147721
146979
146018
144782
143211
141277
139097
136730
133790
139079
139049
138999
138927
138827
138692
138514
138280
137974
137572
137044
136348
135427
134197
132538
130272
127138
122784
116621
121573
124459
124609
124578
124311
123951
123455
122762
121801
120613
119216
117733
116586
116061
112535
107716
105529
107638
118223
162347
218423
208608
183850
159672
129313
104232
85289.5
72655.5
65020.3
58583.6
56519.5
47451.9
39685.9
32979
22806.1
19185.5
18993.8
18996
17573
19620.7
20406.7
26839.3
29292.2
30434.4
31047.9
31208
31182.1
31216.4
31175
31017.3
30380.7
29986.6
30404.6
30244.2
29263
29686
27772
26692.8
26882.7
27171.3
116772
119262
119334
119266
119055
118778
118299
117559
116576
115445
114222
113178
113098
114668
113874
108305
106948
103877
105639
128159
178492
185663
171211
148243
121457
98861.1
79793.7
67469.9
60681.5
54135
48446.3
43129.2
36525.5
30775.1
23867.3
19089.6
18984.2
18990.3
18757.9
18774.9
18490.3
21635.8
24091.8
25310.1
25915.6
26210.4
26368.5
26241.5
25988.7
25820.5
25903.3
25799.6
25226.9
25156.6
24918.7
24073.6
24294.2
25152.7
24163.4
23575.3
111724
114677
114664
114485
114342
114040
113510
112615
111731
110711
109597
108752
108653
110222
110361
107051
103806
101836
100806
124644
165624
163204
150206
131764
109817
89857.9
75124.2
64530
55841.9
47655.6
40537.8
35010.9
29413.8
24672.7
22616
19686.7
18963.8
19005.9
18845.1
18779.7
17201.9
17754.9
19460.8
20438.7
20928
21178.2
21271
21160.8
20910.4
20722.7
20684.1
20560.4
20159.3
19927.9
19718.7
19217.3
19150
19643.1
19156.7
18607.2
106086
109274
109269
109243
109170
108892
108544
107985
107077
105982
104882
103939
103483
104977
103549
100042
98736.7
100876
103001
130590
147505
144331
132969
116256
96983
78975.5
64668.5
54229.8
45723.9
38870.5
32900.9
27855.8
23234.3
19307.6
17236
16740.2
17398.9
18984.3
18816.4
17283.3
14371.3
14236.8
15025.3
15653.7
15962.8
16104.9
16124.4
15997.7
15768.3
15552.6
15412.4
15221.6
14920.8
14691.4
14459.6
14143.3
14076.4
14242.4
13953.4
13459.3
100400
103578
103706
103978
104058
104016
103789
102907
101971
100894
99857.7
99187.3
97612.2
98661
101108
99231.1
98844.9
99284.9
100689
129810
129858
125475
114779
99371.9
81933.4
65730.8
52694.5
43043.3
35609.6
29643.9
24629
20361.7
16693.2
13653.3
11831.7
11417.6
12155.5
13458.9
13437
12530.8
11087.8
10442
10625.3
10932.3
10990.5
10987.7
10920.1
10756.6
10524.5
10272.8
10048.2
9816.91
9572.14
9366.85
9144.88
8911.55
8826.21
8889.02
8710.54
8179.69
94796.5
97780.5
98545.5
99185.3
99388.3
99350.8
98762.6
97868.6
96859.7
95777.2
94785.9
95073.7
93314.7
95564.6
97547
100376
97644.4
95907.4
101062
114640
111610
105797
95097.4
80604.6
64861.4
50572.4
39200.7
30747.3
24483.9
19519.3
15593.2
12237.8
9727.49
7674.89
6282.74
5921.61
6532
7498.72
8077.65
7756.03
6816.23
6296.73
6182.69
6280.77
6023.88
5858.02
5680.32
5457.98
5213.14
4906.71
4587.1
4302.8
4122.13
3970
3741.55
3545.3
3460.18
3591.26
3549.28
2767.4
90139
93034.7
93918.1
93866.3
93945.7
93979.9
93699.1
92978.8
91914.1
90655.5
89189.1
89637.6
89727.7
95541.5
96053.2
100443
92168.1
99867.2
100699
98232.3
93084.3
85329.9
73878.1
59754
45468.5
33236.9
23885.3
17015
12161.6
8144.48
5465.18
2906.4
1560.87
1234.44
1087.25
862.95
662.602
979.866
1791.59
2123.83
1911.99
1989.14
1662.8
1613.05
864.195
747.131
673.587
551.036
475.988
385.185
241.108
82.4773
2.89383
-0.458969
0.525865
1.32969
1.40872
1.4881
18.4567
17.4859
84672.9
88375
88347.8
88269.1
88389.4
88561.4
88525.7
88201.2
87415
85884.4
83354.1
81499.3
81804.7
90826.2
91417.6
90009
96733.5
100278
91075.8
82550.9
74515.9
64334.9
51403.4
36971.4
23430.5
12783.8
6245.82
2095.96
661.927
153.978
6.09743
1.64588
-8.32454
-23.3326
-36.0519
-70.7352
-237.498
-670.694
-984.304
-631.088
-178.247
-50.5548
-38.6829
-28.9573
-14.404
-20.1165
-18.6917
-17.0528
-15.5824
-14.1299
-12.5258
-9.74531
-2.58247
-5.12291
-5.50497
-5.23634
-5.54284
-8.22954
-3.2845
7.55361
78559.2
82209.1
82361.7
82447.3
82680.8
83043.9
83252.6
83227.3
82934.2
81767.8
79492.2
80408.8
80430.2
81238.4
90596.9
92129.6
94608.2
90069.3
78211.6
67324
56183.4
43277.6
27969.2
10893.1
1548.39
57.7688
19.1016
25.0753
11.2857
3.51547
1.57385
-8.94612
-16.5697
-29.2835
-41.8148
-56.5487
-63.6067
-75.442
-93.8386
-69.302
-45.4183
-43.8171
-40.3079
-37.1623
-26.3981
-25.0503
-23.8025
-22.4031
-21.053
-19.7119
-18.1489
-15.5448
-11.4479
-11.344
-11.4159
-11.226
-11.2275
-11.6329
-8.19299
-0.719636
72311.2
75850.1
76093
76350.5
76744
77313.9
77817.2
78119.2
78399.3
77548
78022.9
80314.5
80381.3
81038.8
86704.8
91678.6
90531.6
78607.6
65688.1
52429.4
38403.7
22294.7
3731.68
48.3368
29.6849
21.5513
12.1686
6.90082
-2.01402
-8.0658
-11.3474
-17.8594
-25.102
-35.3787
-47.2494
-60.7163
-72.1913
-81.0624
-83.0404
-73.7002
-62.7071
-54.4072
-47.406
-42.2658
-35.0661
-31.9535
-30.2496
-28.7875
-27.3955
-25.9758
-24.3382
-22.0068
-19.0641
-18.0691
-17.746
-17.4379
-17.1348
-16.5679
-13.4818
-7.7399
65914.4
69382.7
70005.6
71180.2
72017.5
72364.4
72588.8
72953.5
73425.1
73352.1
74874.5
80158.4
80293.6
80324.9
84665.8
85636.6
79703.8
67204.5
53208.3
37937.9
21219.4
2773.12
44.2019
17.1043
12.5729
3.47135
-4.08061
-9.17066
-14.2309
-18.8956
-22.3537
-27.3715
-33.7725
-42.4067
-52.7498
-64.2074
-74.3826
-81.8505
-84.6935
-78.9481
-69.8406
-61.7338
-54.5878
-48.8576
-42.9341
-39.2624
-37.0984
-35.4553
-33.9648
-32.4659
-30.8022
-28.7149
-26.3752
-25.046
-24.3926
-23.8986
-23.3171
-22.2322
-19.4262
-14.7938
59311.1
62817.4
64270
65711.6
66813.7
67393
67487.3
67763.1
68101.2
68602.9
69549.6
79216.9
80253.8
78466.7
81158.6
79463.6
69177.9
56060.9
40835.5
23839.4
4667.93
22.8869
3.44942
-1.49536
-8.55092
-14.8012
-19.712
-23.4117
-26.6965
-29.9955
-32.9451
-36.9545
-42.3845
-49.7067
-58.5824
-68.2826
-77.0591
-83.4041
-85.9859
-82.7128
-75.867
-68.5408
-61.6671
-55.8279
-50.5223
-46.724
-44.2332
-42.3734
-40.7459
-39.1647
-37.4936
-35.5834
-33.5908
-32.1736
-31.3028
-30.6317
-29.8402
-28.51
-25.9412
-22.0801
52612.4
55582.2
57073.3
59138.3
60698.8
61444.6
61784.1
62079.9
62378.1
63016.6
64037.7
69582.1
77343.6
69237.8
77927.3
70122.1
59077.3
45070.8
28760.7
9564.32
69.8102
-16.1196
-16.0166
-22.5489
-27.5019
-31.5264
-34.6154
-36.912
-38.9
-40.9931
-43.2782
-46.4763
-51.006
-57.1643
-64.6888
-72.8452
-80.2581
-85.6776
-88.0537
-86.1874
-81.0897
-74.8072
-68.5286
-62.927
-58.0187
-54.2533
-51.561
-49.495
-47.718
-46.0575
-44.3874
-42.6111
-40.8402
-39.4326
-38.4388
-37.6314
-36.7053
-35.2897
-32.9589
-29.7071
48931.7
51389
52679.1
54028
54756.2
55528.1
55961.8
56655.3
57123.3
57527.3
58139
59808.4
59068.1
72214.9
78230.5
61828.8
49367.7
34443.4
16829.6
573.582
-29.952
-29.5096
-35.6133
-40.3642
-43.9311
-46.5783
-48.3771
-49.5606
-50.5449
-51.7202
-53.3374
-55.8133
-59.5398
-64.682
-70.989
-77.7645
-83.9478
-88.5599
-90.7267
-89.7089
-85.9499
-80.7497
-75.1952
-70.0159
-65.4629
-61.8066
-58.9994
-56.7612
-54.8537
-53.1291
-51.4685
-49.7973
-48.184
-46.8276
-45.7785
-44.8832
-43.8891
-42.49
-40.4084
-37.6691
45567
47961.1
48699.6
48546.6
49029.3
49759.5
50163.7
50860.9
51725.1
52132.1
52257.6
52843.2
56505.8
68204.6
66914.7
53566.9
40084.8
24327.7
4951.41
-31.1659
-40.682
-46.4206
-51.838
-55.529
-58.1801
-59.9544
-60.8924
-61.2755
-61.5205
-62.0183
-63.0524
-64.9425
-67.9745
-72.2185
-77.4149
-82.9677
-88.096
-92.0032
-93.973
-93.4868
-90.7179
-86.4845
-81.7028
-77.0467
-72.8606
-69.3425
-66.4798
-64.1273
-62.1321
-60.3678
-58.7273
-57.146
-55.6572
-54.3689
-53.3086
-52.3699
-51.3567
-50.0315
-48.2038
-45.9003
41382.9
42535.4
41524.4
42027.7
43396.7
44005.6
44608.5
44948.6
45513.7
45939.3
46141
47962.8
49802.7
58388.5
56909.9
44995.2
31138
14426.3
182.599
-47.8685
-54.434
-60.9646
-65.4616
-68.5294
-70.6414
-71.8137
-72.1727
-72.0444
-71.819
-71.8594
-72.4534
-73.8636
-76.282
-79.7175
-83.9314
-88.4576
-92.6939
-95.9916
-97.7655
-97.6064
-95.5626
-92.1655
-88.1205
-84.0073
-80.1793
-76.8162
-73.9636
-71.5698
-69.5384
-67.7645
-66.1563
-64.6562
-63.2724
-62.0573
-61.0175
-60.073
-59.0753
-57.8479
-56.2593
-54.3284
34505.5
36710.9
38420.5
39523.6
38638.9
38572.6
39055.8
39345.7
39346.9
39567.7
40045.4
41326.8
47639.5
50103.8
46756.6
36190.6
22593.1
4839.75
-34.3825
-60.8432
-67.8203
-73.4457
-77.2387
-79.9178
-81.597
-82.3366
-82.3618
-81.975
-81.5018
-81.2631
-81.5374
-82.5503
-84.4373
-87.1757
-90.565
-94.2439
-97.7336
-100.507
-102.074
-102.101
-100.583
-97.87
-94.4757
-90.8742
-87.3914
-84.2193
-81.4492
-79.084
-77.0643
-75.3091
-73.7449
-72.3215
-71.0299
-69.8903
-68.8934
-67.9724
-67.0146
-65.8908
-64.5125
-62.8867
28033.4
31693.7
32642.6
33174.4
33384.4
33236.1
33382.6
33428.6
33233.5
33132.9
33222.6
34876.8
39123.2
42294.1
37012.7
27717.2
14426.4
382.183
-70.4452
-73.1979
-80.0692
-84.5337
-87.769
-90.0368
-91.3186
-91.7961
-91.6848
-91.2099
-90.6344
-90.2441
-90.2982
-90.9966
-92.4435
-94.6089
-97.33
-100.317
-103.183
-105.493
-106.843
-106.962
-105.822
-103.645
-100.8
-97.6612
-94.5236
-91.5846
-88.9568
-86.6731
-84.7027
-82.9905
-81.4812
-80.1317
-78.925
-77.8617
-76.921
-76.0453
-75.1458
-74.1249
-72.9219
-71.5396
21438.3
26771.4
24304.1
24420.8
25895.6
27279.5
27754.7
27629.3
27237.9
26811.6
26408.4
25017.2
34400.6
33580.6
28694.8
20019.7
6733.78
-19.9645
-82.8152
-86.2468
-91.2179
-94.7077
-97.3889
-99.177
-100.151
-100.498
-100.354
-99.8788
-99.2919
-98.844
-98.7664
-99.2345
-100.335
-102.044
-104.225
-106.643
-108.979
-110.879
-112.015
-112.169
-111.296
-109.535
-107.148
-104.43
-101.638
-98.9581
-96.5087
-94.3408
-92.4475
-90.7975
-89.3518
-88.0759
-86.9497
-85.9617
-85.085
-84.2681
-83.4391
-82.5209
-81.4648
-80.2704
15046.5
20267.3
17921.6
20184.2
22227.5
22651.9
22474.2
22086
21542.4
20821.1
17822
21699.9
26754.3
26530.5
21466.3
13301.7
1129.84
-98.6204
-93.0491
-97.9764
-101.504
-104.231
-106.31
-107.651
-108.406
-108.682
-108.544
-108.112
-107.572
-107.133
-106.995
-107.309
-108.147
-109.492
-111.233
-113.177
-115.066
-116.612
-117.552
-117.708
-117.026
-115.591
-113.589
-111.25
-108.788
-106.372
-104.118
-102.086
-100.29
-98.7169
-97.3423
-96.1403
-95.0913
-94.177
-93.368
-92.6177
-91.8657
-91.0475
-90.12
-89.0787
9276.66
12306.2
12905.2
12353.8
11913.1
10871.9
16099.6
16832.7
16225.8
15449.1
11851.2
16338.6
19702
19831.9
15308.7
7433.71
18.672
-98.771
-104.873
-108.626
-111.155
-113.224
-114.732
-115.72
-116.31
-116.53
-116.41
-116.046
-115.583
-115.196
-115.049
-115.267
-115.912
-116.97
-118.353
-119.904
-121.418
-122.664
-123.43
-123.568
-123.026
-121.85
-120.171
-118.165
-116.008
-113.848
-111.794
-109.91
-108.224
-106.739
-105.441
-104.314
-103.339
-102.497
-101.756
-101.077
-100.404
-99.6815
-98.8686
-97.9573
8767.37
8993.15
9288.23
10288.3
9403.51
8954.66
9109.5
11478.8
11492.3
9767.58
10150.6
10565.3
16371.6
14264.6
10217.2
2890.69
-77.5484
-113.627
-115.739
-118.41
-120.286
-121.791
-122.841
-123.563
-124.019
-124.191
-124.096
-123.804
-123.43
-123.114
-122.989
-123.155
-123.662
-124.496
-125.589
-126.819
-128.023
-129.015
-129.628
-129.74
-129.298
-128.327
-126.918
-125.202
-123.32
-121.401
-119.543
-117.813
-116.244
-114.853
-113.637
-112.585
-111.683
-110.909
-110.238
-109.63
-109.036
-108.403
-107.694
-106.898
8676.13
8680.59
8725.65
9128.33
9074.77
8599.26
8513.62
8544.89
8678.85
9054.76
9468.75
9498.62
10701.8
9776.15
6076.78
312.417
-134.509
-122.755
-125.858
-127.631
-129.021
-130.065
-130.783
-131.312
-131.66
-131.794
-131.722
-131.496
-131.208
-130.969
-130.882
-131.025
-131.432
-132.093
-132.954
-133.922
-134.869
-135.651
-136.131
-136.211
-135.843
-135.035
-133.848
-132.381
-130.744
-129.047
-127.377
-125.798
-124.351
-123.059
-121.926
-120.949
-120.116
-119.409
-118.804
-118.266
-117.748
-117.202
-116.589
-115.895
8644.54
8658.91
8669.94
8737.38
8427.31
8436.73
8500.55
8528.18
8616.39
8815.14
9314.56
6855.61
7348.62
6300.82
2791.32
-72.9564
-127.411
-133.547
-135.292
-136.497
-137.481
-138.173
-138.668
-139.062
-139.329
-139.434
-139.381
-139.212
-139.003
-138.839
-138.795
-138.926
-139.257
-139.78
-140.456
-141.213
-141.949
-142.555
-142.921
-142.969
-142.653
-141.974
-140.971
-139.716
-138.296
-136.801
-135.306
-133.874
-132.548
-131.356
-130.307
-129.402
-128.635
-127.991
-127.449
-126.975
-126.529
-126.065
-125.544
-124.947
8627.11
8652.19
8653.82
8427.31
8392.94
8400.58
8449.53
8484.28
8541.48
8652
8444.5
5605.75
5203.63
3795.2
681.593
-122.778
-143.767
-143.367
-144.333
-145.121
-145.774
-146.22
-146.578
-146.882
-147.092
-147.177
-147.146
-147.037
-146.901
-146.799
-146.788
-146.904
-147.169
-147.579
-148.103
-148.688
-149.254
-149.714
-149.985
-150.001
-149.723
-149.146
-148.295
-147.219
-145.988
-144.673
-143.341
-142.049
-140.842
-139.747
-138.779
-137.944
-137.239
-136.653
-136.167
-135.752
-135.371
-134.986
-134.555
-134.054
8523.92
8550.77
8508.57
8348.15
8372.98
8383.37
8409.24
8436.33
8469.93
8518.76
7665.41
4412.76
3799.53
1991.57
-231.452
-167.619
-151
-152.514
-153.063
-153.58
-153.991
-154.291
-154.569
-154.816
-154.988
-155.063
-155.054
-154.989
-154.912
-154.859
-154.869
-154.973
-155.186
-155.505
-155.908
-156.352
-156.777
-157.117
-157.307
-157.294
-157.043
-156.547
-155.82
-154.897
-153.829
-152.676
-151.493
-150.332
-149.238
-148.236
-147.346
-146.576
-145.927
-145.391
-144.953
-144.589
-144.267
-143.955
-143.615
-143.219
8309.23
8341.03
8299.32
8318.3
8344.17
8358.79
8373.77
8394.89
8415.93
8538.17
5097.35
3801.04
2808.51
647.79
-136.861
-156.871
-161.143
-161.374
-161.636
-161.964
-162.224
-162.447
-162.681
-162.89
-163.029
-163.092
-163.099
-163.075
-163.04
-163.022
-163.047
-163.139
-163.31
-163.558
-163.865
-164.199
-164.514
-164.758
-164.88
-164.837
-164.603
-164.17
-163.546
-162.751
-161.825
-160.814
-159.766
-158.728
-157.739
-156.825
-156.007
-155.299
-154.7
-154.206
-153.806
-153.482
-153.21
-152.965
-152.72
-152.444
8290.44
8287.71
8285.72
8298.81
8320.75
8333.11
8343.63
8359.15
8397.89
8175.42
3998.13
3368.15
2000.63
-209.185
-163.805
-170.076
-170.198
-170.043
-170.165
-170.369
-170.544
-170.731
-170.936
-171.109
-171.216
-171.273
-171.3
-171.304
-171.299
-171.304
-171.337
-171.419
-171.556
-171.748
-171.979
-172.227
-172.454
-172.623
-172.691
-172.625
-172.402
-172.016
-171.471
-170.782
-169.977
-169.093
-168.168
-167.241
-166.349
-165.516
-164.766
-164.112
-163.556
-163.097
-162.727
-162.433
-162.199
-162.009
-161.857
-161.73
8283.81
8283.85
8277.64
8282.38
8299.74
8309.87
8317.18
8324.72
8388.35
6748.95
3659.99
2957.75
1199.18
-506.569
-186.681
-178.472
-178.833
-178.714
-178.752
-178.863
-178.992
-179.162
-179.343
-179.471
-179.559
-179.621
-179.66
-179.681
-179.696
-179.715
-179.753
-179.825
-179.935
-180.081
-180.253
-180.432
-180.591
-180.7
-180.726
-180.641
-180.428
-180.079
-179.597
-178.992
-178.288
-177.514
-176.697
-175.871
-175.068
-174.312
-173.625
-173.019
-172.499
-172.067
-171.718
-171.443
-171.232
-171.08
-171.005
-171.067
8260.78
8277.1
8269.81
8265.28
8268.25
8285.18
8278.39
8297.6
8196.74
4461.63
3629.38
2486.17
372.614
-152.03
-189.197
-188.041
-187.705
-187.458
-187.432
-187.486
-187.594
-187.754
-187.89
-187.993
-188.073
-188.136
-188.18
-188.212
-188.237
-188.264
-188.304
-188.367
-188.454
-188.564
-188.69
-188.815
-188.92
-188.981
-188.973
-188.874
-188.669
-188.351
-187.92
-187.384
-186.763
-186.079
-185.357
-184.623
-183.901
-183.215
-182.584
-182.021
-181.532
-181.123
-180.788
-180.521
-180.316
-180.173
-180.116
-180.26
8231.42
8215.5
8217.14
8222.5
8240.08
8239.24
8258.04
8274.39
7329.57
4123.1
3454.09
1875.76
-269.892
-189.625
-197.16
-197.199
-196.531
-196.288
-196.229
-196.26
-196.363
-196.496
-196.598
-196.681
-196.755
-196.815
-196.862
-196.898
-196.929
-196.959
-196.999
-197.052
-197.12
-197.201
-197.29
-197.374
-197.437
-197.461
-197.427
-197.315
-197.117
-196.825
-196.436
-195.958
-195.407
-194.799
-194.157
-193.502
-192.854
-192.231
-191.652
-191.127
-190.666
-190.275
-189.947
-189.679
-189.465
-189.303
-189.196
-189.142
8183.18
8163.72
8166.64
8185.72
8203.19
8205.76
8241.37
8295.12
4905.19
4160.2
3049.01
1089.36
-446.503
-221.273
-206.347
-206.026
-205.481
-205.238
-205.175
-205.205
-205.3
-205.387
-205.466
-205.541
-205.607
-205.663
-205.708
-205.745
-205.777
-205.808
-205.846
-205.89
-205.941
-205.999
-206.06
-206.111
-206.141
-206.136
-206.081
-205.962
-205.77
-205.498
-205.145
-204.717
-204.225
-203.683
-203.109
-202.521
-201.936
-201.37
-200.836
-200.347
-199.912
-199.536
-199.213
-198.939
-198.709
-198.515
-198.345
-198.164
8144.92
8130.61
8143.88
8156.11
8160.02
8184.78
8238.83
7178.58
4686.98
3962.96
2412.02
196.178
-157.523
-211.93
-215.93
-215.042
-214.561
-214.345
-214.294
-214.326
-214.391
-214.451
-214.51
-214.572
-214.629
-214.679
-214.721
-214.756
-214.787
-214.817
-214.85
-214.885
-214.922
-214.963
-215
-215.025
-215.03
-215.003
-214.932
-214.807
-214.621
-214.367
-214.045
-213.658
-213.218
-212.733
-212.218
-211.687
-211.156
-210.639
-210.146
-209.691
-209.281
-208.918
-208.599
-208.321
-208.077
-207.857
-207.646
-207.426
8114.07
8111.27
8120.39
8128.47
8150.5
8160.94
8019.92
5454.84
4709.63
3461.17
1580.69
-339.085
-217.699
-226.765
-225.086
-224.276
-223.827
-223.641
-223.595
-223.617
-223.641
-223.678
-223.725
-223.775
-223.823
-223.867
-223.904
-223.936
-223.963
-223.99
-224.017
-224.044
-224.07
-224.095
-224.113
-224.118
-224.103
-224.059
-223.978
-223.85
-223.669
-223.431
-223.134
-222.785
-222.389
-221.953
-221.489
-221.009
-220.526
-220.053
-219.597
-219.172
-218.784
-218.436
-218.125
-217.85
-217.604
-217.378
-217.17
-216.995
8088.26
8096.48
8102.64
8108.32
8130.87
8161.47
6685.29
5299.92
4320.25
2721.45
639.805
-185.897
-243.481
-235.629
-234.369
-233.68
-233.288
-233.127
-233.076
-233.063
-233.065
-233.086
-233.117
-233.154
-233.193
-233.229
-233.26
-233.287
-233.31
-233.333
-233.354
-233.373
-233.389
-233.4
-233.402
-233.392
-233.362
-233.306
-233.217
-233.087
-232.913
-232.688
-232.415
-232.097
-231.74
-231.346
-230.926
-230.492
-230.053
-229.62
-229.2
-228.803
-228.436
-228.104
-227.807
-227.543
-227.308
-227.105
-226.941
-226.834
8074.99
8082.97
8088.97
8087.06
8121.53
7617.48
5823.86
4956.93
3610.98
1817.81
-165.544
-212.183
-241.103
-244.315
-243.694
-243.217
-242.929
-242.791
-242.724
-242.675
-242.66
-242.667
-242.685
-242.71
-242.739
-242.766
-242.792
-242.813
-242.831
-242.849
-242.865
-242.876
-242.883
-242.882
-242.872
-242.849
-242.808
-242.743
-242.648
-242.518
-242.35
-242.139
-241.887
-241.597
-241.271
-240.914
-240.533
-240.14
-239.741
-239.346
-238.96
-238.593
-238.249
-237.935
-237.655
-237.407
-237.19
-237.011
-236.872
-236.773
8055.26
8069.6
8076.6
8077.02
7862.56
6347.12
5425.27
4258.6
2734.68
800.454
-316.262
-265.72
-253.58
-253.671
-253.292
-252.944
-252.743
-252.616
-252.514
-252.454
-252.427
-252.423
-252.429
-252.444
-252.462
-252.481
-252.5
-252.515
-252.529
-252.542
-252.552
-252.556
-252.554
-252.543
-252.524
-252.491
-252.442
-252.37
-252.271
-252.142
-251.98
-251.782
-251.549
-251.283
-250.985
-250.66
-250.315
-249.957
-249.595
-249.233
-248.88
-248.542
-248.224
-247.932
-247.671
-247.439
-247.237
-247.073
-246.944
-246.853
8027.42
8049.64
8059.72
8010.94
6643.79
5736.96
4710.22
3413.43
1755.79
-125.476
-190.109
-262.217
-264.122
-263.483
-263.107
-262.868
-262.718
-262.586
-262.473
-262.406
-262.372
-262.357
-262.353
-262.358
-262.366
-262.378
-262.39
-262.4
-262.408
-262.416
-262.419
-262.417
-262.407
-262.39
-262.363
-262.323
-262.267
-262.19
-262.089
-261.961
-261.805
-261.619
-261.403
-261.158
-260.885
-260.589
-260.275
-259.951
-259.62
-259.291
-258.967
-258.656
-258.364
-258.095
-257.852
-257.636
-257.451
-257.299
-257.181
-257.1
7976.05
8024.61
8019.01
6847.82
6028.74
5036.8
3913.04
2468.29
672.598
-256.358
-284.025
-274.079
-273.991
-273.454
-273.121
-272.963
-272.838
-272.694
-272.59
-272.528
-272.49
-272.468
-272.457
-272.453
-272.453
-272.457
-272.462
-272.465
-272.469
-272.471
-272.469
-272.461
-272.445
-272.422
-272.39
-272.344
-272.283
-272.202
-272.1
-271.975
-271.826
-271.65
-271.448
-271.222
-270.972
-270.701
-270.417
-270.121
-269.82
-269.52
-269.224
-268.939
-268.67
-268.422
-268.198
-267.999
-267.83
-267.69
-267.582
-267.51
6052.82
7624.63
7146.94
6379.62
5425.87
4421.6
3153.91
1507.3
-197.42
-234.232
-283.312
-284.747
-284.093
-283.598
-283.329
-283.21
-283.086
-282.967
-282.882
-282.826
-282.786
-282.76
-282.742
-282.731
-282.724
-282.72
-282.718
-282.717
-282.715
-282.712
-282.704
-282.69
-282.67
-282.642
-282.605
-282.555
-282.491
-282.408
-282.306
-282.185
-282.042
-281.876
-281.688
-281.478
-281.248
-281.002
-280.742
-280.473
-280.199
-279.926
-279.656
-279.395
-279.147
-278.919
-278.713
-278.531
-278.376
-278.249
-278.15
-278.087
123493
128576
128541
128484
128401
128286
128133
127931
127666
127320
126865
126265
125468
124398
122941
120910
117988
113553
106176
92475.6
113317
118386
118347
118283
118191
118065
117896
117675
117387
117010
116517
115867
115002
113838
112242
110000
106731
101689
93340.4
78383.9
103170
108222
108180
108111
108012
107876
107697
107462
107157
106761
106244
105568
104673
103476
101850
99599.6
96407.1
91739.9
84719.3
73863.5
93051.5
98088.1
98043.6
97971
97866.5
97724.4
97537
97293.5
96979.1
96573.8
96050.3
95370.4
94481.3
93308.2
91744.9
89638.5
86766
82798.3
77262.4
69579.2
82964.8
87984.9
87938.8
87863.7
87755.9
87610.1
87418.6
87171.4
86854.6
86449.7
85931.9
85267.6
84411.2
83301.4
81855.2
79961.8
77474
74199.1
69903.1
64401.6
72910.3
77913.8
77866.9
77790.7
77681.5
77534.3
77342.1
77095.5
76781.9
76384.8
75882.5
75246.5
74439.5
73412.9
72104.9
70438.2
68318.9
65637.9
62284.2
58191.3
62888.4
67875.6
67828.6
67752.4
67643.4
67497.1
67306.8
67064.3
66758.2
66374.1
65893.6
65293
64542.4
63604.5
62434
60977.9
59176.5
56968.2
54298.6
51143
52898.9
57870.2
57823.9
57748.8
57641.6
57497.8
57311.8
57075.8
56780.1
56412.2
55956.5
55393.8
54700.3
53847.2
52801.6
51526.9
49985.1
48140.9
45966.9
43454.3
42941
47897.3
47852.5
47779.6
47675.4
47535.7
47355.3
47127.6
46844
46493.8
46063.9
45538.6
44898.7
44121.8
43183.2
42057.4
40720.7
39153.2
37341.5
35281.9
33013.1
37955.9
37913.8
37844.4
37744.3
37609.6
37435.8
37217.3
36946.5
36614.3
36209.9
35719.9
35128.6
34417.4
33566.7
32558.3
31378.7
30020.2
28477.9
26747.5
23111.9
28044.6
28007.4
27942.9
27847.5
27718.4
27551.8
27342.7
27084.5
26769.9
26389.7
25933
25385.8
24731.1
23950.5
23028.9
21964.4
20766.7
19436.3
17964.5
13228.4
18161.9
18133.8
18074.9
17984.3
17861
17702
17502.3
17256.5
16958.9
16602.8
16179.2
15676.3
15075.9
14353.1
13497
12520.7
11450.8
10297.6
9039.88
3325.2
8308.53
8294.44
8241.39
8155.88
8038.95
7887.73
7696.09
7459.16
7174.23
6835.48
6437.05
5974.39
5424.97
4722.49
3881.55
3000.89
2194.11
1514.17
984.886
-429.965
256.647
254.496
227.913
184.86
129.469
65.4873
-5.64957
-81.4402
-160.287
-240.841
-320.759
-398.742
-427.864
-427.495
-427.758
-427.465
-425.936
-421.206
-421.55
-439.159
-433.925
-433.92
-433.899
-433.876
-433.859
-433.848
-433.841
-433.839
-433.851
-433.892
-433.981
-434.114
-434.516
-434.827
-434.884
-434.767
-434.469
-434.035
-433.765
-448.827
-443.819
-443.819
-443.818
-443.818
-443.821
-443.827
-443.833
-443.84
-443.846
-443.854
-443.859
-443.859
-443.88
-443.927
-443.952
-443.951
-443.923
-443.883
-443.861
-458.62
-453.676
-453.67
-453.669
-453.669
-453.672
-453.676
-453.68
-453.683
-453.685
-453.686
-453.683
-453.676
-453.669
-453.673
-453.684
-453.694
-453.699
-453.696
-453.692
-468.441
-463.514
-463.509
-463.507
-463.507
-463.508
-463.51
-463.512
-463.514
-463.514
-463.513
-463.51
-463.506
-463.502
-463.503
-463.508
-463.515
-463.522
-463.526
-463.529
-478.27
-473.349
-473.344
-473.341
-473.34
-473.34
-473.341
-473.343
-473.344
-473.344
-473.343
-473.341
-473.34
-473.339
-473.341
-473.345
-473.351
-473.358
-473.365
-473.371
-488.1
-483.181
-483.176
-483.172
-483.171
-483.171
-483.171
-483.173
-483.174
-483.174
-483.174
-483.174
-483.175
-483.176
-483.18
-483.185
-483.192
-483.2
-483.208
-483.216
-497.928
-493.009
-493.004
-493.001
-492.999
-492.999
-493
-493.002
-493.004
-493.005
-493.007
-493.008
-493.01
-493.014
-493.019
-493.026
-493.034
-493.043
-493.053
-493.063
-507.746
-502.832
-502.828
-502.827
-502.826
-502.827
-502.828
-502.83
-502.833
-502.836
-502.839
-502.842
-502.846
-502.851
-502.858
-502.867
-502.876
-502.887
-502.899
-502.911
-517.546
-512.647
-512.649
-512.651
-512.653
-512.654
-512.656
-512.659
-512.663
-512.667
-512.671
-512.676
-512.682
-512.689
-512.697
-512.707
-512.718
-512.731
-512.745
-512.759
-527.323
-522.457
-522.469
-522.475
-522.479
-522.482
-522.485
-522.489
-522.493
-522.498
-522.504
-522.51
-522.517
-522.526
-522.535
-522.547
-522.56
-522.575
-522.591
-522.609
40306.6
39340.7
38625.2
39009.3
42330.1
47926.3
54824.9
61814.1
67722.8
71653.9
73040.1
71597.4
67004.7
58331
42444.2
48599.8
33327.1
28946.2
28962
31734.5
36663.1
42979.5
49496.8
55040.9
58707.5
59946
58491.9
54125.8
46476.1
35265.1
57958.2
39222.7
28577.9
24742
25436.8
29165.4
34538.6
40198.1
44949.3
47965.2
48819.9
47375.9
43631
37689.5
29981.2
59922.7
47768.3
37686.1
31366.5
28863.8
29421.2
31988.8
35176.4
37887.9
39428.1
39445.2
37830.7
34627.7
30019.6
24407.8
57632.4
49630
42262.4
36593.4
33031.6
31442.4
31344.2
31939
32489.5
32477.2
31584.4
29668.3
26729.3
22903
18473.9
53277.5
47522.5
41953.5
37175.4
33508.7
30987.9
29400.1
28359.2
27439.1
26284
24647.3
22398.6
19519.3
16092.6
12289.6
47439.2
43089.9
38718
34673.1
31179.3
28320.8
26005.7
24052.4
22224.9
20302.5
18118.6
15571.5
12619.2
9288.94
5732
40549.4
37129.6
33594.1
30141
26929.9
24022
21398.6
18977.6
16636.1
14236.9
11653.1
8796.07
5670.24
2472.91
374.821
32922.7
30138.3
27201.7
24229.4
21313.8
18509.2
15823.4
13211.3
10579.5
7824.43
4935.5
2104.93
240.486
-399.661
-367.378
24775.6
22438.7
19950.4
17374.4
14754
12118.4
9451.22
6709.79
3918.08
1466.05
-91.128
-392.679
-381.569
-385.324
-384.618
16296.5
14312
12164
9858.74
7423.67
4872.18
2437.43
771.481
-403.224
-393.014
-390.772
-394.714
-394.411
-394.148
-394.05
7564.74
5742.97
3836.73
2051.93
759.19
-340.323
-420.733
-397.721
-403.507
-405.256
-404.246
-404.121
-404.062
-403.999
-403.932
326.737
-293.352
-430.153
-414.448
-410.612
-413.528
-415.805
-414.447
-414.16
-414.154
-414.075
-414.014
-413.955
-413.903
-413.857
-422.322
-423.661
-425.471
-424.997
-424.181
-424.141
-424.152
-424.102
-424.048
-424.004
-423.957
-423.913
-423.868
-423.822
-423.78
-433.847
-433.999
-434.037
-434.061
-434.014
-433.999
-433.973
-433.946
-433.916
-433.884
-433.847
-433.809
-433.773
-433.739
-433.705
-443.862
-443.864
-443.857
-443.853
-443.844
-443.837
-443.824
-443.805
-443.784
-443.76
-443.735
-443.708
-443.681
-443.656
-443.63
-453.694
-453.696
-453.695
-453.693
-453.69
-453.686
-453.679
-453.669
-453.656
-453.641
-453.625
-453.608
-453.591
-453.573
-453.556
-463.532
-463.537
-463.54
-463.542
-463.544
-463.543
-463.541
-463.538
-463.532