/*--------------------------------*- C++ -*----------------------------------*\
| =========                 |                                                 |
| \\      /  F ield         | OpenFOAM: The Open Source CFD Toolbox           |
|  \\    /   O peration     | Version:  v1912                                 |
|   \\  /    A nd           | Website:  www.openfoam.com                      |
|    \\/     M anipulation  |                                                 |
\*---------------------------------------------------------------------------*/
FoamFile
{
    version     2.0;
    format      ascii;
    class       volScalarField;
    location    "36";
    object      p_rgh;
}
// * * * * * * * * * * * * * * * * * * * * * * * * * * * * * * * * * * * * * //

dimensions      [1 -1 -2 0 0 0 0];


internalField   nonuniform List<scalar> 
20320
(
434789
434864
434891
434942
435014
435102
435204
435319
435443
435573
435706
435840
435970
436094
436210
436313
436403
436477
436532
436566
434676
434774
434809
434863
434935
435024
435128
435243
435367
435498
435631
435765
435895
436020
436135
436237
436325
436396
436446
436476
434452
434591
434626
434681
434753
434843
434946
435061
435185
435316
435449
435582
435711
435834
435948
436049
436135
436204
436254
436286
434143
434322
434357
434411
434483
434571
434674
434788
434911
435041
435173
435304
435432
435553
435665
435764
435849
435917
435967
436003
433762
433975
434009
434063
434134
434221
434322
434434
434556
434683
434814
434943
435069
435187
435296
435393
435476
435544
435595
435634
433318
433561
433594
433646
433715
433800
433899
434009
434128
434252
434380
434507
434629
434745
434851
434945
435025
435091
435143
435184
432822
433089
433121
433171
433238
433320
433415
433521
433636
433756
433879
434002
434120
434232
434334
434424
434501
434565
434615
434658
432282
432570
432600
432647
432710
432788
432878
432979
433088
433202
433319
433435
433547
433653
433749
433834
433905
433965
434013
434057
431710
432012
432040
432084
432142
432214
432297
432390
432491
432597
432704
432811
432914
433011
433098
433174
433239
433292
433337
433380
431113
431424
431450
431489
431541
431606
431680
431763
431853
431946
432041
432134
432224
432307
432381
432445
432498
432542
432581
432622
430500
430817
430839
430873
430917
430972
431035
431105
431180
431257
431333
431408
431478
431541
431595
431639
431675
431705
431735
431770
429881
430199
430216
430243
430279
430322
430371
430424
430479
430534
430587
430635
430677
430711
430735
430751
430760
430768
430781
430806
429264
429577
429590
429609
429634
429663
429694
429727
429758
429785
429806
429819
429822
429814
429795
429767
429735
429706
429693
429699
428656
428961
428968
428978
428991
429003
429015
429023
429024
429017
428998
428964
428914
428847
428765
428671
428574
428487
428430
428401
428065
428358
428359
428359
428358
428353
428341
428321
428288
428239
428170
428077
427957
427809
427635
427442
427243
427061
426927
426834
427497
427775
427770
427760
427743
427719
427683
427631
427559
427462
427334
427168
426959
426703
426401
426060
425699
425355
425084
424874
426957
427218
427206
427185
427154
427109
427047
426963
426849
426700
426504
426253
425935
425542
425066
424510
423893
423268
422733
422290
426450
426692
426673
426642
426596
426531
426444
426326
426170
425965
425698
425354
424912
424353
423654
422799
421789
420675
419608
418629
425979
426200
426175
426134
426074
425991
425879
425729
425532
425274
424937
424497
423925
423183
422222
420986
419415
417481
415301
412934
425545
425745
425715
425665
425593
425492
425358
425180
424946
424640
424238
423710
423014
422093
420863
419204
416938
413804
409450
403287
125394
125733
125883
125852
125585
125225
124729
124036
123075
121887
120475
118987
117860
117335
113809
108122
105704
108202
118620
162595
218748
208809
184046
159869
129520
104608
85796.4
73069
65528.5
59754.5
57600.5
47486.8
39720.8
33227.7
23062.9
19232.7
18995
18997.2
18261.2
20679.9
21576.5
28113.4
30566.3
31708.5
32322
32368.4
32342.5
32490.5
32449.1
31967.1
31144.2
30804.8
31669.1
31012.6
30028.8
30960.1
27913.7
26729.3
26922.2
27214.6
124049
124758
124897
125440
125354
124993
124406
123838
122960
121811
120600
119527
119408
121059
120266
114088
107827
106795
106602
133306
183610
191171
176818
154469
127760
105155
85857.7
73198.4
65602.1
56934.6
52813.8
49355.7
42527.2
36179.5
25281.5
19096
18990.6
19066.3
18785
18781.3
20043.3
28027.4
30483.4
31701.7
32307.2
32602.1
32760.1
32633.1
32380.3
32212
32294.9
32191.2
31618.6
31548.2
31310.3
30465.3
30166.9
30853.5
30418.9
29966.9
125964
125975
126265
124859
124288
124660
125061
123755
121734
120714
119599
119254
120254
121823
120595
118652
112103
102513
103118
126091
177225
174805
161807
143365
121315
99708.4
78950.1
69202.2
67399
59256.6
52138.7
46611.8
41014.7
36273.6
34216.9
23812.2
18975.4
19048.2
18856.8
18791.3
25760.1
29355.9
31061.7
32039.6
32528.9
32779.1
32871.9
32761.8
32511.3
32323.6
32285
32161.3
31760.2
31528.9
31319.6
30818.2
30750.9
31244
30757.6
30208.2
125676
126177
126172
126146
126073
125796
123643
124765
123981
122886
121785
120732
120380
121881
104755
100421
99953.7
102365
103115
144192
164408
161235
149873
133160
113887
95879.1
81572.1
71133.4
62627.5
55774.1
49804.5
44759.4
40137.9
36211.2
34139.6
33640.8
30056.2
19157
18833.3
31635.8
31274.9
31140.4
31928.9
32557.3
32866.4
33008.5
33028
32901.3
32672
32456.2
32316
32125.2
31824.4
31595
31363.2
31046.9
30980
31146
30857
30362.9
125436
125880
126007
124313
123183
121821
124904
125208
124273
123195
122037
119986
119914
101960
118248
101643
98867.2
101571
100840
152111
152160
147776
137080
121673
104235
88032.1
74995.8
65344.6
57910.9
51945.2
46930.3
42663.1
38994.5
35954.6
34133
33718.9
34456.8
35760.1
35738.3
34832.1
33389.1
32743.3
32926.7
33233.6
33291.8
33289
33221.4
33057.9
32825.9
32574.1
32349.5
32118.2
31873.4
31668.1
31446.1
31212.8
31127.5
31190.3
31011.8
30481
125359
123751
117065
124134
126545
127111
126516
125103
124601
123565
122579
122870
121111
95744.9
115988
107326
98043.4
96725.2
115244
142435
139406
133593
122893
108400
92657.2
78368.3
66996.6
58543.1
52279.7
47315.1
43389.1
40033.6
37523.3
35470.7
34078.5
33717.5
34327.9
35294.6
35873.5
35551.9
34612.1
34092.6
33978.5
34076.6
33819.7
33653.9
33476.2
33253.8
33009
32702.6
32383
32098.6
31918
31765.9
31537.4
31341.2
31256
31387.1
31345.1
30563.3
114213
114928
126071
127255
127335
127369
127079
126368
120212
124044
122576
122717
112605
95574.9
96086.6
100481
102043
99934.8
133899
131621
126473
118719
107267
93143
78857.5
66625.8
57274.2
50403.9
45550.6
41533.4
38854.1
34862.3
25092.2
22053.8
25660.8
33124
34051.5
34368.8
35180.5
35512.8
35300.9
35378.1
35051.7
34533.9
15784.7
14499.5
13817
11531.8
10238.9
8670.89
5772.06
1990.28
87.8124
32.93
33.9148
34.7186
34.7977
81.8037
552.49
280.562
126640
127209
127430
127351
127438
127591
127608
127058
122209
118885
122434
84102.2
86575.3
114978
106639
115961
96772.6
120173
130158
121633
113598
103417
90485.6
76053.7
62512.8
51866.1
45067.4
38159.2
29090
12091.3
45.1797
40.7281
30.7577
15.7497
3.03035
22.8353
3494.69
10004.8
23173.9
25206.2
10191.8
536.811
0.399331
10.1249
24.6783
18.9658
20.3906
22.0295
23.4999
24.9524
26.5565
29.337
36.4998
33.9594
33.5774
33.8459
33.5394
30.8527
35.7978
46.6359
126373
127082
127233
127325
127511
127922
128130
127869
125015
122291
118286
80453.7
80487.3
101739
94730.7
102894
94653
134947
123089
112202
101061
88155.5
72847
54980.7
23641.5
268.569
63.9794
69.9531
56.1635
48.3933
46.4517
35.9317
28.3081
15.5943
3.06305
-11.6709
-18.7289
-30.5642
-48.9608
-24.4243
-0.540461
1.06074
4.5699
7.71543
18.4797
19.8274
21.0753
22.4747
23.8248
25.1659
26.729
29.333
33.4299
33.5338
33.462
33.6517
33.6504
33.245
36.6848
44.1585
126077
126624
126870
126584
124091
127324
128419
128867
124085
128325
113866
80365.2
80432.1
81089.6
129682
91729.3
128565
129385
116465
103207
89180.9
73071.9
38459.9
99.114
80.462
72.3285
62.9457
57.678
48.7632
42.7113
39.4298
32.9178
25.6752
15.3985
3.52771
-9.93912
-21.4141
-30.2852
-32.2632
-22.923
-11.93
-3.63
3.37116
8.51148
15.7111
18.8237
20.5276
21.9897
23.3817
24.8014
26.439
28.7704
31.7131
32.7081
33.0312
33.3393
33.6423
34.2093
37.2954
43.0372
125739
126082
113495
108599
109437
109783
122927
122803
130207
130134
124239
80215.2
80350.4
82235.3
112290
85693.4
136486
123987
109991
94720.3
78001.7
35595
100.984
73.8866
69.3552
60.2536
52.7017
47.6117
42.5515
37.8867
34.4286
29.4109
23.0099
14.3756
4.03256
-7.42509
-17.6004
-25.0682
-27.9111
-22.1657
-13.0583
-4.95149
2.19454
7.92476
13.8482
17.52
19.684
21.3271
22.8175
24.3164
25.9802
28.0674
30.4072
31.7363
32.3897
32.8837
33.4653
34.5502
37.3561
41.9885
125301
124868
124649
128607
129709
130288
130199
128246
130996
131498
132430
85159.2
80316.7
93989.5
81221.4
132092
132073
118956
103731
86734.6
56113.2
85.7821
66.3446
61.3999
54.3443
48.094
43.1832
39.4835
36.1987
32.8996
29.9501
25.9407
20.5107
13.1886
4.31281
-5.38739
-14.1639
-20.5089
-23.0908
-19.8175
-12.9717
-5.64554
1.22811
7.06724
12.3729
16.1712
18.662
20.5218
22.1494
23.7305
25.4016
27.3118
29.3044
30.7216
31.5924
32.2635
33.0551
34.3852
36.954
40.8151
112220
101007
119296
112527
129817
130562
130902
127668
122316
130816
132744
137720
104222
121888
77996.4
139240
128195
114189
97878.4
78682
138.928
52.9981
53.1011
46.5688
41.6158
37.5913
34.5023
32.2058
30.2177
28.1246
25.8395
22.6415
18.1118
11.9534
4.42897
-3.72743
-11.1404
-16.5599
-18.9361
-17.0698
-11.972
-5.68956
0.589081
6.19074
11.099
14.8644
17.5567
19.6227
21.3997
23.0603
24.7303
26.5066
28.2775
29.6852
30.6789
31.4863
32.4124
33.828
36.1589
39.4107
76774.9
78095.8
79386.2
120234
130208
130959
131414
124789
120279
120685
133591
135260
134520
72290.4
133178
137281
124819
109895
92281.3
17724.7
45.4998
45.9421
39.8385
35.0875
31.5206
28.8734
27.0747
25.8911
24.9068
23.7316
22.1144
19.6384
15.9119
10.7698
4.46279
-2.31278
-8.49599
-13.1082
-15.275
-14.2571
-10.4982
-5.29799
0.256594
5.43594
9.98885
13.6452
16.4524
18.6906
20.5981
22.3227
23.9833
25.6544
27.2678
28.6241
29.6732
30.5685
31.5627
32.9618
35.0433
37.7827
75727.9
126730
130599
130446
130630
131659
124569
132724
132190
131835
134157
128549
77837.2
68286.5
148814
135466
121984
106227
85189.2
50.7335
41.2174
35.4788
30.0614
26.3704
23.7193
21.945
21.007
20.6239
20.3789
19.8811
18.847
16.9569
13.9248
9.68095
4.48452
-1.06827
-6.19663
-10.1038
-12.0736
-11.5874
-8.81847
-4.58508
0.196599
4.85274
9.03873
12.5569
15.4196
17.7721
19.7673
21.5315
23.1721
24.7534
26.2422
27.5305
28.5908
29.5295
30.5427
31.8679
33.6956
35.9991
116207
126620
75834.7
71917
95592.3
132468
126128
123166
133976
134402
128770
123561
49891.2
77219.1
145373
133458
119601
102889
11892.9
40.5941
34.0286
27.4981
23.001
19.9333
17.8213
16.6489
16.29
16.4182
16.6436
16.6032
16.0093
14.5991
12.1806
8.74513
4.53121
0.00512123
-4.23126
-7.52905
-9.30282
-9.1438
-7.09996
-3.70276
0.342152
4.45538
8.28336
11.6465
14.499
16.8929
18.9243
20.6981
22.3064
23.8065
25.1902
26.4054
27.4452
28.3896
29.3873
30.6147
32.2033
34.1343
127041
76664.6
107225
79947.4
133782
133716
129726
132388
134491
133860
130986
105669
47734.6
130126
141900
131334
117737
99983.3
60.7611
34.3004
27.3234
21.6979
17.9049
15.2258
13.5466
12.8071
12.7818
13.1686
13.6418
13.8805
13.6063
12.5933
10.7063
7.96794
4.57856
0.899783
-2.58999
-5.36297
-6.93076
-6.95771
-5.43974
-2.72635
0.667997
4.26945
7.75221
10.9243
13.6944
16.0597
18.0793
19.8345
21.3988
22.8221
24.1138
25.2533
26.2502
27.1712
28.129
29.2529
30.6311
32.2569
127033
73659
133103
135118
135329
135145
135327
135373
135178
133974
135167
66663.3
39225.2
144238
138957
129661
116371
24929
31.4991
28.7465
21.8751
17.4106
14.1754
11.9075
10.6257
10.1482
10.2595
10.7345
11.3099
11.7002
11.6462
10.9477
9.50083
7.33547
4.6143
1.6269
-1.23892
-3.54886
-4.89883
-5.01807
-3.87724
-1.70046
1.14471
4.28317
7.42074
10.3597
12.9876
15.2712
17.2416
18.9538
20.4631
21.8127
23.0193
24.0827
25.0233
25.899
26.7985
27.8194
29.0224
30.4048
127020
82150.8
93853.5
54463.4
61984.1
136147
136622
136496
134249
133982
135276
25126.1
52890.6
142448
137562
128887
115601
88.9028
26.0521
22.6205
17.6494
14.1596
11.4784
9.69019
8.7162
8.36909
8.51322
8.98847
9.57541
10.0232
10.1009
9.63282
8.53202
6.82377
4.64241
2.22451
-0.11193
-2.01166
-3.14808
-3.30214
-2.42916
-0.668111
1.71908
4.43725
7.22938
9.90916
12.3587
14.5265
16.4197
18.0698
19.5155
20.7914
21.9175
22.9056
23.7822
24.5992
25.4282
26.3464
27.4024
28.5969
127362
129226
38548.5
117160
120161
138343
138228
137747
137022
136735
116734
21815.8
116621
142444
137380
129215
74169.8
17.2934
22.8648
17.9374
14.4101
11.6827
9.60404
8.26271
7.50754
7.23167
7.37029
7.80149
8.3423
8.7807
8.91841
8.6052
7.76654
6.42154
4.68055
2.73703
0.848132
-0.698269
-1.63859
-1.79385
-1.11221
0.322623
2.32446
4.66429
7.1257
9.54155
11.7962
13.8275
15.6238
17.197
18.5715
19.7736
20.8226
21.7368
22.5458
23.2961
24.0482
24.8664
25.7938
26.8352
33387.2
104968
42253.4
72177.6
75941.8
22240.9
137665
139920
139313
138536
24928.9
16461.7
141692
142919
138396
130521
13845.2
24.3165
18.2146
14.4612
11.9324
9.86392
8.35504
7.36783
6.77782
6.55765
6.67702
7.04165
7.5041
7.89153
8.03869
7.82068
7.17535
6.11711
4.7348
3.18339
1.66915
0.423186
-0.342564
-0.480952
0.0617239
1.23781
2.91654
4.92259
7.07919
9.2391
11.2939
13.1769
14.8631
16.3487
17.6461
18.7736
19.7482
20.5908
21.3309
22.0105
22.6831
23.4059
24.2188
25.1301
10112.8
24680.5
27387
10418.7
18129.8
9165.17
22563.2
125692
138622
43369.9
10281
10695.7
146761
144654
140606
133280
52.8406
16.7617
14.6499
11.9785
10.103
8.59817
7.54777
6.82594
6.37016
6.19799
6.29323
6.58525
6.95898
7.27486
7.39996
7.23396
6.72752
5.89289
4.79979
3.56963
2.36638
1.37358
0.761179
0.649318
1.09086
2.06158
3.47125
5.18749
7.06898
8.98781
10.8458
12.5763
14.1446
15.5356
16.7516
17.8038
18.7064
19.4796
20.1514
20.7595
21.3534
21.9856
22.6947
23.4914
9811.31
8818.42
8863.48
25420.2
39265.1
10942.8
8651.44
8682.71
8816.67
9192.59
9606.57
90015.5
148524
147598
143899
83947.1
3.31324
15.0669
11.9638
10.1915
8.80149
7.75681
7.03877
6.50984
6.16217
6.02794
6.10003
6.32579
6.61441
6.85352
6.93997
6.79722
6.3902
5.72948
4.86799
3.89963
2.95263
2.17146
1.69145
1.61073
1.97938
2.78752
3.9742
5.44148
7.07786
8.77466
10.4449
12.0241
13.4708
14.7632
15.8956
16.873
17.7059
18.4126
19.018
19.5564
20.0744
20.6205
21.2332
21.9271
8812.03
8804.3
12290.4
18667.4
8572.7
9010.72
8652.5
8673.58
8761.78
8960.53
9459.94
142920
152737
151689
148179
19510
17.977
11.841
10.0962
8.89079
7.90657
7.21555
6.71993
6.3258
6.05935
5.95394
6.00693
6.17613
6.38529
6.5489
6.59332
6.46245
6.13154
5.60795
4.93194
4.17557
3.43853
2.83344
2.46691
2.41855
2.73472
3.41419
4.41685
5.67197
7.09224
8.58758
10.0823
11.5145
12.8398
14.0325
15.0816
15.9862
16.7529
17.3967
17.9393
18.4128
18.8593
19.323
19.8441
20.441
8784.11
8805.28
10979.6
8844.46
8548.5
8564.29
8602.81
8637.43
8696.22
8805.36
8597.59
158696
158294
156885
153772
30.3121
9.32303
9.72322
8.75666
7.96913
7.31627
6.87012
6.51222
6.20802
5.99816
5.9126
5.94418
6.05276
6.18931
6.29046
6.30223
6.18574
5.92082
5.51113
4.9867
4.40228
3.83582
3.3755
3.10476
3.08844
3.36679
3.94418
4.79529
5.87056
7.10223
8.41659
9.74872
11.0407
12.2478
13.3427
14.3107
15.1457
15.8508
16.4371
16.9232
17.3383
17.7189
18.1042
18.5351
19.036
11330.8
14813.9
14771.7
8509.08
8533.91
8544.35
8570.75
8609.64
8634.19
8679.73
87304.2
165342
164729
162921
130709
-6.68924
9.9299
8.41587
7.86674
7.34953
6.93868
6.63898
6.3607
6.11317
5.9417
5.86649
5.87569
5.94019
6.01741
6.07044
6.06035
5.95693
5.74407
5.42491
5.02203
4.57784
4.15223
3.8125
3.62247
3.63554
3.88681
4.38311
5.10974
6.03288
7.10084
8.25403
9.43708
10.5971
11.6916
12.6935
13.5839
14.3533
15.0022
15.5382
15.9764
16.3411
16.6629
16.9747
17.3141
17.7111
9433.63
10119
8468.23
8487.21
8513.73
8536.87
8575.51
8566.14
8590.42
8707.08
161340
172711
171718
169557
38243.8
12.0389
7.76676
7.53527
7.2736
6.94559
6.6859
6.46217
6.22889
6.01914
5.88017
5.81711
5.81025
5.83428
5.86919
5.88747
5.86288
5.77075
5.5994
5.35142
5.0446
4.71046
4.39526
4.15126
4.02945
4.07226
4.30659
4.73932
5.364
6.15875
7.08507
8.09551
9.1432
10.1811
11.1703
12.0848
12.9023
13.6111
14.2099
14.7036
15.1036
15.4274
15.6994
15.9447
16.1899
16.4659
8471.58
8464.75
8462.75
8475.86
8497.84
8553.03
8520.67
8545.32
8574.93
8352.46
181031
180401
179034
176824
702.793
6.95712
6.83483
6.9899
6.86782
6.66383
6.48975
6.30252
6.09679
5.92449
5.81692
5.75995
5.73297
5.7294
5.73452
5.7297
5.69642
5.61466
5.47695
5.28555
5.05395
4.8066
4.57908
4.41063
4.342
4.4079
4.63107
5.01748
5.56276
6.25129
7.05581
7.94003
8.86573
9.79237
10.6846
11.5171
12.2668
12.921
13.4768
13.9359
14.3067
14.6002
14.8343
15.0238
15.176
15.3033
8483.52
8469.16
8462.94
8467.68
8789.89
8495.17
8502.48
8511.85
8573.65
132178
188963
188260
186502
175294
-1.37831
6.83073
6.46985
6.58825
6.5505
6.43918
6.31078
6.14029
5.95976
5.83144
5.74334
5.68125
5.6426
5.6212
5.60716
5.58805
5.54988
5.47805
5.36788
5.2214
5.04916
4.87052
4.71167
4.60308
4.5769
4.66146
4.87497
5.22334
5.70591
6.31074
7.01455
7.78916
8.60584
9.43134
10.2345
10.9907
11.6781
12.2841
12.8038
13.2352
13.5847
13.8594
14.0704
14.2223
14.2981
14.2352
10703.3
8470.82
8463.53
8888.37
8527.81
8478.9
8586.97
8491.32
8390.46
198182
197350
196206
194093
54855.8
4.52354
5.67934
6.01485
6.26218
6.28797
6.23463
6.12571
5.96661
5.82998
5.727
5.6467
5.58449
5.53995
5.50842
5.48291
5.45587
5.41612
5.35351
5.2666
5.15618
5.03062
4.90509
4.80015
4.73913
4.74687
4.84637
5.0517
5.36921
5.80036
6.33614
6.9574
7.64096
8.36269
9.09727
9.81904
10.5051
11.1357
11.6987
12.1877
12.5971
12.9324
13.1994
13.4044
13.5472
13.6036
13.4603
10806
9960.76
8632.03
8826.66
8444.72
8954.82
8460.33
8476.68
102870
206411
205742
204164
202018
1255.57
5.12806
5.08884
5.75677
6.00024
6.05968
6.02781
5.92575
5.7926
5.69036
5.60683
5.53307
5.47305
5.42634
5.39008
5.35929
5.32874
5.28939
5.23611
5.16876
5.08711
4.99809
4.91382
4.85148
4.82745
4.86166
4.97288
5.17125
5.46358
5.85207
6.33006
6.88146
7.48877
8.13074
8.78604
9.43476
10.0571
10.6367
11.1608
11.622
12.0137
12.3409
12.6092
12.8228
12.9852
13.0927
13.1463
9550.76
8374.73
8377.65
8396.73
8603.53
8788.32
8452.38
8506.13
214406
215171
214060
212100
192409
-10.2625
4.66357
4.98465
5.52983
5.77326
5.83569
5.80555
5.71093
5.62408
5.54486
5.47003
5.40341
5.34747
5.30274
5.26584
5.23373
5.20232
5.16489
5.12093
5.07
5.01136
4.95092
4.89951
4.87
4.87441
4.92939
5.04909
5.24106
5.51251
5.86541
6.29422
6.78586
7.32771
7.90164
8.49017
9.07541
9.64115
10.1751
10.6635
11.0985
11.4749
11.7981
12.0721
12.3018
12.4959
12.6654
12.8467
10223.7
8350.5
8363.77
8376
8937.83
8404.68
8458.72
119069
224576
223852
222301
220085
44020.4
7.95869
3.95915
4.84688
5.32749
5.54357
5.59506
5.5633
5.49791
5.43819
5.37864
5.31709
5.25989
5.20949
5.16822
5.13259
5.10244
5.07238
5.0392
5.00405
4.96651
4.92629
4.88922
4.86389
4.85941
4.88609
4.9566
5.08169
5.26766
5.52147
5.84436
6.23091
6.67088
7.15564
7.67089
8.20201
8.73304
9.2499
9.74249
10.1978
10.6082
10.9708
11.2899
11.5681
11.8117
12.0324
12.2426
12.4629
10150.4
8340.2
8353.32
8510.73
8379.43
8389.92
8248.85
234381
233636
232388
230507
228587
11.227
2.16144
3.83993
4.65052
5.09976
5.28508
5.33135
5.30925
5.28521
5.24832
5.20104
5.15158
5.10332
5.05924
5.02225
4.9904
4.96383
4.93664
4.90914
4.88222
4.85622
4.8313
4.81368
4.80853
4.82333
4.86715
4.9485
5.07687
5.25716
5.49552
5.79224
6.14185
6.53738
6.97312
7.43739
7.9175
8.40031
8.87393
9.3291
9.75402
10.142
10.4904
10.801
11.0764
11.3228
11.5483
11.7561
11.9315
8331.05
8335.01
8363.17
8346.45
8369.61
8399.93
199438
243426
242447
240848
238766
121048
-5.35444
2.49764
3.75717
4.44634
4.83787
4.99887
5.05
5.06374
5.06088
5.04078
5.00892
4.97248
4.93367
4.8975
4.86606
4.83916
4.81635
4.79333
4.77224
4.75324
4.73734
4.72632
4.72424
4.73456
4.76421
4.82023
4.90942
5.03939
5.21376
5.43806
5.71126
6.02884
6.38671
6.78075
7.20063
7.63461
8.07346
8.50654
8.92605
9.32291
9.68991
10.0224
10.3189
10.5831
10.8178
11.0216
11.1856
11.2923
8327.27
8336.02
8336.47
8334.55
8371.29
65394.3
253315
252448
251102
249309
247326
7119.92
6.38878
3.17623
3.79778
4.27455
4.56277
4.70066
4.76771
4.81605
4.83197
4.82457
4.80595
4.78128
4.75287
4.72499
4.69944
4.67839
4.65995
4.64206
4.62668
4.61496
4.60861
4.60966
4.61956
4.6423
4.6832
4.74821
4.84314
4.97314
5.14141
5.35242
5.60415
5.89427
6.22002
6.57772
6.95841
7.35148
7.75013
8.14571
8.53125
8.89816
9.24201
9.55659
9.83627
10.0847
10.3014
10.4801
10.6196
10.719
8317.91
8327.08
8445.3
8423.03
8119.59
263371
262449
261282
259758
257824
199222
-8.69684
3.44319
3.35206
3.73159
4.07912
4.28055
4.40708
4.50904
4.56962
4.59602
4.60084
4.59427
4.57959
4.56151
4.54188
4.52352
4.50808
4.49426
4.48123
4.47161
4.46729
4.46973
4.47999
4.49937
4.53193
4.58136
4.6534
4.75209
4.88134
5.04356
5.24172
5.47421
5.7405
6.03833
6.36347
6.70879
7.06587
7.42861
7.78993
8.14369
8.48133
8.79882
9.09098
9.35214
9.58459
9.78591
9.95049
10.0797
10.1706
8302.93
8502.04
8351.41
8277.67
269754
272464
271438
270141
268483
266602
18161.9
4.51043
2.60521
3.24416
3.6209
3.85933
4.00917
4.1416
4.25454
4.32123
4.35583
4.37077
4.37457
4.36974
4.3612
4.34939
4.33789
4.3279
4.31922
4.31179
4.30821
4.31074
4.32021
4.33733
4.36428
4.40423
4.46052
4.53762
4.63876
4.76617
4.92201
5.10862
5.32471
5.56974
5.84265
6.13874
6.45208
6.77679
7.10739
7.43686
7.76075
8.07105
8.36317
8.63301
8.87564
9.09108
9.27677
9.4287
9.54682
9.62791
8404.53
8440.77
8295.62
275177
282634
281642
280518
279073
277278
208138
-7.41996
2.52577
2.61414
3.15137
3.48437
3.64234
3.76694
3.9113
4.0148
4.07733
4.11511
4.13689
4.14859
4.1526
4.15221
4.14805
4.14358
4.13985
4.13642
4.13401
4.13612
4.14458
4.15988
4.18297
4.21559
4.26098
4.32234
4.40296
4.50522
4.62971
4.77902
4.95537
5.1571
5.38334
5.63348
5.90374
6.18864
6.48382
6.78515
7.08519
7.38076
7.66577
7.93473
8.18325
8.40772
8.60592
8.77529
8.91499
9.0232
9.09509
67040.9
46274.7
293806
293039
292085
291081
289813
288167
286462
6094.33
3.34786
1.91248
2.56668
3.06161
3.33035
3.4496
3.57364
3.69282
3.77703
3.83364
3.87314
3.89952
3.91749
3.92889
3.93594
3.9391
3.94162
3.943
3.94472
3.94791
3.95571
3.96932
3.98963
4.01769
4.05465
4.10419
4.16867
4.25145
4.35303
4.47433
4.61714
4.78314
4.97173
5.1818
5.41105
5.6579
5.91781
6.18642
6.46052
6.73392
7.00365
7.26489
7.51218
7.74032
7.9468
8.12884
8.28337
8.41101
8.50919
8.57269
425151
425329
425294
425236
425153
425039
424885
424683
424419
424072
423617
423017
422221
421151
419693
417663
414741
410306
402929
389228
424785
424948
424909
424846
424753
424627
424459
424238
423949
423573
423079
422429
421565
420400
418804
416562
413294
408252
399903
384946
424447
424595
424553
424484
424385
424249
424069
423834
423529
423133
422617
421940
421046
419848
418223
415972
412780
408112
401092
390236
424139
424271
424226
424154
424049
423907
423719
423476
423162
422756
422233
421553
420664
419491
417927
415821
412948
408981
403445
395762
423862
423977
423931
423856
423748
423603
423411
423164
422847
422442
421924
421260
420404
419294
417848
415954
413467
410192
405896
400394
423618
423716
423669
423593
423484
423337
423145
422898
422584
422187
421685
421049
420242
419215
417907
416241
414121
411440
408087
403994
423406
423488
423441
423365
423256
423110
422919
422677
422371
421987
421506
420905
420155
419217
418047
416590
414789
412581
409911
406755
423226
423293
423246
423171
423064
422920
422734
422498
422203
421835
421379
420816
420123
419270
418224
416949
415408
413563
411389
408877
423078
423130
423085
423012
422908
422768
422588
422360
422076
421726
421296
420771
420131
419354
418416
417290
415953
414386
412574
410514
422961
422998
422956
422887
422787
422652
422478
422260
421989
421657
421252
420762
420171
419460
418609
417601
416421
415063
413520
411790
422869
422897
422860
422795
422700
422571
422404
422195
421937
421622
421242
420785
420238
419584
418803
417881
416817
415619
414289
412817
422796
422824
422796
422737
422647
422524
422364
422165
421919
421621
421265
420842
420339
419738
419016
418160
417183
416113
414960
413702
422703
422781
422767
422714
422628
422511
422360
422169
421932
421647
421308
420910
420447
419897
419123
414431
399271
370348
326277
252382
-0.777912
119398
119354
114873
107483
97829.4
86617.8
74092.9
60757.3
46906.3
32758.2
18670.9
4398.28
-3.58192
-3.21244
-3.47573
-3.18222
-1.65326
3.07657
2.73205
-0.161992
0.167346
0.172794
0.193867
0.216535
0.233545
0.244197
0.251573
0.253436
0.241717
0.200629
0.11124
-0.0215895
-0.423633
-0.73493
-0.791387
-0.674236
-0.37606
0.057073
0.327087
-0.0197966
0.0831967
0.0833016
0.0846092
0.0844649
0.0810048
0.0752384
0.069136
0.0629936
0.0560694
0.0480185
0.0431563
0.0430693
0.022287
-0.0245355
-0.0495662
-0.0481052
-0.0203523
0.0194956
0.0419524
-0.00227561
0.0366499
0.042231
0.0439661
0.043311
0.0404823
0.0364879
0.0325553
0.0293405
0.0272541
0.0269412
0.0295308
0.0363729
0.0430372
0.0391115
0.0289275
0.0184241
0.0137552
0.0166238
0.0202694
-0.0135585
0.00815232
0.0130277
0.0152028
0.0154932
0.0142953
0.0123252
0.0103651
0.00893837
0.00840545
0.00935342
0.012099
0.0162854
0.0200462
0.0195936
0.0144378
0.00701505
0.000585313
-0.00342126
-0.00619683
-0.0322134
-0.0166968
-0.0117085
-0.00892176
-0.007785
-0.00798478
-0.00897067
-0.0101254
-0.0110027
-0.0112156
-0.0104528
-0.00892622
-0.00730564
-0.00656021
-0.00805911
-0.0123871
-0.0187376
-0.0257219
-0.0323764
-0.0385663
-0.052658
-0.0384479
-0.0330426
-0.0298964
-0.0283169
-0.0280743
-0.0288536
-0.0301205
-0.0312637
-0.0318165
-0.0318357
-0.0318378
-0.03236
-0.0339854
-0.0373186
-0.0426241
-0.0496301
-0.0574869
-0.0655258
-0.0738105
-0.0704727
-0.0565296
-0.0512423
-0.0484288
-0.0469087
-0.0465992
-0.0475165
-0.0492521
-0.0511059
-0.0526689
-0.0540371
-0.0555917
-0.0578779
-0.0614346
-0.0666088
-0.0734655
-0.0816874
-0.0907489
-0.100359
-0.11056
-0.0783924
-0.0693227
-0.0657892
-0.0645975
-0.0639993
-0.0642439
-0.0656327
-0.0679167
-0.0705976
-0.0734628
-0.0765265
-0.079833
-0.08374
-0.0889011
-0.0956896
-0.104047
-0.113738
-0.124491
-0.136068
-0.148385
-0.0688908
-0.0742594
-0.076589
-0.0786838
-0.0801054
-0.0816386
-0.0838598
-0.0867923
-0.0902603
-0.0942924
-0.098922
-0.103968
-0.109565
-0.116308
-0.124514
-0.134219
-0.145526
-0.158245
-0.172056
-0.186949
-0.0359944
-0.0745507
-0.0860808
-0.0922579
-0.0961708
-0.099329
-0.102582
-0.106252
-0.110431
-0.11532
-0.121025
-0.127438
-0.134677
-0.143122
-0.152959
-0.164318
-0.177404
-0.192133
-0.208354
-0.226024
337059
336093
335378
335762
339083
344679
351577
358567
364475
368406
369793
368350
363757
355083
339197
355162
339890
335509
335524
338297
343226
349542
356059
361603
365270
366508
365054
360688
353039
341828
374331
355595
344950
341114
341809
345538
350911
356571
361322
364338
365192
363748
360004
354062
346354
386105
373951
363869
357549
355046
355604
358171
361359
364070
365611
365628
364013
360810
356202
350590
393625
385623
378255
372586
369024
367435
367337
367932
368482
368470
367577
365661
362722
358896
354466
399080
393325
387756
382978
379311
376790
375203
374162
373242
372087
370450
368201
365322
361895
358092
403052
398702
394331
390286
386792
383933
381618
379665
377837
375915
373731
371184
368232
364901
361345
405972
402552
399017
395564
392352
389444
386821
384400
382059
379659
377076
374219
371093
361806
170830
408155
405371
402434
399462
396546
393742
391056
388444
385812
383057
380168
361259
148263
-24.4281
7.85401
409818
407481
404993
402417
399797
397161
394494
391752
388961
336067
71248.4
-7.63655
3.47305
-0.281554
0.424234
411149
409164
407017
404711
402276
399725
386128
239921
-8.37177
1.83823
4.08011
0.13839
0.441068
0.704233
0.802473
412227
410405
407630
368796
229867
13867.2
-16.0703
6.9415
1.15535
-0.593248
0.416942
0.541238
0.60014
0.663879
0.730873
143407
25577.9
-15.681
0.0241602
3.86008
0.944556
-1.33271
0.0259613
0.312213
0.318148
0.397442
0.458813
0.517702
0.569361
0.615023
1.96098
0.621501
-1.18842
-0.714148
0.101841
0.141107
0.130653
0.180889
0.234071
0.278386
0.325483
0.369972
0.414624
0.460196
0.502627
0.245165
0.093516
0.0551917
0.0317366
0.0785717
0.0931531
0.119934
0.146423
0.176043
0.208423
0.245722
0.283783
0.319025
0.353662
0.387924
0.0401016
0.0386201
0.0458608
0.0491819
0.0580001
0.0652958
0.0787237
0.097242
0.118927
0.14211
0.167542
0.194611
0.221186
0.246846
0.272515
0.0186143
0.0167333
0.0178869
0.0192293
0.0223654
0.0266105
0.0331821
0.0431672
0.0564011
0.0713962
0.087251
0.104232
0.12181
0.139293
0.156641
-0.00975869
-0.0140053
-0.0174306
-0.0199297
-0.0210911
-0.0206524
-0.0188212
-0.0152092
-0.00963296
-0.0029962
0.00439222
0.0127456
0.0217798
0.0312658
0.0405108
-0.0449824
-0.0519171
-0.0582902
-0.0639913
-0.0688237
-0.0727193
-0.0758255
-0.0779813
-0.0793961
-0.0803899
-0.0806011
-0.0801381
-0.0790304
-0.0775846
-0.0760433
-0.0826805
-0.0924313
-0.102027
-0.111322
-0.120157
-0.128475
-0.136399
-0.144295
-0.152257
-0.15989
-0.1671
-0.173951
-0.180413
-0.186582
-0.192255
-0.121724
-0.134437
-0.147454
-0.160581
-0.173717
-0.186566
-0.19943
-0.212999
-0.226992
-0.240804
-0.254525
-0.268199
-0.281885
-0.295133
-0.30789
-0.161966
-0.177797
-0.194532
-0.211775
-0.229259
-0.246907
-0.265037
-0.283969
-0.303587
-0.323614
-0.343839
-0.364086
-0.384315
-0.40431
-0.424094
-0.203393
-0.222611
-0.24336
-0.264954
-0.287009
-0.309865
-0.333468
-0.357688
-0.382861
-0.40908
-0.43582
-0.462552
-0.488976
-0.515402
-0.542068
-0.245581
-0.268494
-0.293269
-0.319296
-0.346332
-0.374599
-0.403865
-0.433865
-0.464777
-0.496789
-0.529596
-0.562582
-0.595377
-0.628504
-0.661899
307900
306557
305025
303201
301888
300528
298912
297089
122670
1.29805
3.65656
2.68629
2.83942
3.08081
3.21169
3.29883
3.39679
3.48265
3.5478
3.59807
3.63666
3.66546
3.68762
3.70468
3.71748
3.72631
3.73411
3.7405
3.74841
3.757
3.77005
3.78784
3.8128
3.84479
3.88586
3.9389
4.00573
4.08944
4.18961
4.3078
4.44445
4.60145
4.77868
4.97441
5.18507
5.41125
5.64903
5.89365
6.14223
6.39145
6.63777
6.87636
7.10288
7.31125
7.4997
7.66668
7.80847
7.9242
8.01196
8.06852
327867
318632
315498
313047
311016
309060
307124
114474
-1.97874
0.699408
1.90576
2.41015
2.71164
2.92154
3.03579
3.12057
3.20493
3.27779