/*--------------------------------*- C++ -*----------------------------------*\
| =========                 |                                                 |
| \\      /  F ield         | OpenFOAM: The Open Source CFD Toolbox           |
|  \\    /   O peration     | Version:  v1912                                 |
|   \\  /    A nd           | Website:  www.openfoam.com                      |
|    \\/     M anipulation  |                                                 |
\*---------------------------------------------------------------------------*/
FoamFile
{
    version     2.0;
    format      ascii;
    class       surfaceScalarField;
    location    "36";
    object      phi;
}
// * * * * * * * * * * * * * * * * * * * * * * * * * * * * * * * * * * * * * //

dimensions      [0 3 -1 0 0 0 0];
oriented        oriented;


internalField   nonuniform List<scalar> 
40282
(
0.00278977
0.00266456
1.91899
-1.92564
1.92008
0.00556543
-1.91108
1.89894
0.0121393
-1.88375
1.86563
0.0181216
-1.84458
1.82074
0.0238347
-1.79408
1.76475
0.0293339
-1.73268
1.6981
0.034583
-1.66091
1.62133
0.0395841
-1.57922
1.53482
0.0443931
-1.48806
1.43919
0.048866
-1.38812
1.33507
0.0530533
-1.2799
1.22285
0.0570552
-1.16384
1.10311
0.0607312
-1.04066
0.976632
0.0640277
-0.911098
0.844055
0.0670428
-0.775708
0.705712
0.0699957
-0.634439
0.561269
0.0731707
-0.486945
0.409986
0.0769592
-0.331538
0.248861
0.0826771
-0.164119
0.0726673
0.0914516
-0.00421903
0.00559971
1.85413
-1.8497
1.84279
-0.0141114
0.0210235
-1.83315
1.82073
-0.025624
0.0380469
-1.80551
1.78752
-0.0368934
0.0548874
-1.7668
1.74341
-0.0479537
0.0713453
-1.71738
1.68875
-0.0587516
0.0873843
-1.65756
1.62384
-0.0692053
0.102927
-1.58764
1.54901
-0.0792557
0.117887
-1.50801
1.46469
-0.0888697
0.132194
-1.41912
1.37134
-0.0980237
0.145803
-1.32143
1.2694
-0.106651
0.158672
-1.21535
1.1593
-0.114697
0.170746
-1.10133
1.04148
-0.122121
0.181977
-0.979803
0.916356
-0.128853
0.1923
-0.851198
0.784378
-0.134808
0.201628
-0.715937
0.64596
-0.139956
0.209934
-0.574463
0.501617
-0.144402
0.217249
-0.427478
0.352407
-0.148756
0.223827
-0.276459
0.200286
-0.154488
0.23066
-0.123998
0.0515006
-0.165361
0.237858
-0.00701665
0.00836097
1.78769
-1.7835
1.77669
-0.0281809
0.0349897
-1.76722
1.75511
-0.0506743
0.0627801
-1.74039
1.72305
-0.0729233
0.0902586
-1.70312
1.68059
-0.0947428
0.117266
-1.65551
1.6279
-0.116019
0.143626
-1.59781
1.56526
-0.136648
0.169194
-1.53031
1.493
-0.156511
0.193821
-1.45339
1.41152
-0.175513
0.217377
-1.36747
1.32129
-0.193562
0.239742
-1.27305
1.22285
-0.210617
0.260826
-1.17074
1.1168
-0.226663
0.280601
-1.0611
1.00369
-0.241649
0.299054
-0.944641
0.883993
-0.255499
0.316147
-0.821797
0.758096
-0.268049
0.33175
-0.692924
0.626315
-0.279007
0.345616
-0.558303
0.488973
-0.288081
0.357412
-0.418458
0.347002
-0.295248
0.366704
-0.274903
0.202676
-0.301185
0.373412
-0.13096
0.0620555
-0.308771
0.377676
-0.00964429
0.0109213
1.72367
-1.71981
1.71339
-0.0416985
0.0481206
-1.70441
1.69288
-0.0748101
0.0863382
-1.67882
1.66224
-0.107554
0.124133
-1.64316
1.6216
-0.139737
0.161299
-1.59757
1.57112
-0.17118
0.197637
-1.54225
1.51102
-0.201707
0.232945
-1.47744
1.44156
-0.231137
0.267018
-1.40342
1.36306
-0.259293
0.299646
-1.32055
1.27595
-0.286018
0.330626
-1.22931
1.1807
-0.311174
0.359776
-1.13022
1.07795
-0.334685
0.38696
-1.02397
0.968392
-0.356538
0.412117
-0.911299
0.852778
-0.37674
0.435261
-0.792904
0.73174
-0.395245
0.456408
-0.669342
0.605758
-0.411813
0.475397
-0.541027
0.475177
-0.425829
0.491679
-0.40822
0.340204
-0.43638
0.504396
-0.271259
0.20167
-0.443124
0.512713
-0.131838
0.0634442
-0.447344
0.515738
-0.012142
0.013349
1.66194
-1.65829
1.6522
-0.0544925
0.060579
-1.64369
1.63276
-0.097781
0.108713
-1.61941
1.60367
-0.140602
0.156344
-1.58554
1.56504
-0.182728
0.203227
-1.54219
1.517
-0.223945
0.249133
-1.4895
1.45972
-0.264031
0.293818
-1.42767
1.3934
-0.302753
0.337027
-1.35693
1.31831
-0.339873
0.378493
-1.27758
1.23478
-0.375148
0.417941
-1.18998
1.14323
-0.408351
0.455102
-1.09459
1.04415
-0.439288
0.48973
-0.991988
0.938195
-0.467828
0.521622
-0.882874
0.826135
-0.493943
0.550683
-0.768081
0.708811
-0.51768
0.57695
-0.648409
0.586943
-0.538982
0.600448
-0.524462
0.461002
-0.557366
0.620827
-0.396589
0.331246
-0.571708
0.637052
-0.265
0.197932
-0.580562
0.647631
-0.13009
0.0632548
-0.583828
0.650663
-0.0144964
0.0156245
1.60253
-1.59893
1.59321
-0.0665952
0.0723132
-1.58521
1.57494
-0.119522
0.129799
-1.56238
1.54756
-0.171919
0.18674
-1.53048
1.51115
-0.223526
0.24286
-1.48957
1.46576
-0.274097
0.297905
-1.43974
1.41151
-0.323375
0.3516
-1.38111
1.34854
-0.371076
0.403639
-1.31385
1.27705
-0.41691
0.453707
-1.23819
1.1973
-0.460566
0.501459
-1.15442
1.1096
-0.501736
0.546551
-1.06291
1.01439
-0.540126
0.588641
-0.964128
0.912194
-0.575464
0.627399
-0.858681
0.803689
-0.607579
0.66257
-0.74733
0.689717
-0.636458
0.694071
-0.630962
0.571166
-0.662166
0.721962
-0.510413
0.448763
-0.68446
0.74611
-0.386258
0.322923
-0.702292
0.765628
-0.258761
0.193764
-0.713719
0.778716
-0.127738
0.0630059
-0.717532
0.782265
-0.0166901
0.0177299
1.54494
-1.54191
1.5366
-0.0779343
0.0832427
-1.52917
1.51962
-0.139908
0.14946
-1.50794
1.49414
-0.20133
0.215132
-1.47821
1.46016
-0.261916
0.279968
-1.43998
1.41768
-0.321403
0.343701
-1.39327
1.36674
-0.379502
0.406031
-1.33811
1.30738
-0.435888
0.466613
-1.27458
1.23971
-0.490216
0.52508
-1.20281
1.1639
-0.542112
0.581024
-1.12301
1.08018
-0.591192
0.634021
-1.03546
0.988884
-0.637067
0.683639
-0.940523
0.890441
-0.679348
0.729431
-0.838713
0.785429
-0.717703
0.770987
-0.73069
0.674608
-0.751958
0.808039
-0.617305
0.5589
-0.782138
0.840543
-0.499503
0.439205
-0.808173
0.868471
-0.378071
0.316135
-0.829216
0.891152
-0.253386
0.189751
-0.843121
0.906755
-0.124758
0.0618532
-0.848214
0.911119
-0.0187038
0.0196446
1.48976
-1.487
1.48215
-0.0884219
0.0932726
-1.47536
1.46661
-0.158788
0.167532
-1.45591
1.44324
-0.228626
0.241294
-1.4286
1.41197
-0.297646
0.314275
-1.39335
1.37272
-0.365579
0.386209
-1.35007
1.32541
-0.43212
0.456787
-1.29871
1.26998
-0.496906
0.525633
-1.23923
1.20644
-0.559545
0.592331
-1.17163
1.13482
-0.619596
0.65641
-1.09602
1.05525
-0.676597
0.717366
-1.01254
0.96794
-0.730066
0.774668
-0.921484
0.87323
-0.779496
0.827751
-0.823242
0.771595
-0.824403
0.876049
-0.718382
0.663708
-0.864419
0.919093
-0.607695
0.550478
-0.899414
0.956631
-0.492193
0.432971
-0.929358
0.98858
-0.372928
0.312155
-0.953623
1.0144
-0.250695
0.188502
-0.970085
1.03228
-0.124704
0.0641503
-0.976829
1.03738
-0.0205154
0.0213452
1.43646
-1.43381
1.42947
-0.0979582
0.102295
-1.42339
1.41556
-0.175987
0.183824
-1.40595
1.39455
-0.253567
0.264966
-1.38134
1.3663
-0.330422
0.345459
-1.34941
1.33065
-0.406296
0.425065
-1.30997
1.28738
-0.480882
0.503479
-1.26283
1.23631
-0.553792
0.580309
-1.20781
1.17729
-0.62459
0.655101
-1.14477
1.11022
-0.692771
0.727317
-1.07366
1.03508
-0.75779
0.79637
-0.994495
0.951934
-0.819063
0.861625
-0.907422
0.861
-0.875961
0.922383
-0.812718
0.762639
-0.927839
0.977918
-0.710841
0.657421
-0.974122
1.02754
-0.602494
0.546197
-1.01445
1.07074
-0.488681
0.430101
-1.04868
1.10726
-0.370612
0.310354
-1.07634
1.13659
-0.24942
0.187826
-1.09543
1.15702
-0.124197
0.0653917
-1.104
1.1628
-0.0221009
0.0228072
1.3852
-1.38289
1.37913
-0.106429
0.110194
-1.37384
1.36701
-0.191305
0.198133
-1.35862
1.34864
-0.275874
0.285858
-1.33703
1.32377
-0.359895
0.373158
-1.30881
1.29212
-0.443152
0.459845
-1.27365
1.25335
-0.525353
0.545645
-1.2312
1.20713
-0.606101
0.630164
-1.18113
1.15313
-0.684928
0.712921
-1.12312
1.09106
-0.761267
0.793325
-1.05693
1.02072
-0.834486
0.870701
-0.982408
0.942
-0.903894
0.944302
-0.899506
0.854947
-0.968721
1.01328
-0.808354
0.759776
-1.02815
1.07673
-0.709277
0.656942
-1.08138
1.13372
-0.602879
0.547228
-1.12776
1.18341
-0.490151
0.431834
-1.16693
1.22524
-0.372477
0.312283
-1.19839
1.25858
-0.251428
0.190037
-1.22033
1.28172
-0.12586
0.0688088
-1.23087
1.28792
-0.0234355
0.0240062
1.33563
-1.33369
1.33056
-0.113714
0.116847
-1.32615
1.32044
-0.204531
0.210241
-1.3134
1.30499
-0.295247
0.30366
-1.29516
1.28387
-0.385686
0.396974
-1.27107
1.2567
-0.475698
0.490072
-1.24069
1.22298
-0.565033
0.58274
-1.20351
1.18221
-0.653307
0.674607
-1.15902
1.13386
-0.740033
0.765189
-1.10668
1.07742
-0.824596
0.853856
-1.04603
1.01246
-0.906282
0.939853
-0.97667
0.938634
-0.984283
1.02232
-0.898333
0.855759
-1.05768
1.10025
-0.810923
0.763847
-1.12545
1.17252
-0.714576
0.663178
-1.18654
1.23793
-0.609749
0.554421
-1.23995
1.29528
-0.497368
0.4388
-1.28497
1.34354
-0.378962
0.318131
-1.32098
1.38181
-0.256577
0.19459
-1.34627
1.40825
-0.128573
0.0731743
-1.35923
1.41463
-0.0244957
0.0249201
1.28792
-1.28621
1.28376
-0.119694
0.122139
-1.28031
1.27582
-0.215447
0.219937
-1.27025
1.26356
-0.311372
0.318064
-1.25569
1.24658
-0.407386
0.416494
-1.23617
1.22437
-0.503433
0.51523
-1.21111
1.1963
-0.59934
0.61415
-1.17985
1.16167
-0.694762
0.712943
-1.14166
1.11973
-0.789223
0.811152
-1.09579
1.06973
-0.882084
0.908137
-1.04148
1.01095
-0.972559
1.00309
-0.978056
0.942735
-1.05973
1.09505
-0.904929
0.864592
-1.14252
1.18285
-0.821697
0.776231
-1.21967
1.26514
-0.728209
0.677668
-1.28985
1.34039
-0.624684
0.569379
-1.35164
1.40695
-0.511926
0.452565
-1.40384
1.4632
-0.391597
0.329402
-1.4455
1.50769
-0.266401
0.203161
-1.47493
1.53817
-0.134252
0.0805057
-1.49094
1.54469
-0.0252618
0.0255321
1.24208
-1.2408
1.23909
-0.124261
0.125973
-1.23666
1.23347
-0.223855
0.22704
-1.22949
1.22465
-0.323952
0.328791
-1.21889
1.21215
-0.424589
0.431331
-1.20434
1.19537
-0.525838
0.534809
-1.18514
1.17355
-0.62764
0.639235
-1.16047
1.1458
-0.729727
0.744398
-1.12941
1.11116
-0.831675
0.849919
-1.09094
1.0686
-0.932857
0.955198
-1.04401
1.01704
-1.03246
1.05942
-0.987571
0.955475
-1.12947
1.16156
-0.920641
0.88297
-1.22265
1.26032
-0.842377
0.798796
-1.31054
1.35412
-0.752187
0.702541
-1.39144
1.44109
-0.649891
0.594327
-1.46345
1.51901
-0.536013
0.475207
-1.5247
1.58551
-0.41228
0.347757
-1.57371
1.63823
-0.282296
0.216958
-1.6087
1.67403
-0.144037
0.0918976
-1.62862
1.68076
-0.02572
0.0258323
1.19753
-1.1969
1.19595
-0.127331
0.12828
-1.19458
1.19276
-0.229594
0.231413
-1.19044
1.18756
-0.332734
0.335617
-1.18405
1.17983
-0.436931
0.44115
-1.17481
1.1689
-0.542417
0.548332
-1.16197
1.1539
-0.649286
0.657349
-1.14457
1.13383
-0.757396
0.76814
-1.12152
1.10749
-0.866429
0.880463
-1.09156
1.07356
-0.975831
0.993829
-1.05331
1.03063
-1.08481
1.1075
-1.00532
0.977202
-1.19235
1.22046
-0.946091
0.91181
-1.29709
1.33137
-0.874193
0.833088
-1.39736
1.43846
-0.788371
0.739947
-1.49111
1.53954
-0.687768
0.631855
-1.57586
1.63177
-0.572322
0.509415
-1.64886
1.71177
-0.443552
0.37542
-1.70773
1.77586
-0.305965
0.236999
-1.75035
1.81931
-0.157665
0.106619
-1.77548
1.82653
-0.025865
0.0258204
1.15484
-1.15467
1.15449
-0.128853
0.129031
-1.15421
1.15378
-0.232559
0.23299
-1.15315
1.15227
-0.337535
0.338412
-1.15108
1.14948
-0.44412
0.445716
-1.14739
1.14471
-0.552731
0.555418
-1.1413
1.13704
-0.663655
0.667915
-1.13178
1.12536
-0.776929
0.783348
-1.11761
1.10833
-0.892403
0.901678
-1.09733
1.08439
-1.00968
1.02262
-1.06928
1.05176
-1.1281
1.14562
-1.03157
1.00846
-1.2467
1.26982
-0.982145
0.952351
-1.36417
1.39396
-0.9188
0.881218
-1.47871
1.51629
-0.839347
0.792949
-1.58798
1.63438
-0.741832
0.685876
-1.68887
1.74483
-0.625075
0.559598
-1.77757
1.84304
-0.489872
0.41676
-1.85025
1.92336
-0.341608
0.267443
-1.90404
1.97821
-0.178853
0.131094
-1.9378
1.98555
-0.0257017
0.0255067
1.11363
-1.11373
1.1143
-0.128823
0.128246
-1.11508
1.11601
-0.232727
0.23179
-1.11707
1.11819
-0.338283
0.337162
-1.11931
1.12036
-0.445991
0.444941
-1.12125
1.12188
-0.556473
0.555846
-1.12212
1.12186
-0.670239
0.670508
-1.12092
1.11916
-0.78755
0.789313
-1.11638
1.11239
-0.908498
0.912493
-1.10695
1.09982
-1.03294
1.04006
-1.09074
1.07941
-1.16045
1.17178
-1.06551
1.04871
-1.29033
1.30713
-1.02863
1.00489
-1.42146
1.4452
-0.977063
0.944715
-1.55217
1.58452
-0.907393
0.864641
-1.68006
1.72281
-0.816021
0.761143
-1.80154
1.85642
-0.699725
0.631686
-1.91154
1.97958
-0.557281
0.477393
-2.00415
2.08403
-0.393758
0.310582
-2.07456
2.15774
-0.20753
0.160456
-2.12209
2.16916
-0.0252454
0.0249118
1.07389
-1.0746
1.07589
-0.127289
0.126
-1.07767
1.0799
-0.230163
0.227928
-1.08256
1.0856
-0.335031
0.331993
-1.08896
1.09259
-0.442543
0.438914
-1.09641
1.10033
-0.553521
0.549605
-1.10424
1.10802
-0.668717
0.664934
-1.11154
1.11463
-0.78865
0.785554
-1.11713
1.11882
-0.913708
0.912017
-1.11948
1.11886
-1.04409
1.04472
-1.11666
1.11257
-1.17977
1.18386
-1.10624
1.09725
-1.32047
1.32945
-1.08517
1.06949
-1.46557
1.48125
-1.04965
1.02504
-1.61391
1.63852
-0.994973
0.958692
-1.76353
1.79981
-0.915396
0.864252
-1.91093
1.96207
-0.804468
0.735406
-2.05014
2.1192
-0.656793
0.569212
-2.17263
2.26021
-0.474595
0.37835
-2.26976
2.366
-0.258354
0.209603
-2.33915
2.3879
-0.0245219
0.024066
1.03544
-1.03654
1.03847
-0.124349
0.122415
-1.04116
1.04457
-0.225031
0.221612
-1.0487
1.05351
-0.327976
0.323172
-1.05895
1.06499
-0.433964
0.427924
-1.07157
1.07862
-0.543991
0.536941
-1.08606
1.09379
-0.659045
0.651312
-1.10171
1.10967
-0.77991
0.771948
-1.11753
1.12511
-0.907304
0.899725
-1.1322
1.13858
-1.04183
1.03546
-1.14396
1.14804
-1.18396
1.17988
-1.15047
1.15082
-1.33403
1.33368
-1.14862
1.14331
-1.49223
1.49754
-1.13425
1.12068
-1.65843
1.672
-1.1017
1.07627
-1.8319
1.85733
-1.04317
1.00097
-2.0105
2.05269
-0.948087
0.882846
-2.18885
2.25409
-0.803716
0.709974
-2.35668
2.45042
-0.602528
0.487233
-2.49946
2.61475
-0.343943
0.288116
-2.61231
2.66813
-0.023565
0.0230061
0.998442
-1.00007
1.00256
-0.12015
0.117659
-1.00604
1.01049
-0.217583
0.213132
-1.0159
1.02226
-0.317457
0.311097
-1.02955
1.03774
-0.420639
0.412447
-1.04681
1.05671
-0.528266
0.518367
-1.06739
1.07879
-0.641522
0.63012
-1.09084
1.10345
-0.761432
0.748827
-1.1165
1.12987
-0.889023
0.87565
-1.14341
1.15693
-1.02532
1.0118
-1.17022
1.18303
-1.17131
1.15851
-1.19504
1.20592
-1.32808
1.31721
-1.21523
1.22245
-1.49681
1.48958
-1.22699
1.22806
-1.67882
1.67774
-1.22475
1.21586
-1.87558
1.88446
-1.19994
1.17509
-2.08811
2.11296
-1.13896
1.0886
-2.31503
2.36539
-1.02052
0.931053
-2.54904
2.63851
-0.817336
0.68149
-2.77253
2.90838
-0.508615
0.431652
-2.97689
3.05385
-0.0224145
0.0217738
0.962912
-0.964635
0.967584
-0.114875
0.111926
-0.971711
0.977014
-0.208141
0.202838
-0.983495
0.991152
-0.303925
0.296268
-0.999986
1.01
-0.403134
0.393124
-1.02118
1.03352
-0.506985
0.494641
-1.04701
1.06163
-0.616806
0.60219
-1.07734
1.09411
-0.733795
0.717025
-1.11189
1.13061
-0.85923
0.840507
-1.1502
1.17055
-0.994479
0.974132
-1.19153
1.213
-1.14101
1.11954
-1.23476
1.2566
-1.30054
1.2787
-1.27824
1.29934
-1.47524
1.45414
-1.31948
1.33812
-1.66798
1.64934
-1.35457
1.36793
-1.88282
1.86946
-1.37698
1.38003
-2.12541
2.12236
-1.37474
1.35781
-2.40246
2.41938
-1.32464
1.26884
-2.71959
2.77539
-1.18241
1.05349
-3.07774
3.20665
-0.87599
0.786553
-3.48971
3.57915
-0.0347368
-0.0217567
0.0564935
-0.0378562
0.10261
-0.0647537
-0.158296
0.206952
-0.0486557
-0.252656
0.293381
-0.0407249
-0.326454
0.350079
-0.0236242
-0.369732
0.389229
-0.0194974
-0.40913
0.430541
-0.0214106
-0.457244
0.4868
-0.0295561
-0.514694
0.542244
-0.0275499
-0.570078
0.597081
-0.0270031
-0.623648
0.64665
-0.0230025
-0.661618
0.659985
0.00163358
-0.629954
0.552106
0.077848
-0.407818
0.176519
0.231299
0.113067
-0.384396
0.271329
0.657464
-1.10482
0.447352
1.64519
-2.05405
0.408854
2.25543
-2.2816
0.0261652
2.36836
-2.56077
0.192404
2.23551
-0.856806
-1.3787
-0.605479
1.88049
-1.27501
-2.99284
3.90006
-0.907224
-4.59641
5.14712
-0.550716
-5.56369
5.85122
-0.287527
-6.04023
6.14545
-0.105221
-6.17181
6.14127
0.0305442
-6.11972
6.13067
-0.0109553
-6.15898
6.20759
-0.0486078
-6.25276
6.24178
0.0109878
-6.21481
6.31136
-0.0965501
-6.60514
7.06896
-0.463824
-7.69536
8.23926
-0.543904
-8.7308
9.17646
-0.445653
-9.35157
9.18374
0.167829
-8.89416
8.74383
0.150325
-8.64918
8.79231
-0.143124
-9.04818
10.9594
-1.9112
-11.3245
7.59678
3.72767
-6.00422
5.99292
0.011306
-6.0725
6.13864
-0.0661359
-6.17835
6.23241
-0.0540562
-6.29868
6.35439
-0.0557101
-6.39401
6.42033
-0.0263157
-6.4372
6.44889
-0.0116899
-6.45857
6.46766
-0.0090925
-6.47295
6.47196
0.000990327
-6.46438
6.45154
0.012835
-6.43862
6.4292
0.0094202
-6.42829
6.44082
-0.0125307
-6.46479
6.48618
-0.0213842
-6.49274
6.48204
0.0106995
-6.45377
6.42605
0.0277207
-6.428
6.45674
-0.0287381
-6.49504
6.51349
-0.0184564
-6.50143
6.49516
0.00627214
-6.52777
6.59755
-0.0697879
-6.67984
6.72022
-0.0403832
-6.64841
6.55708
0.0913234
-6.53512
6.53668
-0.00156099
-6.55172
6.54668
0.00504489
0.0943366
-0.165323
0.0709862
-0.103798
0.137056
0.106939
-0.140198
-0.17248
0.207189
0.0871776
-0.121886
-0.238318
0.266694
0.0736123
-0.101988
-0.292483
0.314779
0.0467927
-0.0690886
-0.334303
0.352989
0.038714
-0.0574
-0.372896
0.392852
0.0420002
-0.0619558
-0.414302
0.437292
0.0546143
-0.0776043
-0.4608
0.484849
0.0530511
-0.0771002
-0.508242
0.529242
0.0502076
-0.0712079
-0.545887
0.556018
0.0375655
-0.0476966
-0.553142
0.531515
-0.0174669
0.039094
-0.485296
0.414484
-0.154526
0.225338
-0.316808
0.184087
-0.402339
0.535061
-0.00379481
-0.207323
-0.505441
0.716559
0.397304
-0.517533
-0.62313
0.743359
0.656178
-0.904695
-0.782013
1.03053
1.13405
-1.18729
-0.0819966
0.13524
0.917043
-0.398831
0.184601
-0.702813
-0.105985
0.642383
2.05483
-2.59123
-1.34663
2.07315
2.1094
-2.83592
-2.7177
3.27538
1.60329
-2.16097
-3.77304
4.20353
1.02223
-1.45273
-4.56899
4.88109
0.578509
-0.890603
-5.14329
5.36852
0.303492
-0.528715
-5.56829
5.7331
0.0891141
-0.253929
-5.85793
5.95927
0.0825238
-0.183862
-6.04043
6.11515
0.112405
-0.187127
-6.20167
6.31137
0.0946888
-0.20438
-6.43064
6.52859
0.253201
-0.351153
-6.60574
6.67474
0.575051
-0.644047
-6.73043
6.82351
0.684406
-0.777481
-6.94389
7.08676
0.59983
-0.742699
-7.27685
7.50013
0.440578
-0.663859
-7.6791
7.8954
0.314456
-0.530757
-8.17812
8.41073
0.0773334
-0.309939
-8.35031
7.5854
0.288788
0.476123
-7.08763
7.40619
-2.94217
2.62361
-7.44038
7.46821
-0.448898
0.421069
-7.6094
7.37036
0.379278
-0.140237
-6.94498
6.88069
0.102604
-0.038321
-6.85433
6.84152
0.0745856
-0.0617756
-6.83402
6.82852
0.0347839
-0.0292834
-6.82335
6.81741
0.0139325
-0.00800025
-6.81036
6.80211
0.00559212
0.00266712
-6.7934
6.78435
-0.0072731
0.016323
-6.77607
6.76864
-0.020205
0.0276342
-6.76175
6.75539
-0.0138194
0.0201863
-6.74905
6.74162
0.0105852
-0.00315502
-6.73318
6.72546
0.0165328
-0.00881682
-6.72037
6.71901
-0.0165575
0.0179195
-6.72215
6.72504
-0.0214933
0.0186104
-6.72409
6.71906
0.0265946
-0.0215628
-6.7149
6.71761
0.0183465
-0.0210531
-6.72715
6.73725
0.0139432
-0.0240408
-6.7372
6.72693
0.0697558
-0.0594852
-6.71042
6.70287
0.0173367
-0.00979055
-6.71487
6.73164
-0.0784284
0.0616637
-6.72711
6.7174
-0.0189291
0.0286346
-6.70179
6.6871
-0.0163841
0.0310696
0.26375
-0.363473
0.0997232
-0.135587
0.157983
0.170354
-0.19275
-0.177385
0.197897
0.150077
-0.170588
-0.218421
0.237214
0.12504
-0.143832
-0.256255
0.276645
0.0900283
-0.110418
-0.295629
0.312827
0.0746773
-0.0918746
-0.329439
0.348541
0.0828985
-0.102001
-0.366876
0.384937
0.0987048
-0.116766
-0.404008
0.423438
0.0987047
-0.118135
-0.442756
0.459215
0.0897483
-0.106208
-0.469875
0.472671
0.053711
-0.0565071
-0.466238
0.444863
-0.0624961
0.0838714
-0.404254
0.346343
-0.287458
0.345368
-0.286132
0.226006
-0.631184
0.69131
-0.123166
-0.063526
-0.910672
1.09736
0.252468
-0.385511
-0.864482
0.997526
0.448813
-0.482448
-1.14254
1.17618
0.554318
-0.417987
-0.0963461
-0.0399848
0.184353
0.145837
1.07816
-1.40835
-1.01201
1.94257
3.31831
-4.24887
-2.40508
2.77909
3.42047
-3.79448
-3.14888
3.51484
2.59162
-2.95758
-3.87355
4.21714
1.83448
-2.17808
-4.53809
4.83334
1.19424
-1.48949
-5.09775
5.32937
0.759502
-0.991123
-5.53971
5.74733
0.447234
-0.654854
-5.93209
6.06571
0.311052
-0.444674
-6.16685
6.23779
0.263444
-0.334388
-6.29161
6.3559
0.282001
-0.346284
-6.43095
6.49167
0.420891
-0.481611
-6.53963
6.57491
0.693447
-0.728728
-6.60661
6.65098
0.844135
-0.888499
-6.70979
6.77376
0.837946
-0.901912
-6.8358
6.88834
0.757343
-0.809883
-6.92168
6.93579
0.586356
-0.600473
-6.92274
6.88415
0.249566
-0.210972
-6.8293
6.94087
-0.427508
0.315942
-7.64216
8.24998
-2.21968
1.61186
-8.62066
8.37444
-0.35331
0.599529
-7.71799
7.32465
-0.393322
0.786661
-7.28249
7.18452
-0.0946246
0.192588
-7.11213
7.06164
0.0250735
0.025415
-7.02704
7.00259
0.0125224
0.0119203
-6.98396
6.96808
-0.00363326
0.0195173
-6.95326
6.939
-0.014374
0.0286363
-6.92564
6.91347
-0.0270006
0.0391705
-6.90279
6.89348
-0.0359238
0.0452364
-6.88502
6.87676
-0.0274838
0.0357409
-6.86803
6.85837
-0.00579884
0.0154582
-6.84834
6.83966
-0.000111338
0.00879166
-6.83416
6.83243
-0.0192682
0.0209971
-6.83337
6.8345
-0.0161654
0.0150295
-6.83269
6.82899
0.0173001
-0.0135978
-6.82591
6.826
0.0219939
-0.022089
-6.82982
6.83076
0.0279413
-0.0288875
-6.8269
6.81803
0.0491484
-0.0402776
-6.8092
6.80876
0.00598041
-0.00553576
-6.81904
6.83116
-0.0474374
0.0353153
-6.83231
6.82908
-0.0344444
0.0376806
-6.81876
6.80615
-0.0450983
0.0576986
0.451451
-0.529157
0.0777068
-0.131459
0.151752
0.211808
-0.2321
-0.163837
0.176133
0.186022
-0.198318
-0.19067
0.206926
0.161973
-0.17823
-0.223127
0.239922
0.128618
-0.145413
-0.256086
0.270632
0.107181
-0.121727
-0.282222
0.294742
0.11636
-0.12888
-0.309555
0.324051
0.132515
-0.147012
-0.339581
0.355702
0.136191
-0.152312
-0.370501
0.382203
0.120233
-0.131935
-0.387812
0.38589
0.0574617
-0.0555403
-0.377292
0.360444
-0.10262
0.119468
-0.327808
0.272936
-0.401034
0.455906
-0.21458
0.19708
-0.717703
0.735203
-0.217285
0.174309
-1.25231
1.29528
0.0457165
-0.28567
-1.15679
1.39675
0.39187
-0.326692
-1.16277
1.0976
0.0527932
0.09885
0.200666
-0.35231
0.00734199
1.2063
2.33659
-3.55024
-2.52718
2.84483
4.7017
-5.01935
-3.07236
3.32454
4.09226
-4.34443
-3.59921
3.8822
3.27393
-3.55692
-4.16534
4.44703
2.48489
-2.76658
-4.72076
4.98116
1.76542
-2.02582
-5.22114
5.43813
1.21781
-1.4348
-5.63019
5.79879
0.834773
-1.00337
-5.94464
6.06825
0.573638
-0.697245
-6.17273
6.26026
0.421232
-0.508763
-6.33051
6.39145
0.408939
-0.469889
-6.44492
6.48582
0.530355
-0.571248
-6.5131
6.52834
0.752744
-0.767985
-6.53662
6.54669
0.913242
-0.923309
-6.56248
6.58354
0.940898
-0.961961
-6.60788
6.63294
0.844557
-0.86961
-6.65524
6.67569
0.613142
-0.633593
-6.69629
6.72081
0.20874
-0.23326
-6.74769
6.78012
-0.315792
0.283367
-6.83828
6.96983
-0.919701
0.788151
-7.08597
7.24342
-1.11107
0.953615
-7.33354
7.36872
-0.724824
0.689646
-7.34851
7.29595
-0.263176
0.315737
-7.2379
7.18952
-0.0781774
0.126558
-7.15285
7.12521
-0.0394826
0.0671234
-7.10328
7.08416
-0.0376085
0.0567276
-7.06621
7.0491
-0.0444388
0.0615539
-7.03324
7.01896
-0.052371
0.0666531
-7.00641
6.99536
-0.0553677
0.0664141
-6.98542
6.97603
-0.0445747
0.0539595
-6.96677
6.95741
-0.0250229
0.0343763
-6.94847
6.94094
-0.0168804
0.0244074
-6.93579
6.93318
-0.0231605
0.0257709
-6.93214
6.93131
-0.0150016
0.0158305
-6.92929
6.92663
0.0105086
-0.00784097
-6.9245
6.92369
0.0216467
-0.020845
-6.92417
6.92291
0.028318
-0.0270568
-6.91963
6.91488
0.033642
-0.0288989
-6.91161
6.91357
0.00667403
-0.00863308
-6.92128
6.9306
-0.0249386
0.0156132
-6.93509
6.93601
-0.038712
0.0377883
-6.93064
6.92146
-0.0684805
0.077657
0.595966
-0.64884
0.0528741
-0.104162
0.123761
0.252262
-0.271862
-0.13422
0.143032
0.208185
-0.216997
-0.152947
0.165607
0.192956
-0.205617
-0.179005
0.19211
0.160509
-0.173614
-0.204856
0.216554
0.134101
-0.1458
-0.229113
0.241605
0.142037
-0.154529
-0.252005
0.26184
0.15906
-0.168894
-0.271711
0.28262
0.165766
-0.176675
-0.29379
0.301641
0.141306
-0.149158
-0.301487
0.290137
0.0496826
-0.0383321
-0.270512
0.251923
-0.135381
0.15397
-0.235824
0.203303
-0.502859
0.53538
-0.120463
0.00867344
-0.785235
0.897024
-0.0100321
0.0598417
-1.22139
1.17158
-0.11917
0.21222
-1.54687
1.45382
-0.206255
0.477633
-0.817715
0.546337
-0.860545
0.865315
0.410769
-0.415539
-2.08405
3.0119
4.79138
-5.71923
-3.24474
3.43011
5.24938
-5.43474
-3.61969
3.82469
4.56466
-4.76966
-4.04755
4.28099
3.80878
-4.04222
-4.52024
4.75909
3.02218
-3.26104
-4.99391
5.21779
2.26463
-2.48852
-5.42482
5.61149
1.6349
-1.82157
-5.77598
5.91872
1.15745
-1.30019
-6.04141
6.14692
0.811118
-0.916624
-6.23762
6.31516
0.591769
-0.669307
-6.37912
6.43158
0.526656
-0.57912
-6.47265
6.4999
0.604401
-0.631642
-6.51343
6.51594
0.775731
-0.778234
-6.51038
6.50181
0.922236
-0.913667
-6.49482
6.49323
0.969539
-0.967954
-6.49883
6.51264
0.887886
-0.901695
-6.53436
6.56489
0.659879
-0.690412
-6.60601
6.65835
0.274157
-0.326499
-6.72286
6.80198
-0.219848
0.140726
-6.89863
7.01065
-0.674437
0.562412
-7.12517
7.22963
-0.835272
0.730819
-7.30563
7.34725
-0.652594
0.610973
-7.35299
7.33386
-0.351334
0.370468
-7.30507
7.27657
-0.165618
0.194117
-7.2519
7.23135
-0.091761
0.112313
-7.21342
7.19594
-0.0753034
0.0927786
-7.17769
7.15915
-0.0793098
0.0978485
-7.14167
7.12586
-0.0816015
0.0974091
-7.11187
7.09951
-0.0780497
0.0904083
-7.0885
7.07851
-0.0635852
0.0735813
-7.06928
7.0607
-0.0432439
0.0518264
-7.05302
7.04667
-0.0312356
0.0375814
-7.042
7.03887
-0.0286669
0.0317961
-7.03663
7.03457
-0.0173251
0.0193862
-7.03219
7.02982
0.00544077
-0.0030726
-7.02796
7.02675
0.0198194
-0.018607
-7.02597
7.02441
0.0255686
-0.0240014
-7.02221
7.01996
0.0256566
-0.0234083
-7.01907
7.02121
0.0108654
-0.013013
-7.02686
7.03445
-0.00723734
-0.000351828
-7.04075
7.04493
-0.0351321
0.0309472
-7.04384
7.03816
-0.0850754
0.0907547
0.687019
-0.70468
0.0176607
-0.0641444
0.079599
0.290877
-0.306331
-0.0911705
0.101248
0.224599
-0.234677
-0.115161
0.126079
0.217114
-0.228032
-0.135608
0.144105
0.18454
-0.193037
-0.152815
0.162257
0.157756
-0.167197
-0.171581
0.179259
0.164722
-0.1724
-0.186325
0.192674
0.176587
-0.182937
-0.197543
0.202726
0.184606
-0.189789
-0.210793
0.218368
0.156252
-0.163827
-0.217855
0.201242
0.0223848
-0.00577196
-0.165394
0.118069
-0.182673
0.229998
-0.081278
0.0569862
-0.557683
0.581975
-0.0106811
-0.0990407
-1.05201
1.16173
0.216271
-0.168733
-1.1209
1.07337
0.0661402
0.0424794
-1.38222
1.2736
-0.662797
0.92504
-0.0983542
-0.163889
-1.16931
2.23455
0.750102
-1.81535
-3.48943
3.6042
6.06253
-6.17731
-3.7198
3.87247
5.6002
-5.75286
-4.05042
4.24098
4.96561
-5.15618
-4.44412
4.65566
4.2607
-4.47224
-4.87029
5.08254
3.48343
-3.69568
-5.28711
5.47885
2.69402
-2.88577
-5.65281
5.80789
1.99072
-2.1458
-5.9429
6.05863
1.42829
-1.54402
-6.15773
6.2427
1.01097
-1.09593
-6.31602
6.37834
0.738681
-0.800997
-6.43021
6.47293
0.625774
-0.668494
-6.50587
6.5256
0.653723
-0.673451
-6.53265
6.53089
0.777206
-0.775449
-6.52138
6.50584
0.900225
-0.884685
-6.48839
6.47436
0.959371
-0.945341
-6.46804
6.47255
0.910919
-0.915424
-6.48981
6.52151
0.722747
-0.754443
-6.56903
6.63185
0.385183
-0.448004
-6.70833
6.7968
-0.0561302
-0.0323372
-6.89469
6.99842
-0.456089
0.352362
-7.10176
7.19634
-0.633866
0.539293
-7.27314
7.32703
-0.564135
0.510242
-7.35725
7.36862
-0.373531
0.362156
-7.36874
7.36261
-0.211113
0.217238
-7.35291
7.342
-0.127778
0.138686
-7.33067
7.31745
-0.108177
0.121402
-7.30044
7.28081
-0.116753
0.136386
-7.26189
7.24493
-0.113681
0.130646
-7.23
7.21677
-0.103142
0.116367
-7.20495
7.1944
-0.0837388
0.0942837
-7.18506
7.1768
-0.0600728
0.0683372
-7.16969
7.16397
-0.0434586
0.0491814
-7.15967
7.15646
-0.0349886
0.038198
-7.15373
7.15097
-0.0218576
0.0246259
-7.14798
7.14517
0.000589122
0.00221997
-7.14283
7.14104
0.0171931
-0.0154062
-7.13956
7.13779
0.0223911
-0.0206165
-7.13594
7.13466
0.0218189
-0.0205386
-7.13442
7.13567
0.0147566
-0.0160111
-7.13881
7.14373
0.0067735
-0.0116859
-7.14899
7.15457
-0.0257318
0.0201512
-7.15782
7.1572
-0.0943015
0.0949285
0.70202
-0.702208
0.000187992
-0.0211121
0.0510505
0.326843
-0.356781
-0.0774875
0.0936121
0.254545
-0.27067
-0.0982682
0.0995557
0.233286
-0.234574
-0.099587
0.0996403
0.197555
-0.197608
-0.10037
0.101699
0.172686
-0.174015
-0.102953
0.103514
0.176865
-0.177427
-0.105335
0.109347
0.188641
-0.192654
-0.111593
0.112719
0.192352
-0.193478
-0.117126
0.127094
0.172567
-0.182535
-0.138167
0.139566
-0.00516959
0.00377066
-0.115435
0.0417595
-0.294862
0.368538
0.120342
-0.215877
-0.626778
0.722314
0.297683
-0.502878
-1.21737
1.42256
0.658831
-0.543307
-1.01423
0.89871
0.0674239
0.524518
-0.687165
0.0952229
-0.701636
0.869719
0.1585
-0.326583
-1.83916
3.84542
3.81476
-5.82102
-3.85085
3.95792
6.29835
-6.40542
-4.07291
4.21871
5.89889
-6.04469
-4.3908
4.57631
5.34303
-5.52854
-4.77296
4.97449
4.67627
-4.87779
-5.17482
5.36828
3.89534
-4.0888
-5.54677
5.7084
3.06105
-3.22268
-5.84956
5.97135
2.28328
-2.40507
-6.07527
6.163
1.64485
-1.73258
-6.2388
6.30572
1.17047
-1.2374
-6.3658
6.41868
0.856645
-0.90952
-6.46394
6.50475
0.708424
-0.749232
-6.54066
6.56539
0.693437
-0.71817
-6.57725
6.58331
0.775886
-0.78195
-6.58309
6.57299
0.870412
-0.86032
-6.55112
6.52634
0.926363
-0.901578
-6.50506
6.49466
0.913466
-0.903064
-6.49928
6.52262
0.782476
-0.805811
-6.56576
6.62814
0.5112
-0.573585
-6.70719
6.79833
0.122041
-0.213175
-6.89805
7.00022
-0.251345
0.149168
-7.10159
7.19672
-0.446483
0.351354
-7.28003
7.3478
-0.4498
0.382024
-7.39833
7.43279
-0.338528
0.304076
-7.45585
7.46993
-0.213017
0.198939
-7.47343
7.46847
-0.145778
0.150745
-7.45999
7.45028
-0.132012
0.14173
-7.43552
7.41315
-0.15683
0.1792
-7.39252
7.37518
-0.147793
0.165134
-7.36045
7.34747
-0.129559
0.142542
-7.33553
7.32453
-0.105016
0.116018
-7.31453
7.30565
-0.0767595
0.085649
-7.29807
7.29211
-0.054877
0.0608303
-7.28798
7.28532
-0.0412119
0.0438709
-7.2833
7.28089
-0.0273539
0.0297629
-7.27774
7.27372
-0.00549063
0.00950945
-7.26971
7.26623
0.0129348
-0.00945978
-7.26354
7.26116
0.0185744
-0.016198
-7.259
7.25754
0.0193182
-0.0178566
-7.25744
7.25875
0.0170275
-0.0183361
-7.26027
7.26014
0.0143345
-0.014199
-7.25976
7.26071
-0.0161711
0.0152253
-7.26512
7.27181
-0.0902733
0.0835809
0.732225
-0.76666
0.0344353
-0.0531248
0.0718442
0.386027
-0.404747
-0.0815226
0.0831688
0.277582
-0.279228
-0.0791946
0.0720387
0.231309
-0.224153
-0.0635843
0.0549191
0.193173
-0.184508
-0.0467756
0.0393265
0.170917
-0.163468
-0.0316241
0.0228754
0.173524
-0.164775
-0.0139429