/*--------------------------------*- C++ -*----------------------------------*\
| =========                 |                                                 |
| \\      /  F ield         | OpenFOAM: The Open Source CFD Toolbox           |
|  \\    /   O peration     | Version:  v1912                                 |
|   \\  /    A nd           | Website:  www.openfoam.com                      |
|    \\/     M anipulation  |                                                 |
\*---------------------------------------------------------------------------*/
FoamFile
{
    version     2.0;
    format      ascii;
    class       volVectorField;
    location    "36";
    object      U;
}
// * * * * * * * * * * * * * * * * * * * * * * * * * * * * * * * * * * * * * //

dimensions      [0 1 -1 0 0 0 0];


internalField   nonuniform List<vector> 
20320
(
(1.85465 0.00628578 0)
(1.85353 -0.00519607 0)
(1.83798 0.00444288 0)
(1.80856 0.0124269 0)
(1.76758 0.0194919 0)
(1.71621 0.0262456 0)
(1.65457 0.0325979 0)
(1.58295 0.0384969 0)
(1.50182 0.0442811 0)
(1.4117 0.0495425 0)
(1.31329 0.0543811 0)
(1.20697 0.0593451 0)
(1.09319 0.0639533 0)
(0.972733 0.0680672 0)
(0.846257 0.0720587 0)
(0.714273 0.0763525 0)
(0.576699 0.0816491 0)
(0.433097 0.0897194 0)
(0.281467 0.103264 0)
(0.116181 0.124786 0)
(1.85478 0.0112844 0)
(1.84626 0.035644 0)
(1.827 0.0666702 0)
(1.79671 0.0977652 0)
(1.75541 0.128337 0)
(1.70339 0.158219 0)
(1.64103 0.187234 0)
(1.5687 0.215223 0)
(1.48673 0.242017 0)
(1.39562 0.267587 0)
(1.29581 0.291786 0)
(1.18773 0.314418 0)
(1.07181 0.335417 0)
(0.948477 0.35463 0)
(0.818184 0.371795 0)
(0.68135 0.386784 0)
(0.538451 0.399754 0)
(0.390281 0.411804 0)
(0.23823 0.426367 0)
(0.0844164 0.456562 0)
(1.85477 0.0170675 0)
(1.84627 0.069771 0)
(1.82674 0.125306 0)
(1.79625 0.180343 0)
(1.75495 0.23456 0)
(1.70298 0.287508 0)
(1.6406 0.338884 0)
(1.56814 0.388392 0)
(1.486 0.435781 0)
(1.39464 0.480809 0)
(1.29461 0.523311 0)
(1.18654 0.563249 0)
(1.07102 0.600569 0)
(0.94856 0.635132 0)
(0.819575 0.666603 0)
(0.68441 0.694325 0)
(0.543375 0.7173 0)
(0.397107 0.734733 0)
(0.247116 0.74771 0)
(0.0976388 0.779946 0)
(1.85477 0.0228401 0)
(1.84652 0.0997855 0)
(1.82735 0.179082 0)
(1.79718 0.25749 0)
(1.75617 0.334567 0)
(1.70454 0.409901 0)
(1.64249 0.483068 0)
(1.57029 0.553635 0)
(1.48827 0.621169 0)
(1.39683 0.685266 0)
(1.2965 0.745567 0)
(1.18791 0.801841 0)
(1.0718 0.854021 0)
(0.948986 0.902157 0)
(0.820204 0.946233 0)
(0.686 0.985806 0)
(0.546749 1.0196 0)
(0.402661 1.04554 0)
(0.253973 1.06253 0)
(0.102883 1.09633 0)
(1.85477 0.0283081 0)
(1.84666 0.127814 0)
(1.8278 0.229413 0)
(1.7981 0.329938 0)
(1.7577 0.42886 0)
(1.70675 0.525684 0)
(1.64543 0.619894 0)
(1.57397 0.710943 0)
(1.49263 0.798273 0)
(1.40177 0.881302 0)
(1.30182 0.959479 0)
(1.19331 1.03231 0)
(1.07692 1.09942 0)
(0.95349 1.16069 0)
(0.82397 1.21622 0)
(0.689229 1.26601 0)
(0.549854 1.3091 0)
(0.406094 1.34307 0)
(0.257905 1.36537 0)
(0.105357 1.40158 0)
(1.85477 0.0334478 0)
(1.84686 0.154287 0)
(1.82848 0.276994 0)
(1.7995 0.398515 0)
(1.76001 0.518248 0)
(1.71011 0.635635 0)
(1.64993 0.75008 0)
(1.5796 0.860926 0)
(1.49934 0.967498 0)
(1.40942 1.06907 0)
(1.31021 1.1649 0)
(1.20215 1.2543 0)
(1.08583 1.33659 0)
(0.961985 1.4113 0)
(0.831559 1.47833 0)
(0.695605 1.53785 0)
(0.555039 1.58945 0)
(0.410357 1.63098 0)
(0.261511 1.65907 0)
(0.106979 1.69794 0)
(1.85477 0.0382196 0)
(1.84716 0.17902 0)
(1.82944 0.32149 0)
(1.80148 0.462752 0)
(1.76329 0.602157 0)
(1.7149 0.739112 0)
(1.65634 0.872961 0)
(1.58766 1.00295 0)
(1.50895 1.1283 0)
(1.42041 1.24813 0)
(1.3223 1.36153 0)
(1.21497 1.46761 0)
(1.0989 1.56543 0)
(0.97475 1.65415 0)
(0.843368 1.73331 0)
(0.705846 1.80289 0)
(0.563314 1.8628 0)
(0.416556 1.91133 0)
(0.265569 1.9448 0)
(0.10721 1.98617 0)
(1.85478 0.0425793 0)
(1.84756 0.201808 0)
(1.83075 0.362549 0)
(1.80417 0.522164 0)
(1.76775 0.680002 0)
(1.72143 0.835467 0)
(1.66511 0.987868 0)
(1.5987 1.13638 0)
(1.52217 1.28011 0)
(1.43556 1.41804 0)
(1.339 1.54909 0)
(1.23272 1.67213 0)
(1.1171 1.78598 0)
(0.99268 1.88947 0)
(0.860222 1.98168 0)
(0.720807 2.06218 0)
(0.57575 2.13088 0)
(0.426261 2.18644 0)
(0.272853 2.22516 0)
(0.110669 2.26858 0)
(1.85478 0.0464766 0)
(1.84809 0.222422 0)
(1.83248 0.399768 0)
(1.80772 0.576198 0)
(1.77365 0.751103 0)
(1.73007 0.923926 0)
(1.67674 1.09398 0)
(1.61339 1.2604 0)
(1.53982 1.4222 0)
(1.45587 1.5782 0)
(1.36148 1.72715 0)
(1.25673 1.8677 0)
(1.14182 1.99836 0)
(1.01716 2.11762 0)
(0.883421 2.22408 0)
(0.741605 2.31677 0)
(0.593115 2.39528 0)
(0.439478 2.45847 0)
(0.28163 2.50274 0)
(0.11245 2.54657 0)
(1.85478 0.0498578 0)
(1.84876 0.240604 0)
(1.83469 0.432695 0)
(1.81226 0.62422 0)
(1.78121 0.814666 0)
(1.74119 1.00357 0)
(1.69176 1.19031 0)
(1.63246 1.37399 0)
(1.56285 1.55356 0)
(1.48251 1.72773 0)
(1.39115 1.89504 0)
(1.28859 2.05389 0)
(1.17483 2.20249 0)
(1.05008 2.33892 0)
(0.914858 2.46125 0)
(0.770094 2.56786 0)
(0.617271 2.6577 0)
(0.458288 2.7295 0)
(0.29456 2.77954 0)
(0.115867 2.82239 0)
(1.85478 0.0526683 0)
(1.8496 0.256088 0)
(1.83743 0.460853 0)
(1.8179 0.665552 0)
(1.79064 0.869827 0)
(1.75511 1.07338 0)
(1.71068 1.27569 0)
(1.65663 1.47591 0)
(1.59223 1.67295 0)
(1.51677 1.86544 0)
(1.42961 2.05174 0)
(1.33023 2.22999 0)
(1.21832 2.39804 0)
(1.09381 2.55352 0)
(0.956973 2.69392 0)
(0.80858 2.8168 0)
(0.650135 2.92027 0)
(0.483899 3.00254 0)
(0.311777 3.05963 0)
(0.118991 3.10061 0)
(1.85478 0.054858 0)
(1.8506 0.268611 0)
(1.84073 0.483767 0)
(1.82472 0.6995 0)
(1.80207 0.91567 0)
(1.77209 1.13221 0)
(1.73391 1.34878 0)
(1.68654 1.56465 0)
(1.62892 1.77878 0)
(1.55995 1.98974 0)
(1.47858 2.19576 0)
(1.38383 2.39475 0)
(1.27493 2.58419 0)
(1.15136 2.76121 0)
(1.01301 2.92261 0)
(0.860366 3.06499 0)
(0.694859 3.18524 0)
(0.519167 3.28059 0)
(0.335989 3.34625 0)
(0.12471 3.38464 0)
(1.85479 0.0563864 0)
(1.85177 0.277945 0)
(1.84458 0.501013 0)
(1.8327 0.725422 0)
(1.81553 0.951313 0)
(1.79221 1.17892 0)
(1.76167 1.40818 0)
(1.72263 1.63855 0)
(1.67367 1.86914 0)
(1.61325 2.09857 0)
(1.53979 2.32504 0)
(1.45175 2.54628 0)
(1.34768 2.75945 0)
(1.2264 2.96117 0)
(1.08714 3.14747 0)
(0.929832 3.31378 0)
(0.755619 3.4554 0)
(0.56757 3.56798 0)
(0.369617 3.64533 0)
(0.134471 3.67991 0)
(1.85479 0.0572275 0)
(1.85309 0.28392 0)
(1.84893 0.512259 0)
(1.84176 0.742788 0)
(1.8309 0.975973 0)
(1.81537 1.21242 0)
(1.79393 1.45243 0)
(1.76502 1.69577 0)
(1.72689 1.94182 0)
(1.67753 2.18939 0)
(1.61478 2.4368 0)
(1.53635 2.68176 0)
(1.43993 2.92128 0)
(1.32334 3.15151 0)
(1.18474 3.36774 0)
(1.02302 3.56404 0)
(0.838536 3.73363 0)
(0.634404 3.86965 0)
(0.415706 3.96336 0)
(0.145956 3.99249 0)
(1.85479 0.0573752 0)
(1.85453 0.286447 0)
(1.85368 0.517314 0)
(1.8517 0.751245 0)
(1.84788 0.989063 0)
(1.84119 1.2318 0)
(1.83026 1.48021 0)
(1.81337 1.73447 0)
(1.78846 1.99438 0)
(1.7531 2.25916 0)
(1.70453 2.52745 0)
(1.63963 2.79722 0)
(1.55502 3.0656 0)
(1.44713 3.32862 0)
(1.31249 3.58097 0)
(1.14813 3.81539 0)
(0.95267 4.02254 0)
(0.728528 4.19181 0)
(0.481801 4.31021 0)
(0.162873 4.33607 0)
(1.8548 0.0568464 0)
(1.85604 0.285545 0)
(1.85869 0.516171 0)
(1.86224 0.750694 0)
(1.86601 0.990297 0)
(1.86901 1.23646 0)
(1.86985 1.49045 0)
(1.86676 1.75299 0)
(1.85751 2.02441 0)
(1.83938 2.30456 0)
(1.80907 2.5927 0)
(1.76271 2.88745 0)
(1.69572 3.18653 0)
(1.60285 3.48643 0)
(1.47828 3.7819 0)
(1.316 4.06486 0)
(1.11107 4.32325 0)
(0.862872 4.54122 0)
(0.576936 4.69843 0)
(0.185029 4.73334 0)
(1.8548 0.0556811 0)
(1.85757 0.281347 0)
(1.86379 0.509032 0)
(1.87302 0.741336 0)
(1.88469 0.979771 0)
(1.89792 1.22626 0)
(1.91147 1.4826 0)
(1.92365 1.75009 0)
(1.93229 2.02977 0)
(1.93459 2.32229 0)
(1.92699 2.62783 0)
(1.90506 2.94608 0)
(1.86323 3.27602 0)
(1.79454 3.61555 0)
(1.69037 3.96077 0)
(1.54034 4.30435 0)
(1.33322 4.63276 0)
(1.06095 4.92425 0)
(0.725254 5.14603 0)
(0.242789 5.20276 0)
(1.8548 0.0539411 0)
(1.85907 0.274102 0)
(1.86878 0.496308 0)
(1.88363 0.723686 0)
(1.9032 0.958012 0)
(1.92683 1.20159 0)
(1.95355 1.45672 0)
(1.98196 1.72529 0)
(2.01017 2.00907 0)
(2.03564 2.30963 0)
(2.05497 2.62829 0)
(2.06367 2.96621 0)
(2.05577 3.32428 0)
(2.0232 3.70293 0)
(1.95496 4.10157 0)
(1.8358 4.51671 0)
(1.64537 4.93767 0)
(1.36025 5.34047 0)
(0.965124 5.67749 0)
(0.353155 5.80508 0)
(1.85481 0.0517052 0)
(1.86048 0.264156 0)
(1.87349 0.478604 0)
(1.89368 0.698564 0)
(1.92083 0.925983 0)
(1.95459 1.16344 0)
(1.99436 1.41367 0)
(2.03921 1.67905 0)
(2.08781 1.96203 0)
(2.13821 2.26507 0)
(2.18768 2.59068 0)
(2.23244 2.94161 0)
(2.26712 3.32105 0)
(2.28403 3.73283 0)
(2.2717 4.18155 0)
(2.21227 4.67175 0)
(2.07714 5.20381 0)
(1.82167 5.76498 0)
(1.38691 6.30781 0)
(0.597424 6.6302 0)
(1.85481 0.049063 0)
(1.86175 0.251931 0)
(1.87776 0.456668 0)
(1.90281 0.667028 0)
(1.93695 0.885022 0)
(1.98013 1.11338 0)
(2.03222 1.35511 0)
(2.09288 1.61295 0)
(2.16152 1.88982 0)
(2.23714 2.18894 0)
(2.31817 2.51378 0)
(2.40225 2.86843 0)
(2.4859 3.25813 0)
(2.56382 3.69 0)
(2.62761 4.17433 0)
(2.66293 4.72615 0)
(2.64301 5.36528 0)
(2.51543 6.11321 0)
(2.16967 6.98341 0)
(1.30864 7.81253 0)
(0.146548 0.04573 0)
(0.321319 -0.0984544 0)
(0.73951 -0.0671609 0)
(1.08065 -0.0539379 1.15788e-21)
(1.32343 -0.0277774 0)
(1.47257 -0.0225078 0)
(1.6276 -0.025167 0)
(1.83261 -0.037567 0)
(2.0492 -0.032771 0)
(2.26247 -0.0333641 2.86862e-21)
(2.4634 -0.0324956 0)
(2.56597 -0.00807262 0)
(2.29974 0.0995618 -3.27525e-22)
(1.15064 0.348338 6.35212e-22)
(-1.17534 0.381473 0)
(-3.28126 0.870997 1.36842e-21)
(-8.15991 0.406322 -2.21911e-20)
(-8.46667 -0.0756899 -5.29297e-20)
(-9.67585 0.563807 0)
(-4.29828 -2.85032 -5.75071e-19)
(5.47847 -2.36428 5.08309e-20)
(13.7392 -1.56856 -6.43834e-19)
(19.2328 -0.659407 3.29541e-19)
(22.1 -0.38752 -3.48542e-19)
(23.6067 -0.118251 0)
(23.7051 0.184396 -1.37709e-19)
(23.5562 0.0239942 0)
(23.742 -0.0804361 6.16933e-20)
(23.9895 0.244664 4.64991e-20)
(24.1586 -0.0395714 0)
(27.1188 -1.65514 1.37768e-20)
(31.6006 -1.38818 -5.68061e-19)
(34.541 -0.636623 2.667e-19)
(35.7391 1.69307 -4.17282e-20)
(35.4159 0.149754 0)
(35.8417 -5.54967 0)
(38.9076 -9.87508 -1.18418e-19)
(33.9539 14.3735 0)
(22.642 1.86284 -1.1936e-21)
(23.5064 0.181067 0)
(23.9203 -0.103665 0)
(24.3821 -0.11897 -4.30537e-21)
(24.6875 -0.0626814 0)
(24.8123 -0.0304883 0)
(24.8863 -0.0378872 3.46492e-22)
(24.9245 -0.013785 2.67795e-23)
(24.8571 0.0320848 0)
(24.7522 0.0231642 -2.22404e-23)
(24.7495 -0.0505333 5.46009e-24)
(24.9304 -0.107097 5.47144e-22)
(24.9755 0.0153014 0)
(24.7455 0.127888 2.52167e-23)
(24.7383 -0.0920029 0)
(25.0242 -0.0952096 4.01765e-22)
(24.8959 0.0931401 0)
(25.0991 -0.230677 0)
(25.8345 -0.274094 -3.80273e-23)
(25.3404 0.164913 1.48778e-24)
(25.1731 -0.0195118 0)
(25.2421 0.0140411 0)
(0.30385 -0.24229 0)
(0.572368 -0.245434 0)
(0.82042 -0.208875 -5.14536e-22)
(1.04142 -0.176492 0)
(1.20568 -0.115664 0)
(1.34351 -0.0953898 2.16541e-21)
(1.49445 -0.102575 -2.95893e-21)
(1.66783 -0.133259 0)
(1.84512 -0.131232 -2.61272e-25)
(2.01733 -0.122145 2.45483e-21)
(2.12755 -0.0864132 1.87627e-24)
(2.04915 0.0554247 1.65524e-21)
(1.57378 0.38248 2.84509e-21)
(0.635849 0.948151 0)
(-0.859948 1.23706 0)
(-2.31296 1.36542 -3.15065e-22)
(-3.59751 1.88453 0)
(-4.68204 0.180477 0)
(-2.25882 -0.816341 4.93991e-22)
(2.96407 -4.54647 0)
(8.12569 -4.89202 0)
(12.6153 -3.83781 0)
(15.9602 -2.56174 5.86071e-20)
(18.3628 -1.47761 -6.03174e-20)
(20.1622 -0.827088 5.201e-20)
(21.5121 -0.334628 4.30894e-20)
(22.449 -0.2671 0)
(23.073 -0.297544 0)
(23.7324 -0.268985 1.60445e-20)
(24.6729 -0.573947 -3.52307e-23)
(25.4555 -1.27805 0)
(25.9562 -1.5146 4.2505e-23)
(26.7953 -1.40244 -1.85707e-20)
(27.9777 -1.18859 0)
(28.8882 -0.98404 0)
(33.2178 -1.52848 -8.94811e-19)
(30.5109 -0.616228 0)
(26.2877 6.09909 0)
(28.3971 1.69194 0)
(28.7949 -1.37102 -6.59823e-20)
(26.1612 -0.208531 4.11427e-21)
(25.9192 -0.152776 -7.58132e-21)
(25.8534 -0.0718695 1.73958e-21)
(25.8073 -0.0261268 0)
(25.7516 -0.00877698 -5.19606e-22)
(25.6812 0.0202712 0)
(25.6149 0.0473619 4.54079e-23)
(25.5647 0.0341586 1.07992e-22)
(25.5222 -0.0185923 8.39618e-23)
(25.461 -0.0355932 6.70577e-23)
(25.4154 0.0317874 1.19234e-23)
(25.4359 0.0500306 2.11411e-22)
(25.4393 -0.0492986 -3.04521e-22)
(25.4068 -0.0489707 0)
(25.4716 -0.0294791 0)
(25.4727 -0.13597 0)
(25.345 -0.0434027 0)
(25.4198 0.128468 9.26415e-24)
(25.4279 0.0486547 -1.83299e-22)
(25.3364 0.0463879 0)
(0.601511 -0.630823 0)
(0.724868 -0.361011 -5.1297e-22)
(0.850351 -0.321044 0)
(0.974267 -0.267699 -8.10914e-22)
(1.08374 -0.200036 -4.15789e-22)
(1.20801 -0.166722 -1.87716e-21)
(1.34085 -0.185377 0)
(1.49034 -0.212738 -3.16139e-21)
(1.63039 -0.214564 0)
(1.76231 -0.194916 0)
(1.80483 -0.110077 0)
(1.64901 0.146911 0)
(1.15588 0.62821 0)
(0.45209 1.32326 0)
(-0.605708 1.97632 0)
(-1.96025 1.85582 0)
(-2.54165 2.26654 0)
(-2.07003 0.152666 -3.59078e-21)
(0.39425 -2.43259 0)
(9.18495 -7.88648 0)
(11.992 -7.23969 0)
(14.1633 -5.52052 0)
(16.3071 -3.98571 0)
(18.2522 -2.66226 0)
(19.9203 -1.72992 0)
(21.286 -1.08941 0)
(22.5486 -0.739227 0)
(23.2481 -0.61007 0)
(23.6687 -0.661211 1.68672e-20)
(24.256 -0.900594 0)
(24.7323 -1.40856 -1.25511e-20)
(25.0329 -1.72021 0)
(25.4548 -1.73031 0)
(25.8654 -1.56464 0)
(26.0137 -1.17436 0)
(25.7353 -0.394916 0)
(25.0941 0.676758 3.32286e-20)
(28.5755 4.19566 0)
(32.3674 0.8275 0)
(26.9413 1.38846 0)
(26.8165 0.298433 1.92361e-21)
(26.3217 -0.00162272 2.4372e-21)
(26.0646 -0.00282304 -1.3954e-21)
(25.9225 0.0216096 0)
(25.8101 0.0418741 -3.80679e-22)
(25.7082 0.0650475 0)
(25.6276 0.0799644 0)
(25.5671 0.0623145 0)
(25.5066 0.0210557 0)
(25.434 0.00878811 -3.19143e-23)
(25.3905 0.0396278 0)
(25.3986 0.0300676 -2.50729e-22)
(25.3911 -0.0300656 0)
(25.3689 -0.0437605 0)
(25.3918 -0.0575334 -9.15124e-23)
(25.3607 -0.0870833 9.01468e-23)
(25.2943 -0.0108832 1.81627e-22)
(25.3672 0.0814607 7.87063e-24)
(25.3902 0.0722212 0)
(25.3294 0.102657 1.20214e-23)
(0.678288 -0.972394 0)
(0.739691 -0.437893 0)
(0.801647 -0.380105 0)
(0.884308 -0.336261 0)
(0.97119 -0.271001 5.65158e-22)
(1.06624 -0.226391 0)
(1.16158 -0.241697 0)
(1.27793 -0.277582 5.58091e-24)
(1.39202 -0.285804 0)
(1.48412 -0.249797 -5.94762e-24)
(1.4655 -0.113159 -3.22831e-21)
(1.26734 0.218649 0)
(0.778004 0.846898 0)
(0.140389 1.44523 1.07234e-25)
(-0.0732775 2.60335 3.55915e-22)
(-1.51623 2.22585 -6.24087e-22)
(-2.34778 2.29741 1.65558e-20)
(0.576947 -0.530739 0)
(1.09669 -5.61613 -1.30465e-18)
(13.3805 -9.5795 0)
(14.4016 -8.3359 -1.21307e-22)
(15.831 -6.75004 1.38044e-22)
(17.356 -5.19063 -1.28834e-22)
(18.8719 -3.74777 3.81816e-20)
(20.264 -2.62783 -3.75594e-20)
(21.4102 -1.81914 0)
(22.3011 -1.2493 0)
(22.9618 -0.911928 -7.15334e-23)
(23.4609 -0.864641 5.29495e-23)
(23.8972 -1.08926 0)
(24.1905 -1.50332 1.11275e-20)
(24.315 -1.81687 0)
(24.4294 -1.88397 0)
(24.5498 -1.6936 0)
(24.6013 -1.22785 -4.21053e-21)
(24.5806 -0.433548 0)
(24.5966 0.57732 0)
(24.9025 1.41344 1.49117e-20)
(25.8249 1.75679 6.83593e-20)
(26.6444 1.39066 -3.08259e-21)
(26.6591 0.581916 -1.77552e-21)
(26.2954 0.206108 0)
(26.043 0.106268 1.82792e-21)
(25.8852 0.0930297 0)
(25.7536 0.10412 2.62049e-22)
(25.6371 0.11698 -1.23155e-22)
(25.5459 0.119741 0)
(25.4767 0.0969854 6.84146e-23)
(25.4135 0.0587685 0)
(25.3505 0.0410381 -6.41727e-23)
(25.3126 0.0480758 -6.08647e-23)
(25.3068 0.030075 1.0877e-22)
(25.296 -0.0179483 -1.1283e-22)
(25.2815 -0.0420264 -7.59718e-23)
(25.2832 -0.0546922 0)
(25.2579 -0.0608765 4.9548e-23)
(25.2331 -0.0148849 -2.73072e-23)
(25.2884 0.0394769 -8.86054e-24)
(25.3269 0.0762568 0)
(25.2976 0.144867 0)
(0.731937 -1.22749 2.33595e-22)
(0.668792 -0.515056 2.52893e-22)
(0.69782 -0.418201 0)
(0.755163 -0.391312 6.90332e-22)
(0.818303 -0.328297 -5.76432e-22)
(0.883091 -0.274704 0)
(0.974095 -0.292442 0)
(1.06411 -0.32282 8.00123e-24)
(1.13843 -0.337385 -7.2716e-24)
(1.19342 -0.285667 3.14559e-21)
(1.10779 -0.0888312 2.1093e-21)
(0.82112 0.280261 -1.61541e-23)
(0.399369 1.02204 -1.54651e-21)
(-0.442467 1.55336 0)
(-0.761641 2.35019 -1.79904e-23)
(-0.564709 2.97954 -3.33249e-20)
(0.235461 1.73819 0)
(3.11591 -0.907559 -1.53416e-20)
(14.8574 -10.7306 6.52815e-19)
(15.4654 -10.5137 0)
(16.3777 -9.16876 1.54682e-20)
(17.4192 -7.71482 -1.27435e-22)
(18.5851 -6.17618 0)
(19.7557 -4.67491 0)
(20.8222 -3.40015 3.54434e-20)
(21.6915 -2.4185 9.21908e-23)
(22.3514 -1.7008 0)
(22.8634 -1.24168 0)
(23.2733 -1.08843 5.77699e-23)
(23.5894 -1.21611 0)
(23.7544 -1.52718 -1.97419e-20)
(23.7691 -1.80445 -2.7487e-23)
(23.7273 -1.90526 6.69739e-21)
(23.7197 -1.75838 -9.08008e-21)
(23.7675 -1.32326 3.82252e-21)
(23.8986 -0.584572 -8.16221e-22)
(24.1699 0.363124 0)
(24.7018 1.22733 -1.04447e-23)
(25.4794 1.55227 0)
(26.0972 1.24307 7.18338e-22)
(26.2368 0.716072 7.39669e-22)
(26.0926 0.35881 -2.79129e-22)
(25.9414 0.202781 -5.02777e-22)
(25.819 0.165824 3.26225e-22)
(25.6885 0.173545 -1.02522e-22)
(25.5642 0.175282 -3.84474e-23)
(25.4665 0.165002 -1.12514e-22)
(25.3921 0.134432 -1.13349e-24)
(25.3309 0.0934093 9.16912e-23)
(25.2789 0.0677532 -8.95336e-23)
(25.2467 0.059297 8.86774e-23)
(25.2328 0.0358282 0)
(25.2191 -0.00840049 8.76311e-23)
(25.2072 -0.0378237 -7.61422e-23)
(25.2011 -0.048662 0)
(25.1846 -0.0478021 3.44616e-23)
(25.1774 -0.0236146 -4.37546e-24)
(25.2177 0.00619013 -8.34016e-26)
(25.2651 0.0653255 0)
(25.2632 0.173799 -3.83076e-23)
(0.710659 -1.36967 -1.99827e-22)
(0.540785 -0.584462 0)
(0.555807 -0.445644 -1.82139e-23)
(0.63274 -0.436898 0)
(0.665484 -0.370824 0)
(0.700286 -0.319122 -1.19751e-21)
(0.767379 -0.330348 0)
(0.823402 -0.351922 2.51051e-21)
(0.862289 -0.366891 -2.64744e-21)
(0.890418 -0.312266 6.58985e-21)
(0.764684 -0.0259322 -1.01771e-21)
(0.347729 0.397989 4.00056e-21)
(-0.23686 1.1155 1.33341e-21)
(-0.867046 2.19364 -2.08047e-19)
(-1.53268 2.15041 0)
(-0.997052 2.66963 -1.51115e-20)
(3.28401 -0.340978 0)
(4.98746 -2.18626 0)
(16.8331 -11.8613 -8.2175e-20)
(17.085 -11.1033 0)
(17.8783 -9.89042 0)
(18.7843 -8.53622 -2.49711e-20)
(19.7469 -7.0201 -6.52492e-20)
(20.651 -5.45961 0)
(21.4153 -4.05013 -3.42812e-20)
(22.0038 -2.91167 0)
(22.4395 -2.06402 2.24134e-20)
(22.787 -1.50765 0)
(23.0769 -1.26597 2.64744e-20)
(23.3042 -1.29617 0)
(23.3987 -1.51561 -8.57469e-21)
(23.3739 -1.74186 6.96487e-21)
(23.2633 -1.85952 0)
(23.1865 -1.78535 -3.43782e-21)
(23.2205 -1.44593 1.5445e-21)
(23.4132 -0.81483 2.77851e-22)
(23.7799 0.0247568 -3.84794e-24)
(24.3254 0.788923 -5.94621e-22)
(24.9955 1.14392 1.01668e-22)
(25.5625 1.05277 -1.83817e-24)
(25.839 0.72503 0)
(25.8928 0.423468 4.74319e-23)
(25.8523 0.262526 2.74721e-22)
(25.7793 0.226294 0)
(25.6579 0.250528 1.76378e-24)
(25.5275 0.241268 -8.77907e-23)
(25.4271 0.216437 1.41802e-22)
(25.3501 0.175576 1.6875e-22)
(25.2903 0.126815 -2.12095e-22)
(25.2445 0.0914344 -1.26061e-22)
(25.2165 0.0719204 1.28528e-22)
(25.1999 0.0456968 1.0232e-22)
(25.1823 0.00210681 -6.2761e-23)
(25.1675 -0.0314428 0)
(25.157 -0.0416804 1.02514e-22)
(25.1438 -0.0409679 0)
(25.1414 -0.030269 4.84484e-25)
(25.1641 -0.0188838 0)
(25.2025 0.0443341 0)
(25.2268 0.185813 0)
(0.604944 -1.33703 -2.57801e-21)
(0.454307 -0.664102 0)
(0.550188 -0.512359 0)
(0.560796 -0.457034 -3.27475e-22)
(0.524044 -0.386364 0)
(0.504332 -0.33925 0)
(0.513134 -0.346718 0)
(0.533144 -0.372309 0)
(0.550569 -0.375873 0)
(0.564636 -0.345191 0)
(0.485122 0.0164449 0)
(0.0874652 0.64813 -1.07786e-20)
(-1.23087 1.29227 0)
(-1.81449 2.68917 0)
(-2.82003 2.16756 -8.67637e-19)
(0.987413 -0.0311176 0)
(2.84889 -0.45787 -9.36821e-24)
(15.4736 -11.2464 0)
(17.8275 -12.3705 -6.13163e-24)
(18.2665 -11.6147 0)
(19.0106 -10.5743 0)
(19.8692 -9.29345 -2.80597e-20)
(20.6983 -7.77041 -3.45437e-20)
(21.3688 -6.1191 3.63649e-20)
(21.8348 -4.56725 -3.34279e-20)
(22.145 -3.28892 0)
(22.3777 -2.34328 1.10736e-22)
(22.6024 -1.71831 1.01589e-22)
(22.8257 -1.42019 0)
(23.0477 -1.37941 -1.00661e-20)
(23.1608 -1.52305 0)
(23.1863 -1.7033 -6.76843e-21)
(23.0546 -1.81413 3.90716e-23)
(22.8866 -1.78703 -2.01021e-21)
(22.8519 -1.54492 0)
(23.0368 -1.05412 4.50516e-23)
(23.4329 -0.338192 9.67382e-22)
(23.9831 0.371632 6.47151e-22)
(24.6165 0.763185 5.1327e-22)
(25.193 0.801648 8.47574e-23)
(25.5795 0.621462 0)
(25.7783 0.401801 -3.09948e-22)
(25.8231 0.293891 1.98822e-22)
(25.7695 0.268036 2.02589e-24)
(25.6633 0.309641 0)
(25.5209 0.291875 1.83352e-22)
(25.4254 0.255047 -2.57999e-22)
(25.3505 0.206159 1.62384e-22)
(25.2884 0.150632 0)
(25.241 0.107478 5.4386e-23)
(25.2152 0.0799866 0)
(25.2037 0.0519769 0)
(25.1855 0.00835228 0)
(25.1591 -0.0279707 0)
(25.1406 -0.038717 0)
(25.1253 -0.038967 0)
(25.1242 -0.0315815 0)
(25.1342 -0.0250889 2.82402e-22)
(25.1306 0.0350958 7.8763e-23)
(25.1607 0.178472 -1.46994e-23)
(0.815332 -1.45396 0)
(0.593109 -0.768286 3.5448e-24)
(0.546171 -0.541471 8.50525e-22)
(0.468189 -0.442416 -2.0203e-22)
(0.372112 -0.367353 0)
(0.294789 -0.325672 0)
(0.241184 -0.329666 0)
(0.194601 -0.366099 -3.20052e-22)
(0.170849 -0.378551 0)
(0.166424 -0.378619 0)
(0.140295 -0.0537733 0)
(0.0033404 0.778226 -9.17266e-20)
(-2.53827 1.67822 0)
(-2.73203 2.70055 0)
(-1.43302 1.22857 -2.89509e-20)
(0.409346 -0.302957 0)
(0.276815 0.0717778 0)
(17.9897 -12.9079 0)
(18.4947 -12.6552 -2.09961e-20)
(19.073 -12.1251 -2.08083e-20)
(19.8383 -11.2399 0)
(20.6505 -10.0111 -3.18886e-20)
(21.3291 -8.43793 -3.69767e-20)
(21.7313 -6.64456 -3.79985e-20)
(21.8717 -4.94973 -3.43473e-20)
(21.9297 -3.58547 0)
(22.04 -2.61254 0)
(22.2569 -1.9617 0)
(22.5438 -1.60476 0)
(22.8444 -1.47907 0)
(23.1139 -1.51662 0)
(23.1625 -1.666 -1.98298e-20)
(22.855 -1.53639 0)
(22.6661 -1.65186 0)
(22.5689 -1.58967 1.51108e-20)
(22.6653 -1.20552 2.7218e-20)
(23.062 -0.595996 1.72793e-22)
(23.7015 0.0397186 0)
(24.4031 0.447668 0)
(25.0086 0.572004 0)
(25.4665 0.5114 0)
(25.7552 0.374204 0)
(25.7961 0.296916 0)
(25.6211 0.30463 0)
(24.619 0.524788 0)
(24.2427 0.433599 0)
(24.0983 0.356293 0)
(24.0301 0.291351 0)
(23.9803 0.222216 0)
(23.9356 0.157767 -9.09663e-22)
(23.8886 0.109304 0)
(23.7729 0.160197 0)
(23.496 0.252148 0)
(23.3003 0.0608332 0)
(23.2064 -0.0139107 -5.37885e-23)
(23.2131 -0.0465846 0)
(23.3039 -0.0996197 0)
(23.4787 -0.195784 0)
(23.5723 -0.0128531 0)
(23.4842 0.312644 -2.26271e-22)
(0.829883 -1.55453 5.17271e-22)
(0.580774 -0.818849 0)
(0.457677 -0.531823 1.01822e-21)
(0.334414 -0.402255 0)
(0.205288 -0.318342 0)
(0.0839002 -0.279919 0)
(-0.023106 -0.276819 1.52187e-21)
(-0.140422 -0.312513 0)
(-0.239276 -0.348322 -5.06369e-22)
(-0.339395 -0.373217 0)
(-0.441334 -0.153144 4.72979e-21)
(-0.661344 1.10165 -2.4608e-19)
(-3.31384 1.87962 0)
(-3.01917 2.45446 0)
(-0.896838 0.347189 -6.79183e-20)
(0.112296 -0.633758 6.31488e-20)
(17.9998 -14.2125 -1.66647e-20)
(18.096 -13.2219 -4.47346e-20)
(18.8194 -13.0642 -2.43632e-20)
(19.5864 -12.6693 0)
(20.3828 -11.8892 3.04068e-20)
(21.0921 -10.6684 -3.61657e-20)
(21.5216 -8.98869 0)
(21.5389 -7.09074 4.13993e-20)
(21.3255 -5.28945 0)
(21.2856 -3.78223 -3.01586e-20)
(21.4631 -2.75194 -2.48334e-20)
(21.8169 -2.06902 0)
(21.5919 -1.93684 0)
(21.737 -1.635 0)
(21.6153 -1.47422 1.70418e-20)
(21.4859 -1.56593 1.45468e-20)
(21.3449 -1.53623 -3.35847e-20)
(21.2598 -1.60451 0)
(21.2243 -1.62937 1.97065e-20)
(21.3221 -1.6054 -2.92687e-20)
(21.627 -1.35048 1.33355e-21)
(22.3438 -0.908008 2.107e-20)
(23.7571 -0.173385 4.05429e-20)
(24.3877 0.150307 7.03915e-20)
(23.6016 0.141895 -4.2639e-21)
(23.1226 0.637536 -4.30564e-23)
(22.6258 0.58207 -1.37159e-21)
(22.1506 0.665003 6.66679e-21)
(21.902 0.752066 3.75644e-21)
(21.7845 0.505156 -6.03027e-22)
(21.6895 0.366893 0)
(21.6477 0.282086 -1.0204e-21)
(21.626 0.214202 -4.77374e-25)
(21.6028 0.162177 0)
(21.5573 0.144213 0)
(21.4678 0.224282 0)
(21.4525 0.289925 0)
(21.4427 0.121461 -2.51353e-22)
(21.4177 -0.000546263 0)
(21.4468 -0.0761101 0)
(21.5159 -0.159373 -1.19324e-22)
(21.5336 -0.205396 1.76599e-22)
(21.4902 0.00800145 5.25852e-22)
(21.5601 0.259939 3.36902e-22)
(0.818503 -1.6039 0)
(0.473988 -0.838829 0)
(0.282945 -0.506493 0)
(0.141201 -0.358452 0)
(0.0180905 -0.260422 0)
(-0.120052 -0.210868 0)
(-0.261955 -0.195692 0)
(-0.440698 -0.21248 0)
(-0.640338 -0.252078 0)
(-0.835792 -0.290342 0)
(-1.14628 -0.0424112 0)
(-2.44789 1.24419 0)
(-5.74769 3.99606 0)
(-3.37946 1.06401 0)
(-0.364043 -0.0415697 0)
(-0.135857 -0.148467 0)
(17.369 -13.7288 0)
(18.1332 -13.6924 0)
(19.017 -13.5886 0)
(19.8867 -13.2493 0)
(20.6385 -12.4957 0)
(21.1298 -11.2166 0)
(21.1244 -9.47805 0)
(20.7041 -7.41793 0)
(20.4804 -5.14126 0)
(20.0832 -3.93687 0)
(19.9384 -2.98521 1.98835e-20)
(19.8443 -2.22572 0)
(19.8642 -1.80779 0)
(19.766 -1.58881 0)
(19.7402 -1.43317 0)
(19.6382 -1.47375 0)
(19.5149 -1.48981 0)
(19.4327 -1.55718 0)
(19.3572 -1.61427 0)
(19.2727 -1.56285 0)
(19.2665 -1.25467 0)
(19.4298 -0.980429 0)
(19.6222 -0.517494 0)
(19.7715 0.244363 0)
(19.8402 0.59052 0)
(19.7129 0.795443 0)
(19.6329 0.770742 0)
(19.4581 0.787281 0)
(19.471 0.76423 0)
(19.5036 0.555889 0)
(19.4955 0.397757 0)
(19.4974 0.295571 0)
(19.5075 0.222862 9.50391e-22)
(19.5126 0.175568 1.02589e-21)
(19.5015 0.170177 0)
(19.4935 0.231379 0)
(19.5769 0.249256 0)
(19.6599 0.117656 0)
(19.7039 -0.0112147 8.7953e-23)
(19.7544 -0.104964 -5.14882e-23)
(19.8012 -0.179361 5.38578e-23)
(19.7886 -0.178869 0)
(19.7798 -0.0103428 4.14127e-22)
(19.9153 0.144556 0)
(0.768531 -1.5711 6.48766e-22)
(0.289884 -0.809769 0)
(0.00163754 -0.455349 7.18025e-21)
(-0.183342 -0.312414 -5.92936e-21)
(-0.262411 -0.220606 0)
(-0.351185 -0.140984 0)
(-0.491213 -0.106178 0)
(-0.703602 -0.0751641 -3.20754e-21)
(-0.954749 -0.106345 -2.72674e-21)
(-1.24737 -0.122693 0)
(-1.77119 0.259604 2.66191e-20)
(-2.61189 1.24875 0)
(-3.15157 5.21263 0)
(-0.9705 -0.576928 -6.36122e-20)
(-0.497061 -0.428853 -4.36863e-20)
(16.8436 -14.7945 -3.36106e-19)
(17.2129 -14.1589 -8.14892e-23)
(18.1404 -14.2303 0)
(19.1249 -14.1704 -6.07009e-20)
(19.9908 -13.822 6.79293e-20)
(20.5737 -13.0078 2.1613e-22)
(20.6909 -11.681 -8.78102e-20)
(20.6577 -9.19139 2.9294e-19)
(19.5653 -7.13426 1.24193e-20)
(18.8419 -5.32663 0)
(18.3904 -3.97783 1.11829e-22)
(18.1049 -2.98199 1.71334e-20)
(17.89 -2.29358 0)
(17.8178 -1.82554 1.25751e-20)
(17.7133 -1.58007 9.20835e-21)
(17.649 -1.41748 -9.66866e-21)
(17.5701 -1.40064 1.12487e-20)
(17.4635 -1.42551 0)
(17.3592 -1.4886 0)
(17.2289 -1.54286 0)
(17.0544 -1.50316 0)
(16.9022 -1.29096 1.08533e-20)
(16.8133 -1.02246 -6.36919e-21)
(16.6805 -0.579389 -5.42729e-23)
(16.6822 0.0813816 1.39162e-20)
(16.8456 0.515052 1.14043e-20)
(16.9644 0.747968 0)
(17.0802 0.788882 -3.9072e-21)
(17.1428 0.781805 0)
(17.2796 0.710638 0)
(17.3977 0.54107 0)
(17.4634 0.391345 0)
(17.5133 0.284958 0)
(17.5593 0.211078 0)
(17.5995 0.167092 -1.05662e-21)
(17.6361 0.161311 0)
(17.6982 0.19069 -8.03381e-22)
(17.8268 0.177408 -6.30532e-22)
(17.9552 0.0720365 2.84498e-22)
(18.0452 -0.0450337 1.67138e-22)
(18.1151 -0.135919 0)
(18.1614 -0.191828 1.27356e-22)
(18.1725 -0.173325 3.16752e-22)
(18.2167 -0.058706 0)
(18.3665 0.0281853 1.15692e-22)
(0.718165 -1.46742 -2.64991e-21)
(0.0614393 -0.696224 0)
(-0.271464 -0.368513 0)
(-0.432222 -0.272796 3.27484e-21)
(-0.486729 -0.216271 0)
(-0.546317 -0.10396 -1.24832e-21)
(-0.672896 -0.0188521 -1.79595e-21)
(-0.891592 0.0729998 0)
(-1.17898 0.0731534 -6.1368e-21)
(-1.53799 0.097357 3.60166e-21)
(-2.12411 0.481113 -3.72841e-20)
(-2.62073 1.87867 0)
(1.1986 4.54078 0)
(-0.910149 0.192309 0)
(-0.514458 -1.70238 -6.74247e-19)
(16.0849 -14.4729 -1.77761e-22)
(17.0983 -14.7058 0)
(18.1505 -14.8301 0)
(19.1454 -14.7648 6.55802e-20)
(19.8835 -14.3279 0)
(20.1536 -13.4369 -7.26981e-20)
(20.2256 -12.0888 0)
(18.6822 -9.12387 1.57736e-20)
(17.5559 -7.0601 2.12984e-20)
(16.8249 -5.26112 2.04288e-20)
(16.3478 -3.93726 1.63807e-20)
(16.0237 -2.9682 0)
(15.7955 -2.29207 0)
(15.6602 -1.8248 -9.36822e-21)
(15.5529 -1.55322 0)
(15.4689 -1.39214 8.15243e-21)
(15.3912 -1.34516 9.45807e-21)
(15.2963 -1.35941 0)
(15.1846 -1.40693 1.26008e-20)
(15.0347 -1.4415 1.35987e-20)
(14.8388 -1.39779 1.85974e-23)
(14.6409 -1.22552 9.83955e-21)
(14.4713 -0.963084 5.26953e-21)
(14.3056 -0.565452 0)
(14.2835 -0.0344472 -9.47329e-21)
(14.4429 0.382921 1.0545e-20)
(14.6561 0.621765 -1.03539e-20)
(14.8754 0.699598 4.26859e-21)
(15.0697 0.692362 -3.88278e-21)
(15.2746 0.617155 3.16014e-21)
(15.4458 0.482277 2.05335e-21)
(15.5671 0.351621 0)
(15.6617 0.250179 1.14698e-21)
(15.7449 0.177919 -1.06498e-21)
(15.8229 0.134115 -1.08306e-21)
(15.9056 0.119773 0)
(16.0164 0.121226 0)
(16.1691 0.0897756 0)
(16.319 0.00280185 0)
(16.4353 -0.0960013 0)
(16.522 -0.173733 1.14485e-22)
(16.5821 -0.21376 1.68693e-22)
(16.6263 -0.194817 0)
(16.7048 -0.123572 3.92663e-25)
(16.8472 -0.0756829 9.73857e-23)
(0.40214 -1.31468 0)
(-0.177476 -0.53676 0)
(-0.485864 -0.293768 -1.57073e-21)
(-0.668755 -0.21735 0)
(-0.708014 -0.217328 0)
(-0.757378 -0.0902476 2.49768e-21)
(-0.873813 0.0503931 -4.29293e-21)
(-1.06466 0.196422 0)
(-1.35962 0.267582 0)
(-1.73257 0.321616 -3.82355e-24)
(-2.22823 0.658376 0)
(-2.65572 1.76212 0)
(-2.14199 2.47055 -8.32546e-20)
(-0.892795 0.398221 2.12006e-20)
(15.1246 -15.6846 -3.98687e-20)
(16.1237 -15.0573 -3.73171e-20)
(17.1037 -15.3034 -4.85831e-20)
(18.1569 -15.4438 -8.16487e-23)
(19.0533 -15.311 -6.98742e-20)
(19.5152 -14.7519 0)
(19.6737 -13.8027 0)
(18.397 -11.2838 -2.50611e-20)
(16.6094 -8.90699 -3.47006e-20)
(15.4804 -6.83947 3.65838e-20)
(14.7026 -5.17171 1.48466e-20)
(14.1996 -3.89039 0)
(13.8637 -2.94261 -9.5928e-21)
(13.6335 -2.27136 7.69726e-21)
(13.4791 -1.81054 -6.89224e-21)
(13.3683 -1.52594 0)
(13.282 -1.36209 6.55087e-21)
(13.2083 -1.29829 -7.71898e-21)
(13.1269 -1.29805 0)
(13.0259 -1.32663 1.09989e-20)
(12.8889 -1.34067 -1.1849e-20)
(12.7143 -1.29052 -1.12774e-20)
(12.5315 -1.14044 1.72345e-20)
(12.3714 -0.897966 0)
(12.2502 -0.553715 -1.10773e-21)
(12.2539 -0.132017 0)
(12.4135 0.229209 9.08033e-21)
(12.6568 0.457203 1.34819e-24)
(12.9235 0.553035 4.28376e-21)
(13.1794 0.557439 -3.75359e-21)
(13.4218 0.49671 0)
(13.6277 0.392209 -2.17323e-21)
(13.79 0.283128 -1.57212e-21)
(13.9232 0.191453 -4.19686e-24)
(14.0416 0.122613 1.13372e-21)
(14.1551 0.0772105 0)
(14.2754 0.0525227 0)
(14.4176 0.034266 0)
(14.5828 -0.00621485 5.35899e-22)
(14.7417 -0.0789079 -3.7994e-22)