/*--------------------------------*- C++ -*----------------------------------*\
| =========                 |                                                 |
| \\      /  F ield         | OpenFOAM: The Open Source CFD Toolbox           |
|  \\    /   O peration     | Version:  v1912                                 |
|   \\  /    A nd           | Website:  www.openfoam.com                      |
|    \\/     M anipulation  |                                                 |
\*---------------------------------------------------------------------------*/
FoamFile
{
    version     2.0;
    format      ascii;
    class       surfaceScalarField;
    location    "52";
    object      alphaPhi0.water;
}
// * * * * * * * * * * * * * * * * * * * * * * * * * * * * * * * * * * * * * //

dimensions      [0 3 -1 0 0 0 0];
oriented        oriented;


internalField   nonuniform List<scalar> 
40282
(
0.00276931
0.00264727
1.92179
-1.92838
1.92276
0.00562101
-1.91369
1.90146
0.012226
-1.88626
1.86813
0.0181314
-1.8471
1.82317
0.0239267
-1.79644
1.767
0.0294424
-1.73495
1.70032
0.0346228
-1.66317
1.62352
0.0396554
-1.58143
1.53696
0.0444694
-1.49017
1.44116
0.0490067
-1.38999
1.33674
0.0532481
-1.28144
1.2242
0.0572394
-1.16509
1.10428
0.0608078
-1.04172
0.977615
0.0641085
-0.91187
0.844813
0.067057
-0.776185
0.706389
0.0697956
-0.634808
0.561927
0.0728808
-0.486634
0.410152
0.0764822
-0.329803
0.248479
0.0813247
-0.159486
0.0750232
0.0844624
-0.00423919
0.00561148
1.8568
-1.85228
1.84531
-0.0141154
0.0210839
-1.83562
1.82316
-0.0256653
0.0381262
-1.80792
1.78991
-0.0369744
0.0549837
-1.76916
1.74572
-0.0480344
0.0714754
-1.71963
1.69096
-0.058865
0.0875353
-1.65975
1.62602
-0.0693641
0.103088
-1.58982
1.55118
-0.0794269
0.11807
-1.51014
1.46677
-0.0890282
0.132401
-1.42112
1.37327
-0.0981795
0.146034
-1.32326
1.27116
-0.106816
0.158921
-1.21702
1.1609
-0.114901
0.171021
-1.10285
1.04293
-0.122365
0.182286
-0.981211
0.917754
-0.129178
0.192635
-0.852646
0.785947
-0.135269
0.201968
-0.717784
0.648245
-0.140655
0.210194
-0.57753
0.505746
-0.145583
0.217367
-0.433157
0.359933
-0.150573
0.223798
-0.286512
0.213167
-0.157116
0.230462
-0.140631
0.0739038
-0.169732
0.236459
-0.00702077
0.00837278
1.79024
-1.78606
1.77924
-0.0282243
0.035047
-1.76976
1.75763
-0.0507652
0.0628925
-1.74287
1.7255
-0.0730474
0.0904189
-1.70553
1.68298
-0.0949126
0.117462
-1.65787
1.63023
-0.116231
0.143875
-1.60008
1.56746
-0.136873
0.169488
-1.53244
1.49505
-0.15675
0.194135
-1.45537
1.41344
-0.175776
0.2177
-1.36934
1.32311
-0.193858
0.240082
-1.27484
1.22459
-0.210948
0.261198
-1.17244
1.11844
-0.227014
0.281009
-1.06268
1.0052
-0.24202
0.299493
-0.946079
0.885354
-0.255895
0.31662
-0.823081
0.75931
-0.268493
0.332263
-0.694102
0.627516
-0.279546
0.346132
-0.559635
0.490553
-0.288727
0.357809
-0.420404
0.349374
-0.295944
0.366974
-0.277745
0.205966
-0.301999
0.373777
-0.134592
0.0653681
-0.308716
0.37794
-0.00965997
0.010938
1.72614
-1.72227
1.71584
-0.0417751
0.0482064
-1.70685
1.6953
-0.0749434
0.0864871
-1.68123
1.66463
-0.107734
0.124333
-1.64552
1.62393
-0.139972
0.161562
-1.59988
1.57338
-0.171463
0.197957
-1.54448
1.5132
-0.202026
0.233307
-1.47958
1.44365
-0.231491
0.267418
-1.40546
1.36505
-0.259677
0.300083
-1.32249
1.27782
-0.286427
0.331096
-1.23111
1.18245
-0.311611
0.360277
-1.1319
1.07957
-0.335158
0.387495
-1.02553
0.969888
-0.357043
0.412685
-0.912732
0.854148
-0.377274
0.435859
-0.794209
0.732978
-0.395793
0.457024
-0.670503
0.606824
-0.412335
0.476014
-0.541976
0.475994
-0.426306
0.492289
-0.408918
0.340809
-0.436865
0.504974
-0.271786
0.202102
-0.44368
0.513364
-0.132124
0.0633743
-0.447747
0.516497
-0.0121593
0.013367
1.66432
-1.66067
1.65457
-0.0545859
0.0606796
-1.64605
1.6351
-0.0979437
0.108891
-1.62174
1.60598
-0.140824
0.156587
-1.58783
1.5673
-0.183024
0.20355
-1.54442
1.5192
-0.224307
0.249528
-1.49166
1.46184
-0.264436
0.294262
-1.42975
1.39544
-0.303197
0.337513
-1.35893
1.32026
-0.340356
0.379022
-1.27948
1.23664
-0.375671
0.418516
-1.19178
1.14497
-0.408914
0.455723
-1.09627
1.04577
-0.439888
0.490395
-0.993534
0.939669
-0.468465
0.52233
-0.884274
0.827455
-0.494617
0.551436
-0.769318
0.709962
-0.518383
0.577739
-0.649472
0.587917
-0.539692
0.601247
-0.525344
0.461786
-0.558058
0.621616
-0.397265
0.331801
-0.572383
0.637846
-0.265431
0.19824
-0.581362
0.648553
-0.130296
0.063173
-0.584701
0.651824
-0.0145149
0.0156431
1.60483
-1.60123
1.5955
-0.0667032
0.0724267
-1.5875
1.57721
-0.119712
0.129999
-1.56465
1.54981
-0.172178
0.187012
-1.53271
1.51336
-0.223872
0.243227
-1.49176
1.46792
-0.274524
0.298359
-1.44187
1.41361
-0.323854
0.35211
-1.38318
1.35058
-0.371602
0.4042
-1.31584
1.27901
-0.417483
0.454319
-1.2401
1.19916
-0.46119
0.502129
-1.15623
1.11137
-0.502415
0.547284
-1.06461
1.01603
-0.540857
0.589436
-0.9657
0.913692
-0.576247
0.628255
-0.8601
0.805025
-0.608414
0.663489
-0.748577
0.690869
-0.637336
0.695044
-0.632012
0.572108
-0.663059
0.722962
-0.511239
0.449464
-0.685343
0.747118
-0.386821
0.323331
-0.703166
0.766656
-0.258999
0.193821
-0.714677
0.779855
-0.127668
0.062531
-0.718596
0.783732
-0.0167084
0.0177474
1.54716
-1.54413
1.53881
-0.078052
0.0833633
-1.53138
1.52182
-0.140116
0.149674
-1.51014
1.49633
-0.201612
0.215422
-1.48039
1.46233
-0.2623
0.280365
-1.44213
1.41982
-0.32188
0.344197
-1.39538
1.36883
-0.380039
0.406589
-1.34017
1.30942
-0.43648
0.467231
-1.27659
1.2417
-0.490865
0.525761
-1.20476
1.16581
-0.542826
0.581776
-1.12488
1.082
-0.591977
0.634855
-1.03722
0.990584
-0.637925
0.684558
-0.942157
0.892003
-0.680279
0.730434
-0.840196
0.786828
-0.718709
0.772077
-0.731998
0.675821
-0.753031
0.809208
-0.618418
0.55991
-0.783252
0.84176
-0.500409
0.44001
-0.809311
0.86971
-0.378786
0.316782
-0.830417
0.89242
-0.254014
0.190444
-0.844524
0.908094
-0.125725
0.0626537
-0.849602
0.912673
-0.0187202
0.0196593
1.4919
-1.48914
1.48429
-0.0885438
0.0933939
-1.4775
1.46876
-0.159004
0.167748
-1.45806
1.44539
-0.228919
0.241587
-1.43074
1.41411
-0.298052
0.314685
-1.39548
1.37484
-0.36609
0.386728
-1.35219
1.32751
-0.432695
0.457372
-1.3008
1.27206
-0.497544
0.526285
-1.24129
1.20848
-0.560253
0.59306
-1.17365
1.13681
-0.620385
0.657229
-1.09797
1.05716
-0.677478
0.718288
-1.0144
0.969747
-0.731043
0.7757
-0.92323
0.874907
-0.780572
0.828895
-0.824842
0.773111
-0.825578
0.87731
-0.719805
0.66503
-0.865685
0.920459
-0.608908
0.551572
-0.900737
0.958073
-0.493156
0.433789
-0.93071
0.990077
-0.373584
0.312631
-0.955022
1.01598
-0.250976
0.188591
-0.971624
1.03401
-0.124806
0.0639374
-0.978345
1.03921
-0.020528
0.021355
1.43852
-1.43588
1.43155
-0.098077
0.102409
-1.42547
1.41764
-0.1762
0.18403
-1.40804
1.39665
-0.253854
0.265243
-1.38346
1.36843
-0.33083
0.34586
-1.35154
1.33278
-0.406818
0.425582
-1.31211
1.28952
-0.481471
0.504065
-1.26497
1.23845
-0.554451
0.580968
-1.20995
1.17943
-0.625333
0.65585
-1.14689
1.11233
-0.693614
0.728176
-1.07574
1.03713
-0.75875
0.797361
-0.996509
0.953901
-0.820147
0.862755
-0.909334
0.862848
-0.877174
0.92366
-0.814492
0.764331
-0.929185
0.979347
-0.712441
0.658921
-0.975591
1.02911
-0.603886
0.547473
-1.01601
1.07242
-0.489833
0.431122
-1.05031
1.10902
-0.371492
0.311082
-1.07805
1.13846
-0.249984
0.188212
-1.09729
1.15906
-0.12457
0.0660258
-1.106
1.16454
-0.0221073
0.0228095
1.38719
-1.38489
1.38114
-0.106536
0.110291
-1.37586
1.36905
-0.1915
0.198312
-1.36068
1.35072
-0.276134
0.286097
-1.33913
1.32589
-0.360282
0.373524
-1.31095
1.29428
-0.443657
0.460332
-1.27582
1.25555
-0.525926
0.546198
-1.23342
1.20937
-0.60675
0.630794
-1.18338
1.1554
-0.685674
0.713656
-1.12539
1.09333
-0.762135
0.794193
-1.0592
1.02297
-0.835501
0.871733
-0.984631
0.944188
-0.905067
0.94551
-0.901648
0.85703
-0.970061
1.01468
-0.810369
0.76171
-1.02966
1.07832
-0.711118
0.658678
-1.08305
1.1355
-0.604499
0.548718
-1.12956
1.18534
-0.4915
0.433027
-1.16882
1.22729
-0.373494
0.313094
-1.20039
1.26079
-0.251982
0.190224
-1.22243
1.28419
-0.125681
0.069579
-1.23351
1.28961
-0.023433
0.0239981
1.33755
-1.33563
1.33251
-0.113799
0.116917
-1.32812
1.32243
-0.204689
0.210374
-1.31542
1.30704
-0.295457
0.303836
-1.29725
1.286
-0.386023
0.397274
-1.27324
1.2589
-0.476156
0.490493
-1.24293
1.22527
-0.565556
0.583221
-1.20584
1.18458
-0.653907
0.675166
-1.16142
1.1363
-0.740744
0.765867
-1.10915
1.07991
-0.825454
0.854692
-1.04853
1.01496
-0.907321
0.940889
-0.979165
0.941109
-0.985521
1.02358
-0.900774
0.858153
-1.05913
1.10175
-0.813254
0.766101
-1.12712
1.17427
-0.716738
0.665232
-1.18842
1.23993
-0.611683
0.556225
-1.24201
1.29747
-0.499037
0.440338
-1.28719
1.34588
-0.38039
0.319495
-1.32338
1.38427
-0.257958
0.196033
-1.34884
1.41077
-0.130286
0.077045
-1.36261
1.41585
-0.0244813
0.0248986
1.28978
-1.28808
1.28565
-0.119746
0.122171
-1.28223
1.27777
-0.215551
0.220005
-1.27225
1.26561
-0.311504
0.318147
-1.25779
1.24873
-0.407641
0.416695
-1.23837
1.22663
-0.503807
0.515547
-1.21343
1.19869
-0.599769
0.614515
-1.18231
1.16419
-0.695266
0.71338
-1.14425
1.12238
-0.789852
0.811719
-1.09849
1.07249
-0.882885
0.90889
-1.04428
1.01377
-0.97358
1.00409
-0.980894
0.945574
-1.061
1.09632
-0.907752
0.867382
-1.14406
1.18443
-0.824434
0.778896
-1.2215
1.26704
-0.73078
0.680123
-1.29196
1.34262
-0.627
0.571535
-1.354
1.40946
-0.513907
0.454366
-1.40641
1.46596
-0.393237
0.330954
-1.44837
1.51066
-0.268021
0.205052
-1.47822
1.54119
-0.136928
0.0865945
-1.49527
1.5456
-0.0252325
0.0254942
1.24387
-1.24261
1.24092
-0.124268
0.125953
-1.23853
1.23539
-0.223883
0.227022
-1.23146
1.22669
-0.323977
0.328751
-1.221
1.21433
-0.424725
0.431394
-1.2066
1.19771
-0.526086
0.534976
-1.18756
1.17606
-0.627926
0.63943
-1.16308
1.14851
-0.730081
0.744654
-1.13221
1.11406
-0.832163
0.850311
-1.09393
1.07167
-0.933543
0.955801
-1.04716
1.02025
-1.0334
1.06031
-0.99083
0.958764
-1.13072
1.16279
-0.923942
0.886261
-1.22425
1.26193
-0.845634
0.801994
-1.31251
1.35615
-0.755299
0.705538
-1.39379
1.44355
-0.652742
0.597001
-1.46613
1.52187
-0.53848
0.477445
-1.52769
1.58873
-0.414282
0.349564
-1.57706
1.64178
-0.284038
0.218815
-1.6125
1.67773
-0.14633
0.098995
-1.63388
1.68122
-0.0256729
0.0257751
1.19926
-1.19865
1.19773
-0.12728
0.128195
-1.19641
1.19465
-0.229524
0.231287
-1.1924
1.18959
-0.332621
0.335424
-1.18617
1.18204
-0.436909
0.441034
-1.17713
1.17131
-0.542491
0.548302
-1.1645
1.15656
-0.649374
0.657316
-1.14735
1.13674
-0.757535
0.768146
-1.12457
1.11067
-0.866704
0.880602
-1.09487
1.077
-0.976327
0.994198
-1.05687
1.03429
-1.08562
1.10819
-1.00908
0.981033
-1.19352
1.22156
-0.949974
0.915719
-1.29869
1.33294
-0.8781
0.836962
-1.39943
1.44057
-0.792177
0.743647
-1.49369
1.54222
-0.691322
0.635221
-1.57891
1.63501
-0.575458
0.512287
-1.65236
1.71553
-0.446144
0.377764
-1.7117
1.78008
-0.30822
0.239334
-1.75484
1.82373
-0.160331
0.116419
-1.78238
1.82629
-0.0257972
0.0257412
1.15651
-1.15636
1.15622
-0.128731
0.128868
-1.15599
1.15563
-0.23237
0.232733
-1.15509
1.15431
-0.337252
0.338032
-1.15322
1.15174
-0.443898
0.44538
-1.14977
1.14721
-0.552582
0.555141
-1.14394
1.13983
-0.663484
0.667593
-1.13474
1.12849
-0.776779
0.783026
-1.12091
1.11182
-0.892381
0.901475
-1.101
1.08824
-1.00989
1.02266
-1.0733
1.05595
-1.12866
1.14601
-1.03591
1.01293
-1.2477
1.27069
-0.986718
0.957005
-1.36569
1.3954
-0.923503
0.885934
-1.48083
1.5184
-0.844031
0.797553
-1.59075
1.63723
-0.746302
0.69015
-1.69231
1.74846
-0.629086
0.563278
-1.78163
1.84743
-0.493161
0.419637
-1.85494
1.92847
-0.344207
0.269708
-1.90928
1.98378
-0.181806
0.141924
-1.94605
1.98594
-0.0256106
0.0254031
1.11524
-1.11536
1.11599
-0.128617
0.127995
-1.11682
1.11784
-0.232396
0.231382
-1.11899
1.12022
-0.337797
0.336565
-1.12146
1.12265
-0.445529
0.444345
-1.12368
1.12446
-0.556052
0.555272
-1.12487
1.12479
-0.669746
0.669832
-1.12405
1.1225
-0.787033
0.788583
-1.11995
1.11619
-0.908085
0.911848
-1.11099
1.1041
-1.03276
1.03965
-1.09525
1.08415
-1.16065
1.17175
-1.07048
1.05388
-1.29103
1.30763
-1.03399
1.01041
-1.42278
1.44636
-0.982713
0.950453
-1.55424
1.5865
-0.913171
0.870402
-1.68297
1.72574
-0.821696
0.766655
-1.80536
1.8604
-0.704987
0.636608
-1.91628
1.98466
-0.561782
0.48146
-2.00983
2.09015
-0.397591
0.31426
-2.08103
2.16436
-0.214144
0.178136
-2.1323
2.16831
-0.025129
0.0247819
1.07545
-1.07619
1.07753
-0.126988
0.125648
-1.07937
1.08169
-0.229672
0.22735
-1.08446
1.08762
-0.334313
0.331151
-1.09112
1.0949
-0.441802
0.438021
-1.09889
1.10298
-0.552779
0.548686
-1.10708
1.11108
-0.667839
0.663843
-1.11483
1.11818
-0.787682
0.784335
-1.12094
1.12292
-0.912801
0.910825
-1.12387
1.12356
-1.0434
1.04372
-1.12167
1.1179
-1.17946
1.18323
-1.11187
1.10319
-1.3207
1.32939
-1.09139
1.07598
-1.46651
1.48192
-1.05639
1.03198
-1.61574
1.64015
-1.00207
0.965885
-1.76642
1.80261
-0.922605
0.871381
-1.91504
1.96626
-0.811395
0.741979
-2.05556
2.12498
-0.662838
0.574557
-2.17943
2.26771
-0.479197
0.382133
-2.27766
2.37472
-0.265124
0.230805
-2.3534
2.38772
-0.0243784
0.0239084
1.03693
-1.03807
1.04006
-0.123944
0.121955
-1.04282
1.04633
-0.224361
0.220848
-1.05057
1.05551
-0.327002
0.322062
-1.06111
1.06732
-0.432907
0.4267
-1.07408
1.08132
-0.542883
0.535637
-1.08898
1.09695
-0.657724
0.649752
-1.10513
1.11338
-0.778414
0.770163
-1.12155
1.12946
-0.905797
0.897884
-1.13691
1.14366
-1.04049
1.03374
-1.14943
1.15391
-1.18297
1.17849
-1.15675
1.15751
-1.3336
1.33284
-1.15572
1.15082
-1.49257
1.49747
-1.14216
1.12895
-1.65977
1.67298
-1.11031
1.08516
-1.83452
1.85966
-1.05228
1.0102
-2.01468
2.05676
-0.957307
0.891882
-2.19488
2.2603
-0.812332
0.717842
-2.36476
2.45925
-0.609291
0.492388
-2.50914
2.62604
-0.351972
0.311434
-2.62995
2.67048
-0.0233933
0.02282
0.999888
-1.00155
1.0041
-0.119632
0.117082
-1.00766
1.01221
-0.21672
0.212168
-1.01775
1.02425
-0.316205
0.3097
-1.0317
1.04008
-0.419238
0.410866
-1.04934
1.05945
-0.526755
0.516644
-1.07036
1.08202
-0.639708
0.628045
-1.09436
1.10729
-0.759335
0.746411
-1.12069
1.13444
-0.886819
0.873069
-1.14838
1.16234
-1.02319
1.00924
-1.17608
1.18937
-1.16948
1.15619
-1.20189
1.2133
-1.32676
1.31536
-1.22315
1.23094
-1.49625
1.48846
-1.23604
1.23769
-1.67931
1.67766
-1.23495
1.22662
-1.8775
1.88582
-1.21122
1.18684
-2.0919
2.11629
-1.15106
1.10091
-2.32125
2.3714
-1.03278
0.942803
-2.55831
2.64829
-0.827774
0.68901
-2.78468
2.92345
-0.51894
0.45013
-2.99859
3.0674
-0.0222138
0.0215583
0.964307
-0.966068
0.969079
-0.114238
0.111227
-0.973288
0.978697
-0.207073
0.201664
-0.985306
0.993116
-0.302377
0.294568
-1.00212
1.01232
-0.401364
0.391164
-1.02371
1.03628
-0.50504
0.492472
-1.05002
1.06491
-0.614458
0.599566
-1.08093
1.09804
-0.731043
0.713931
-1.11619
1.13532
-0.856248
0.837116
-1.15535
1.17618
-0.991457
0.970632
-1.19767
1.21969
-1.13816
1.11614
-1.24205
1.26452
-1.2981
1.27563
-1.28683
1.30863
-1.47347
1.45166
-1.32952
1.34895
-1.6672
1.64777
-1.36624
1.38047
-1.88345
1.86921
-1.39043
1.39443
-2.12803
2.12403
-1.39011
1.37416
-2.40791
2.42386
-1.34191
1.2869
-2.72913
2.78415
-1.20069
1.07103
-3.09267
3.22233
-0.898802
0.817749
-3.51924
3.60029
0.13342
-0.242116
0.104776
-0.23946
0.320303
-0.0827235
-0.360103
0.376034
-0.0135063
-0.370219
0.313352
0.0203768
-0.280305
0.263898
0.0228686
-0.296647
0.232021
0.00647503
-0.228151
0.241852
0.0105971
-0.243131
0.216674
0.0262667
-0.135748
-0.0208661
0.156614
0.274722
-0.608778
0.334056
0.781505
-0.755934
0.0485749
0.67634
-0.60471
5.83798e-22
0.543392
-0.47328
-1.57685e-05
0.401033
-0.317407
-0.00562947
0.156801
-0.00232954
0.0106325
0.00161849
-0.00104505
0.000207798
0
1.10407e-36
-1.38986e-20
4.73539e-22
2.80539e-20
0
6.3424e-19
0.0112175
-0.0112175
-0.237677
0.938896
-0.331052
-1.19293
1.1487
-0.0398808
-1.01919
3.88441
0.184088
-6.70494
6.60173
0.103212
-6.56085
6.54533
0.0155237
-6.53781
6.53108
0.00673598
-6.52289
6.51299
0.00990192
-6.50168
6.48943
0.0122506
-6.4765
6.46308
0.0134236
-6.44928
6.43524
0.0140377
-6.42098
6.40656
0.0144244
-6.39207
6.37763
0.0144397
-6.32318
6.29515
0.0154873
-6.27986
6.26035
0.0181488
-6.24187
6.2708
0.0214093
-6.24799
6.22388
0.0241077
-6.19834
6.17142
0.0269202
-6.14299
6.11313
0.0298665
-6.08188
6.04793
0.0323336
-6.0147
5.98207
0.0325891
-5.95119
5.92186
0.0307847
-5.89153
5.85973
0.0317936
-5.82545
5.78917
0.036278
-5.75438
4.35841
0.0291918
-4.33172
4.30793
0.0237899
-4.28192
5.57548
0.0284253
-5.57005
5.54851
0.0215409
-5.53002
5.50378
0.0166204
-5.49106
5.46858
0.0266269
-5.43101
5.38472
0.0462888
-5.33484
5.29368
0.0411613
-5.26729
5.24589
0.0214052
-5.2106
5.1535
0.0571039
-4.70165
4.89356
0.0335376
-5.04173
5.04345
-0.00171998
-5.04529
5.0497
-0.00441637
-5.05762
5.06481
-0.0071942
-4.74961
4.74849
0.00111563
-4.73594
4.72074
0.0152008
-5.00678
4.98498
0.0353476
-4.9708
4.91453
0.0561356
0.344208
-0.428045
0.0838367
-0.156292
0.204975
0.135797
-0.187764
-0.247569
0.261096
0.0379108
-0.0717055
-0.252993
0.265621
-0.0196594
0.0204577
-0.265823
0.302984
-0.0325756
0.0366136
-0.300947
0.284636
0.000790759
-0.0078314
-0.295749
0.307283
-0.0196247
0.0184092
-0.333765
0.339133
-0.0322005
0.026841
-0.337409
0.319895
-0.225298
0.242813
-0.299656
0.0270158
-0.279402
0.0887359
-8.66081e-07
7.69216e-22
8.66081e-07
-6.88608e-21
-8.17752e-20
6.95102e-20
1.05779e-22
-1.6385e-20
-4.29834e-20
-1.47282e-24
6.35223e-25
-1.29549e-22
-1.18708e-20
4.37173e-21
0
6.25665e-21
2.71266e-23
-4.53907e-05
5.24564e-06
-0
-0.00695714
3.77598e-18
1.99368e-19
0.00695714
-0.0827991
1.18704
-1.31444e-08
-1.11305
-3.24752
5.12635
0.39356
-2.23224
-5.76561
5.93392
1.48631
-1.65462
-6.07892
6.23353
0.81861
-0.97322
-6.37674
6.52287
0.221143
-0.367279
-6.69577
6.83978
-0.302823
0.158817
-6.90399
6.91851
-0.128772
0.114248
-6.91515
6.90717
-0.0310888
0.0390676
-6.8985
6.88943
-0.0162244
0.025288
-6.87979
6.86952
-0.0198302
0.0301033
-6.85857
6.84697
-0.0238621
0.0354649
-6.83481
6.82223
-0.0260322
0.0386105
-6.80936
6.79626
-0.0272298
0.0403364
-6.78298
6.76955
-0.0278781
0.0413055
-6.75587
6.74179
-0.0284649
0.0425454
-6.72725
6.71209
-0.030736
0.0458913
-6.69618
6.67934
-0.035448
0.0522943
-6.66138
6.6421
-0.0411701
0.0604524
-6.62138
6.59915
-0.0468037
0.0690355
-6.57544
6.55017
-0.0526159
0.0778892
-6.52335
6.49503
-0.0585451
0.0868636
-6.46525
6.43415
-0.063556
0.0946615
-6.40192
6.36881
-0.0652805
0.0983918
-6.33503
6.30103
-0.0635358
0.0975295
-6.26686
6.23266
-0.0633712
0.0975729
-5.92484
5.92096
-0.0703272
0.101695
-5.90875
6.0216
-0.0543141
0.104312
-6.05874
6.02621
-0.0632489
0.0964355
-5.99404
5.96191
-0.0598489
0.0919804
-5.79691
5.61431
-0.0488515
0.0761124
-5.56248
5.59554
-0.0380463
0.0608619
-5.82275
5.79413
-0.0528175
0.0814417
-5.76168
4.70761
-0.0854537
0.088247
-3.50398
3.32718
-0.0610808
0.0528759
-3.50275
5.64147
-0.0348404
0.058657
-5.61029
5.56884
-0.103519
0.144971
-4.78591
4.71686
-0.0580177
0.0726061
-5.33211
5.4543
-0.00545765
0.017204
-5.44534
5.43599
0.000524417
0.00862768
-5.42978
5.42951
0.00955456
-0.00919806
-5.42923
5.42448
-0.00415728
0.00890873
-5.41407
5.39658
-0.0321729
0.0496645
-5.37457
5.35158
-0.0615751
0.0845571
-5.32544
5.27893
-0.0925581
0.11905
0.491306
-0.542475
0.0511689
-0.122242
0.164337
0.234389
-0.279554
-0.197616
0.22977
0.105089
-0.130866
-0.255135
0.286227
-0.00932326
-0.0096266
-0.303472
0.308324
-0.0365306
0.0316779
-0.303907
0.305517
0.01107
-0.0126525
-0.325308
0.340549
-0.00118467
-0.0241248
-0.363761
0.397249
-0.0121586
-0.0120619
-0.424888
0.449346
-0.230891
0.206434
-0.247313
6.93889e-18
-0.0256088
0.0118221
-5.81227e-21
1.25195e-20
3.25411e-20
-5.72942e-20
-2.42354e-20
2.01695e-20
2.49507e-20
-2.24136e-20
-9.99865e-21
-2.20789e-21
-5.0493e-21
1.59395e-20
1.72108e-20
-3.62557e-20
-3.03366e-21
1.2252e-19
1.17106e-18
0.255279
-1.3511e-18
-0.255279
-2.71662
4.93252
1.01666
-3.26223
-5.51521
5.61563
2.82183
-2.92225
-5.71598
5.81854
2.32256
-2.42512
-5.91947
6.02748
1.75537
-1.86338
-6.15188
6.2813
1.10528
-1.2347
-6.4064
6.54017
0.504416
-0.638183
-6.69126
6.83368
-0.010248
-0.132175
-6.93464
6.99169
-0.0730601
0.0160082
-7.01865
7.02829
-0.0380878
0.0284445
-7.02855
7.0238
-0.0327568
0.0375039
-7.01623
7.00699
-0.040092
0.0493329
-6.9967
6.98567
-0.0468597
0.0578972
-6.97408
6.96206
-0.0509449
0.0629704
-6.94968
6.93706
-0.0532083
0.0658282
-6.92425
6.91123
-0.0545223
0.0675425
-6.89797
6.88432
-0.0563839
0.0700323
-6.87018
6.85546
-0.0607831
0.075504
-6.84003
6.82373
-0.068745
0.0850469
-6.80642
6.78791
-0.0791946
0.0977034
-6.76806
6.74675
-0.0905895
0.111899
-6.72393
6.69952
-0.102467
0.126882
-6.67352
6.64589
-0.114589
0.142216
-6.61664
6.58586
-0.125281
0.156054
-6.5537
6.52025
-0.131323
0.164778
-6.48567
6.44994
-0.13213
0.167698
-6.41327
6.37661
-0.132912
0.169811
-6.34048
6.30472
-0.139118
0.174884
-6.26945
6.23388
-0.138609
0.174181
-6.19791
6.16221
-0.131274
0.166982
-6.08046
6.0559
-0.123189
0.158086
-6.03957
6.02872
-0.107369
0.139081
-5.99966
5.96782
-0.0919134
0.12401
-5.85055
4.58874
-0.113205
0.126524
-4.29149
4.96538
-0.112898
0.154751
-5.77707
5.83608
-0.0924084
0.11815
-5.81445
5.78487
-0.0908494
0.120423
-5.75227
2.68926
-0.153023
0.0931708
-2.7453
2.73109
-0.0866377
0.076474
-5.35332
5.63961
-0.0321496
0.0501596
-5.5685
4.27744
-0.0212256
0.0259155
-4.19352
5.20107
0.00742447
-0.00415362
-5.60626
5.59697
-0.0153616
0.0246515
-5.58245
5.56173
-0.0685356
0.0892592
-5.53589
5.51195
-0.106907
0.13085
-5.48561
5.46289
-0.142617
0.165334
0.587985
-0.629583
0.0413805
-0.09346
0.139346
0.331121
-0.377432
-0.178006
0.209778
0.163079
-0.2035
-0.238882
0.263791
0.0304323
-0.0554827
-0.280525
0.288238
-0.024446
0.0167329
-0.288528
0.28879
0.0136974
-0.0139593
-0.298821
0.31922
0.0486952
-0.0690939
-0.347024
0.381939
0.0451864
-0.0814452
-0.42807
0.294833
-0.17569
0.103779
0.0033159
-1.70462e-20
-0.0033159
-3.38485e-20
-6.84675e-21
5.96383e-21
7.97332e-20
-8.95784e-20
7.21272e-21
-2.85098e-20
1.47283e-20
1.6236e-20
2.47214e-20
0
-6.49748e-36
2.06484e-20
-0.0691239
1.42082
0.0306321
-1.34403
-4.44757
5.14481
3.30415
-4.00138
-5.25879
5.37827
3.47798
-3.59746
-5.4999
5.62383
3.0325
-3.15643
-5.74654
5.86862
2.53737
-2.65946
-5.98899
6.1099
1.97739
-2.0983
-6.23391
6.35905
1.36125
-1.48638
-6.48121
6.60441
0.766136
-0.889337
-6.73102
6.85064
0.262599
-0.382225
-6.94713
7.01417
0.0482114
-0.115247
-7.0553
7.07748
-0.0116369
-0.0105417
-7.08715
7.08893
-0.0390019
0.0372262
-7.08592
7.08004
-0.0570975
0.0629774
-7.07255
7.06412
-0.0678634
0.0762923
-7.05509
7.04553
-0.0739969
0.0835556
-7.03553
7.02513
-0.077536
0.0879376
-7.01444
7.00338
-0.0797233
0.0907759
-6.99196
6.98002
-0.0829182
0.094856
-6.9675
6.95423
-0.0895279
0.102799
-6.94013
6.92504
-0.100696
0.115791
-6.90885
6.89137
-0.115584
0.133064
-6.87251
6.85216
-0.132593
0.152947
-6.83026
6.8067
-0.150638
0.174194
-6.78148
6.75445
-0.169287
0.196321
-6.7256
6.69487
-0.186492
0.217228
-6.66246
6.62849
-0.198133
0.232096
-6.59318
6.55655
-0.203489
0.240124
-6.51896
6.48069
-0.206987
0.245265
-6.44235
6.40426
-0.211473
0.249568
-6.36664
6.32909
-0.21032
0.247694
-6.29209
6.2558
-0.202654
0.239084
-6.22068
6.1866
-0.191445
0.225531
-6.15324
6.11986
-0.17124
0.204617
-6.04988
6.02167
-0.155345
0.191139
-6.00331
5.99613
-0.175264
0.198262
-5.978
5.96222
-0.17244
0.188223
-5.94611
5.92566
-0.135069
0.155513
-5.89778
3.68712
-0.152309
0.133334
-3.13729
3.96768
-0.148626
0.185186
-5.63781
5.35807
-0.159327
0.173765
-5.14868
3.80983
-0.0565299
0.0752444
-3.7902
3.79056
-0.031643
0.0312829
-4.6752
5.76658
0.000596673
0.00632229
-5.75459
5.73684
-0.03797
0.055719
-5.71644
4.63189
-0.110738
0.0812794
-1.6573
0.501197
-0.157864
0.0247187
-0.405188
0.415536
-0.0697078
0.0125104
0.670579
-0.672154
0.0432326
-0.0821141
0.122081
0.417532
-0.45834
-0.159579
0.193113
0.236865
-0.266923
-0.220847
0.242455
0.0779725
-0.0995803
-0.255926
0.261414
-0.00977113
0.0042827
-0.26014
0.255805
0.0125136
-0.00817853
-0.25271
0.256658
0.0828045
-0.0870748
-0.273122
0.293738
0.112882
-0.133002
-0.326957
0.262177
-0.0534753
0.018822
0.0019072
1.52466e-20
2.29137e-06
-0.00271075
-3.944e-26
-1.745e-20
9.07662e-20
-8.12803e-20
6.45112e-20
-6.29027e-19
-1.92778e-19
9.56178e-19
-0.0520385
1.48357
0.0832247
-1.44233
-4.38847
4.84213
4.1134
-4.56707
-4.96342
5.09638
4.11549
-4.24845
-5.23845
5.38696
3.72924
-3.87774
-5.53677
5.68412
3.29121
-3.43856
-5.82769
5.96514
2.78916
-2.92662
-6.09712
6.22215
2.22123
-2.34626
-6.34249
6.45744
1.60607
-1.72103
-6.56759
6.67295
1.00347
-1.10883
-6.77444
6.86788
0.488077
-0.581517
-6.94699
7.00734
0.179737
-0.240091
-7.04942
7.07642
0.0356742
-0.0626769
-7.09236
7.10075
-0.0322681
0.0238772
-7.10412
7.10427
-0.0662122
0.0660623
-7.10269
7.10018
-0.082174
0.0846818
-7.09707
7.0933
-0.0905983
0.0943658
-7.0888
7.0835
-0.0960743
0.101376
-7.07747
7.07071
-0.0998646
0.10662
-7.06318
7.05472
-0.105139
0.113599
-7.04527
7.03466
-0.114726
0.125334
-7.02284
7.00967
-0.129827
0.142999
-6.99511
6.979
-0.149694
0.165803
-6.96127
6.94189
-0.172613
0.191992
-6.92075
6.89799
-0.197094
0.219859
-6.87339
6.8469
-0.222796
0.249285
-6.81822
6.78731
-0.247711
0.278614
-6.75424
6.7195
-0.266071
0.300817
-6.68319
6.64551
-0.2769
0.314573
-6.60661
6.5669
-0.28381
0.323514
-6.5267
6.48651
-0.288362
0.328557
-6.44669
6.4076
-0.285553
0.32464
-6.3695
6.3325
-0.275393
0.312389
-6.29687
6.26215
-0.259579
0.294155
-6.22835
6.19502
-0.237862
0.271319
-6.16236
6.13145
-0.222886
0.253802
-6.10389
6.08036
-0.221968
0.245491
-6.06021
6.04089
-0.205747
0.225063
-5.93666
5.91392
-0.179073
0.201544
-5.89302
5.9407
-0.20277
0.222926
-5.9489
5.94758
-0.22143
0.230454
-5.42077
4.57927
-0.167961
0.172331
-4.96436
5.63916
-0.0774467
0.123135
-5.9126
5.90728
-0.0531724
0.0584867
-5.90057
5.89064
-0.0147713
0.0246987
-3.30538
1.86551
-0.0374879
0.0437679
-1.32747
1.77835
-0.0296916
0.0917224
-1.89314
1.9894
-0.0197322
0.117624
-2.61974
4.44459
-0.0110927
0.12747
0.723383
-0.783616
0.0602335
-0.0927876
0.127842
0.494719
-0.532976
-0.158801
0.185076
0.297124
-0.325586
-0.206836
0.218806
0.119135
-0.135284
-0.219666
0.219597
-0.00135729
0.00143921
-0.212417
0.200713
0.000505939
0.0111985
-0.190124
0.190435
0.0830159
-0.0773769
-0.183287
0.176086
0.138823
-0.131622
-0.170251
0.175287
0.00839533
-0.0134316
-0.0824163
0
-0.0267149
0.0331262
1.06952e-22
-2.39636e-20
5.30433e-20
-9.50368e-21
1.8715e-32
0.494437
2.75845e-18
-0.494437
-3.93929
4.50582
4.50332
-5.06984
-4.63287
4.77901
4.6928
-4.83894
-4.94042
5.11105
4.39812
-4.56875
-5.28667
5.46246
4.03866
-4.21445
-5.63369
5.79685
3.59454
-3.7577
-5.94877
6.09015
3.06703
-3.20841
-6.21963
6.33831
2.46894
-2.58763
-6.44598
6.54364
1.82781
-1.92547
-6.63409
6.71652
1.2027
-1.28514
-6.79231
6.86104
0.661179
-0.72991
-6.92159
6.97203
0.294307
-0.344746
-7.01227
7.04342
0.0907377
-0.121893
-7.06711
7.08567
-0.0113317
-0.0072296
-7.09966
7.10984
-0.061469
0.0512834
-7.11798
7.12485
-0.0828068
0.0759298
-7.13075
7.13559
-0.0940056
0.0891653
-7.13899
7.14078
-0.10316
0.101374
-7.14105
7.13983
-0.110532
0.111748
-7.13707
7.1327
-0.119866
0.124244
-7.12663
7.11874
-0.134358
0.142243
-7.10902
7.09746
-0.155092
0.166655
-7.08408
7.06888
-0.181161
0.196359
-7.0518
7.03279
-0.21098
0.229988
-7.01183
6.98906
-0.242315
0.265086
-6.96449
6.93789
-0.275514
0.302119
-6.90896
6.87729
-0.309584
0.341258
-6.84304
6.80676
-0.335954
0.372232
-6.769
6.72976
-0.35266
0.391906
-6.68934
6.64817
-0.363598
0.404763
-6.60631
6.56393
-0.369516
0.411897
-6.52203
6.48127
-0.364151
0.404909
-6.44193
6.40432
-0.349314
0.386929
-6.36841
6.33391
-0.328492
0.362995
-6.3004
6.26802
-0.303918
0.336297
-6.23718
6.20852
-0.283221
0.311885
-6.18261
6.15911
-0.268531
0.291578
-6.13843
6.11843
-0.244802
0.264894
-6.09857
6.07891
-0.22492
0.244578
-6.0625
6.05145
-0.235552
0.246604
-6.03336
6.02302
-0.231876
0.234396
-6.03062
6.04024
-0.194312
0.19361
-6.03819
6.0341
-0.127792
0.131881
-6.02871
6.00865
-0.0651626
0.0719268
-6.00123
5.99195
-0.0346399
0.0449711
-5.99486
5.99862
-0.0859453
0.0821826
-6.00505
6.01362
-0.132067
0.123494
-6.02423
6.03753
-0.151281
0.137984
-6.05129
6.06525
-0.118867
0.104901
0.851339
-0.975677
0.0693733
-0.107578
0.144533
0.544916
-0.575776
-0.169422
0.187725
0.347885
-0.366189
-0.20218
0.212517
0.149209
-0.159468
-0.216078
0.209861
-0.00483273
0.0110493
-0.193772
0.17143
-0.0286665
0.0510082
-0.147635
0.126299
0.0621256
-0.0407894
-0.107323
0.0857518
0.114883
-0.0927559
-0.0558304
0.0256861
-0.00181315
0.0319574
-0.00443423
8.38707e-23
-0.0124998
0.000300243
4.82227e-22
0
-6.17502e-36
4.02206e-19
-1.56315
4.09407
2.89143
-5.24877
-4.27698
4.42931
5.19658
-5.34891
-4.60339
4.79213
5.006
-5.19474
-4.99052
5.19072
4.7549
-4.9551
-5.38854
5.57846
4.39708
-4.587
-5.75446
5.91479
3.92081
-4.08114
-6.05817
6.1855
3.34332
-3.47065
-6.29672
6.39535
2.69718
-2.79581
-6.47843
6.54534
2.01091
-2.07782
-6.54516
6.25736
1.35589
-1.07259
-5.73049
5.11542
0.790078
-0.199377
-4.51211
4.06269
0.395351
2.59328e-20
-3.70495
3.39475
0.158578
7.16487e-21
-3.11502
2.85544
0.0306987
1.51993e-21
-2.60524
2.3974
-0.0272985
0.000150684
-2.36319
2.38857
-0.0499611
0
-2.42018
2.42123
-0.0626699
5.65e-06
-2.35831
2.25845
-0.0753082
0
-2.26634
2.30881
-0.102635
0
-2.3886
2.50047
-0.127263
-0.000144419
-2.64413
2.82884
-0.149433
0.00233579
-3.07036
3.37961
-0.177952
0.0106879
-3.75366
4.17098
-0.211477
0.0314334
-4.60015
5.02677
-0.249013
0.0704304
-5.46404
5.90814
-0.288051
0.133814
-6.31239
6.68496
-0.328931
0.227753
-6.95473
6.97428
-0.373178
0.35363
-6.93838
6.89985
-0.40924
0.447772
-6.86014
6.81879
-0.4317
0.473042
-6.77644
6.73392
-0.446283
0.488802
-6.69068
6.64624
-0.45496
0.499404
-6.60208
6.55964
-0.446152
0.488592
-6.51904
6.48083
-0.424515
0.462717
-6.44512
6.41084
-0.397043
0.431322
-6.37789
6.34653
-0.36785
0.399205
-6.31735
6.29052
-0.339351
0.366176
-6.26596
6.24353
-0.314153
0.336592
-6.2231
6.20448
-0.284149
0.302772
-6.18736
6.17177
-0.261819
0.277272
-6.15917
6.15018
-0.256387
0.265459
-6.14503
6.14309
-0.23724
0.239173
-6.14352
6.14477
-0.193413
0.192166
-6.14509
6.14364
-0.134481
0.135947
-6.1402
6.13517
-0.0780939
0.0831683
-6.12919
6.12415
-0.0523056
0.0573474
-6.12291
6.127
-0.0795715
0.0754863
-6.13545
6.1464
-0.113611
0.102665
-6.15907
6.17313
-0.124244
0.110177
-6.18705
6.20042
-0.0912262
0.0778556
1.04245
-1.09706
0.0546104
-0.119774
0.158116
0.63194
-0.670282
-0.183284
0.197072