/*--------------------------------*- C++ -*----------------------------------*\
| =========                 |                                                 |
| \\      /  F ield         | OpenFOAM: The Open Source CFD Toolbox           |
|  \\    /   O peration     | Version:  v1912                                 |
|   \\  /    A nd           | Website:  www.openfoam.com                      |
|    \\/     M anipulation  |                                                 |
\*---------------------------------------------------------------------------*/
FoamFile
{
    version     2.0;
    format      ascii;
    class       volScalarField;
    location    "52";
    object      alpha.water;
}
// * * * * * * * * * * * * * * * * * * * * * * * * * * * * * * * * * * * * * //

dimensions      [0 0 0 0 0 0 0];


internalField   nonuniform List<scalar> 
20320
(
1
1
1
1
1
1
1
1
1
1
1
1
1
1
1
1
1
1
1
1
1
1
1
1
1
1
1
1
1
1
1
1
1
1
1
1
1
1
1
1
1
1
1
1
1
1
1
1
1
1
1
1
1
1
1
1
1
1
1
1
1
1
1
1
1
1
1
1
1
1
1
1
1
1
1
1
1
1
1
1
1
1
1
1
1
1
1
1
1
1
1
1
1
1
1
1
1
1
1
1
1
1
1
1
1
1
1
1
1
1
1
1
1
1
1
1
1
1
1
1
1
1
1
1
1
1
1
1
1
1
1
1
1
1
1
1
1
1
1
1
1
1
1
1
1
1
1
1
1
1
1
1
1
1
1
1
1
1
1
1
1
1
1
1
1
1
1
1
1
1
1
1
1
1
1
1
1
1
1
1
1
1
1
1
1
1
1
1
1
1
1
1
1
1
1
1
1
1
1
1
1
1
1
1
1
1
1
1
1
1
1
1
1
1
1
1
1
1
1
1
1
1
1
1
1
1
1
1
1
1
1
1
1
1
1
1
1
1
1
1
1
1
1
1
1
1
1
1
1
1
1
1
1
1
1
1
1
1
1
1
1
1
1
1
1
1
1
1
1
1
1
1
1
1
1
1
1
1
1
1
1
1
1
1
1
1
1
1
1
1
1
1
1
1
1
1
1
1
1
1
1
1
1
1
1
1
1
1
1
1
1
1
1
1
1
1
1
1
1
1
1
1
1
1
1
1
1
1
1
1
1
1
1
1
1
1
1
1
1
1
1
1
1
1
1
1
1
1
1
1
1
1
1
1
1
1
1
1
1
1
1
1
1
1
1
1
1
1
1
1
1
1
1
1
1
1
1
1
1
1
1
1
1
1
1
1
1
1
1
1
1
1
1
1
1
1
1
1
1
1
0.947169
0.993494
0.985302
0.976658
0.846345
0.923398
0.980076
0.997169
1
1
0.864457
0.59184
0.475961
0.305994
0.0573601
0.000371812
-2.97926e-21
-2.30228e-20
-1.29604e-18
0.0662153
0.117268
0.217099
1
1
1
1
1
1
1
1
1
0.991847
0.991594
0.996734
1
1
1
0.999941
0.999642
0.99992
1
1
0.901401
0.761201
0.879061
0.999998
0.998203
0.999843
1
1
1
1
0.936735
1
1
1
0.93655
0.93655
0.999821
0.999994
0.99977
0.914579
0.912985
0.795061
0.866786
0.96998
0.846576
0.999998
1
0.505898
-1.28633e-20
-4.36439e-20
-2.00547e-20
-5.33283e-21
4.16186e-07
1.43976e-19
0.0752374
0.624474
1
1
1
1
1
1
1
1
1
1
1
1
1
1
1
1
1
1
0.999999
1
1
1
1
0.956771
0.973295
0.999992
1
0.953034
0.946972
1
0.959607
0.573196
0.837951
1
0.848499
0.996541
0.999977
0.999978
1
1
1
0.996513
0.99977
0.982233
0.958827
0.958412
1
0.999868
0.971289
0.984942
1
0.120555
-1.84607e-20
-2.77437e-20
-1.6855e-20
-3.83004e-21
-2.36011e-18
0.731368
1
1
1
1
1
1
1
1
1
1
1
1
1
1
1
1
1
1
1
1
1
1
1
0.999976
0.999938
1
1
1
0.992403
0.998051
0.999993
0.790162
0.763674
0.996984
1
0.719405
0.480087
0.993477
0.888763
0.804818
1
1
1
1
0.999606
0.998964
0.975003
0.981915
1
1
1
0.997636
0.909016
-2.71285e-19
-2.71282e-20
-3.07921e-20
-4.49938e-22
0.0680994
1
1
1
1
1
1
1
1
1
1
1
1
1
1
1
1
1
1
1
1
1
1
1
1
1
1
1
1
0.999981
0.999978
1
1
0.994069
0.99915
1
1
0.650716
0.558223
0.959135
0.779382
0.655632
0.924494
1
0.945032
0.199131
0.0733173
0.970669
0.984318
0.994299
1
1
1
0.986182
0.999841
0.930861
3.2315e-05
-3.27959e-20
-1.39549e-19
0.0760792
1
1
1
1
1
1
1
1
1
1
1
1
1
1
1
1
1
1
1
1
1
1
1
1
1
1
1
1
1
1
1
0.999982
0.999984
1
1
1
0.985614
0.992633
0.999851
0.840846
0.880023
1
1
0.331722
0.2642
0.311057
0.544116
0.939728
0.996507
0.999079
0.999555
0.947629
0.947629
0.984337
1
1
0.0683685
-1.83748e-20
1.11194e-18
1
1
1
1
1
1
1
1
1
1
1
1
1
1
1
1
1
1
1
1
1
1
1
1
1
1
1
1
1
1
1
1
1
1
1
0.999984
0.999939
1
1
0.996692
0.999537
1
0.998745
0.997949
1
1
1
1
0.958401
0.961443
1
0.999992
1
1
1
0.997032
1
0.00894334
-3.73497e-21
0.859874
1
1
1
1
1
1
1
1
0.973001
0.849414
0.698535
0.591392
0.505857
0.426266
0.396631
0.400558
0.380145
0.374317
0.392212
0.428901
0.491535
0.588013
0.700473
0.81685
0.925198
1
1
1
1
1
1
1
1
1
1
1
1
0.999993
0.999984
1
1
0.999987
0.999998
1
1
1
1
1
1
1
0.999994
0.979566
0.871039
0.876109
0.871944
0.999933
0.789131
-2.28015e-38
0.231996
1
1
1
1
1
1
1
0.665494
4.46563e-19
-6.31616e-20
-9.99447e-20
-6.24746e-20
-3.7191e-20
-3.16466e-20
-3.2555e-20
-3.24289e-20
-3.1324e-20
-3.09288e-20
-3.02528e-20
-1.57357e-20
-2.91278e-23
-2.0055e-21
-3.97482e-21
1.39306e-21
5.93282e-20
0.00301969
0.0404867
0.158076
0.421122
0.825101
1
1
1
1
1
1
1
1
1
1
1
1
1
1
1
1
1
1
1
1
0.988501
0.962675
0.999794
0.99971
0.911023
0.992278
1
0.0712702
-8.03739e-20
0.974739
1
1
1
1
1
0.920349
-1.22239e-18
-8.97123e-23
-5.61924e-20
-4.5457e-20
-3.17788e-20
-2.35748e-20
-1.94935e-20
-1.79189e-20
-1.7373e-20
-1.70502e-20
-1.6808e-20
-1.6862e-20
-1.72515e-20
-1.77087e-20
-1.78456e-20
-1.75397e-20
-1.65931e-20
-1.47609e-20
-1.19561e-20
-8.46682e-21
-4.84396e-21
-2.37618e-21
2.50985e-21
-5.24743e-20
0.00820459
0.133661
0.546352
0.9986
1
1
1
1
1
1
1
1
1
1
1
1
1
1
1
0.999902
0.981565
0.757069
0.814736
1
1
0.949857
1
0.0260446
0.329962
1
1
1
1
1
0.844137
-8.89512e-19
-3.96299e-20
-1.71994e-20
-1.2777e-20
-1.03067e-20
-9.64732e-21
-9.3439e-21
-8.78899e-21
-8.04481e-21
-7.34025e-21
-6.81666e-21
-6.51231e-21
-6.40598e-21
-6.44628e-21
-6.58969e-21
-6.81158e-21
-7.29876e-21
-8.11709e-21
-9.02141e-21
-9.71508e-21
-9.99671e-21
-9.64511e-21
-8.62078e-21
-7.0372e-21
-5.04071e-21
-2.88842e-21
-3.88954e-22
-5.96889e-21
-1.37559e-19
0.0315755
0.26068
0.542412
0.723657
0.992954
0.997923
0.97988
0.994056
1
1
0.991601
0.98104
0.983389
0.974068
0.925929
0.99861
1
1
0.75332
0.988849
0.899974
0.905168
1
1.73331e-20
0.943295
1
1
1
1
0.949372
-5.22288e-19
-3.1392e-20
-1.62325e-20
-1.15053e-20
-8.79037e-21
-7.05481e-21
-5.79547e-21
-4.80974e-21
-3.98087e-21
-3.29886e-21
-2.78791e-21
-2.44677e-21
-2.25111e-21
-2.17194e-21
-2.1896e-21
-2.31897e-21
-2.68427e-21
-3.68247e-21
-6.31037e-21
-1.31949e-20
-3.11121e-20
-7.41997e-20
-1.66199e-19
-3.50556e-19
-6.81986e-19
-1.21902e-18
-2.04216e-18
-3.11939e-18
-4.26123e-18
-5.22668e-18
-5.70495e-18
-2.59012e-18
6.66649e-22
-1.60665e-21
2.24095e-20
-6.2502e-21
0.0085157
0.0405799
0.0200351
0.000759172
0.00326198
0.00366448
0.000893392
-2.59572e-21
-6.42027e-21
0.99861
1
1
0.953843
0.745934
0.968139
1
0.409952
0.0780284
1
1
1
1
1
0.0318156
-7.63519e-21
-1.01598e-20
-8.61638e-21
-6.31487e-21
-4.62789e-21
-3.44878e-21
-2.54989e-21
-1.8472e-21
-1.31513e-21
-9.40568e-22
-6.98277e-22
-5.55388e-22
-4.8375e-22
-4.66434e-22
-5.04913e-22
-6.71658e-22
-1.39028e-21
-4.48149e-21
-1.59469e-20
-5.23649e-20
-1.54674e-19
-4.07384e-19
-9.55455e-19
-2.01981e-18
-3.86392e-18
-6.73068e-18
-1.07884e-17
-1.5874e-17
-2.14043e-17
-2.66979e-17
-3.05867e-17
-3.23413e-17
-3.189e-17
-2.89706e-17
-2.41801e-17
-1.8355e-17
-1.32055e-17
-9.00593e-18
-5.86412e-18
-3.80479e-18
-2.35237e-18
-1.32037e-18
-6.89725e-19
-3.41162e-19
-1.60597e-19
1
0.994451
0.928776
1
0.999841
1
1
-2.30866e-36
0.858235
1
1
1
1
0.360579
-8.49046e-36
-1.29937e-20
-6.41477e-21
-4.54003e-21
-3.03361e-21
-1.99345e-21
-1.29257e-21
-7.97056e-22
-4.64282e-22
-2.6328e-22
-1.53486e-22
-9.85081e-23
-7.49932e-23
-7.13903e-23
-8.41699e-23
-1.17101e-22
-2.01767e-22
-5.53573e-22
-2.36909e-21
-1.07113e-20
-4.18299e-20
-1.3471e-19
-3.68119e-19
-8.73691e-19
-1.82441e-18
-3.39478e-18
-5.66549e-18
-8.51754e-18
-1.16291e-17
-1.45128e-17
-1.65406e-17
-1.73511e-17
-1.65263e-17
-1.43211e-17
-1.17188e-17
-8.76568e-18
-5.77427e-18
-3.54844e-18
-2.19829e-18
-1.24905e-18
-5.73008e-19
-2.28938e-19
-9.25629e-20
-3.68485e-20
-1.54658e-20
-8.56604e-21
0.999694
0.77968
0.994962
1
1
1
0.59139
1.26153e-18
1
1
1
1
1
-1.01862e-18
-1.94742e-20
-5.92234e-21
-3.26351e-21
-2.02664e-21
-1.17254e-21
-6.63e-22
-3.4572e-22
-1.58342e-22
-6.57691e-23
-2.72209e-23
-1.3182e-23
-9.46729e-24
-1.10762e-23
-1.73055e-23
-2.96388e-23
-5.11377e-23
-8.71058e-23
-1.53998e-22
-3.44808e-22
-1.16704e-21
-4.78823e-21
-1.84014e-20
-5.92033e-20
-1.53145e-19
-3.31738e-19
-6.19022e-19
-1.0063e-18
-1.43291e-18
-1.81493e-18
-2.07108e-18
-2.12693e-18
-1.98266e-18
-1.63106e-18
-1.20628e-18
-8.60668e-19
-5.48751e-19
-2.93413e-19
-1.52132e-19
-8.56494e-20
-4.23907e-20
-1.61447e-20
-6.27858e-21
-3.31451e-21
-2.2035e-21
-1.64534e-21
-1.24774e-21
0.98964
0.779688
1
1
0.704892
0.295763
2.93825e-21
0.594348
1
1
1
1
0.271614
-6.32502e-20
-6.02328e-21
-2.78509e-21
-1.50478e-21
-7.79272e-22
-3.76262e-22
-1.63307e-22
-5.81632e-23
-1.68328e-23
-4.45881e-24
-1.51505e-24
-1.18078e-24
-1.85176e-24
-3.54121e-24
-6.94182e-24
-1.33387e-23
-2.4693e-23
-4.36638e-23
-7.34996e-23
-1.18075e-22
-1.84347e-22
-2.98359e-22
-5.74246e-22
-1.44176e-21
-4.24915e-21
-1.08565e-20
-2.22725e-20
-3.76069e-20
-5.31051e-20
-6.43863e-20
-6.85466e-20
-6.44708e-20
-5.38371e-20
-3.9012e-20
-2.58582e-20
-1.6977e-20
-1.00716e-20
-5.31897e-21
-3.02517e-21
-1.91839e-21
-1.17091e-21
-7.05503e-22
-4.63078e-22
-3.22093e-22
-2.24855e-22
-1.53997e-22
-9.87499e-23
0.977949
0.956953
1
0.0238323
7.95856e-34
0.00126845
-5.96907e-22
0.942195
1
1
1
1
9.1823e-19
-5.17739e-21
-2.49605e-21
-1.31755e-21
-6.25151e-22
-2.58538e-22
-9.21218e-23
-2.5683e-23
-5.1285e-24
-7.93766e-25
-1.61975e-25
-1.2723e-25
-2.20099e-25
-4.42608e-25
-9.21264e-25
-1.9126e-24
-3.86955e-24
-7.51061e-24
-1.38455e-23
-2.41004e-23
-3.95022e-23
-6.093e-23
-8.85718e-23
-1.21971e-22
-1.60733e-22
-2.06059e-22
-2.65652e-22
-3.69585e-22
-5.18186e-22
-6.69446e-22
-7.74673e-22
-8.02756e-22
-7.50372e-22
-6.41287e-22
-5.13496e-22
-4.12753e-22
-3.38355e-22
-2.65129e-22
-1.96837e-22
-1.42278e-22
-9.79053e-23
-6.13648e-23
-3.5521e-23
-2.02994e-23
-1.18383e-23
-6.93153e-24
-3.92827e-24
-1.98282e-24
0.837513
1
0.985037
1.07082e-10
1.52204e-14
0.000226711
3.83781e-19
1
1
1
1
0.532825
-3.94489e-22
-3.9849e-21
-1.78665e-21
-6.53397e-22
-2.20224e-22
-6.56422e-23
-1.49017e-23
-2.1217e-24
-1.81024e-25
-1.64939e-26
-9.61169e-27
-1.47942e-26
-2.73772e-26
-5.52072e-26
-1.15659e-25
-2.42731e-25
-4.96773e-25
-9.72193e-25
-1.79491e-24
-3.09873e-24
-4.97544e-24
-7.40789e-24
-1.02189e-23
-1.3071e-23
-1.55383e-23
-1.72204e-23
-1.78548e-23
-1.74112e-23
-1.62924e-23
-1.57371e-23
-1.59016e-23
-1.53361e-23
-1.41037e-23
-1.26795e-23
-1.14318e-23
-1.04043e-23
-9.1114e-24
-7.16749e-24
-4.98597e-24
-3.14109e-24
-1.77782e-24
-8.76597e-25
-3.87104e-25
-1.68409e-25
-7.69248e-26
-3.61624e-26
-1.59666e-26
-5.61428e-27
0.82703
1
1
0.169251
2.15064e-05
0.566159
0.272281
1
1
1
1
0.0729779
-6.48749e-21
-3.20622e-21
-9.15311e-22
-2.64139e-22
-6.41808e-23
-1.16727e-23
-1.24851e-24
-6.00435e-26
-1.7733e-27
-4.76775e-28
-5.22427e-28
-7.44285e-28
-1.2495e-27
-2.31445e-27
-4.48528e-27
-8.7162e-27
-1.64415e-26
-2.93644e-26
-4.88072e-26
-7.46128e-26
-1.04117e-25
-1.32138e-25
-1.52402e-25
-1.59963e-25
-1.5333e-25
-1.34822e-25
-1.09306e-25
-8.21435e-26
-5.75126e-26
-3.77072e-26
-2.32733e-26
-1.36055e-26
-9.85223e-27
-1.59349e-26
-2.57051e-26
-3.4951e-26
-3.78362e-26
-3.14426e-26
-2.06218e-26
-1.12258e-26
-5.08261e-27
-1.86937e-27
-5.84274e-28
-1.7833e-28
-6.02166e-29
-2.20695e-29
-7.24436e-30
-1.60661e-30
0.930743
1
1
0.964417
1.92977e-07
0.534239
0.66989
1
1
1
1
-3.93849e-19
-5.40631e-21
-1.59377e-21
-3.85827e-22
-8.35284e-23
-1.2637e-23
-1.02825e-24
-2.85615e-26
-2.15739e-28
-1.45702e-29
-8.58148e-30
-6.99171e-30
-7.35129e-30
-9.32432e-30
-1.29344e-29
-1.85903e-29
-2.63212e-29
-3.54227e-29
-4.42462e-29
-5.0493e-29
-5.21522e-29
-4.8546e-29
-4.06837e-29
-3.07326e-29
-2.09917e-29
-1.30193e-29
-7.36674e-30
-3.82201e-30
-1.82708e-30
-8.08348e-31
-3.32403e-31
-1.2756e-31
-4.58563e-32
-1.54998e-32
-4.94142e-33
-6.01577e-32
-1.77786e-30
-8.11588e-30
-1.09142e-29
-8.14126e-30
-4.134e-30
-1.50306e-30
-3.88892e-31
-7.62564e-32
-1.40169e-32
-3.23085e-33
-9.71246e-34
-2.69271e-34
-6.26933e-35
0.999996
1
0.989522
0.998279
1
-1.88318e-20
0.937433
1
1
1
0.591883
-1.31036e-20
-1.90283e-21
-6.77196e-22
-1.43982e-22
-1.97322e-23
-1.28798e-24
-1.94414e-26
-6.34951e-30
-2.24174e-31
-4.10992e-32
-7.84483e-33
-1.36729e-33
-2.13312e-34
-3.59117e-35
-8.32354e-36
-2.69916e-36
-1.05582e-36
-4.66808e-37
-2.25017e-37
-1.04726e-37
-4.6143e-38
-1.90396e-38
-7.30398e-39
-2.59415e-39
-8.5152e-40
-2.58282e-40
-7.24533e-41
-1.88324e-41
-4.57288e-42
-1.45103e-42
-3.87797e-42
-2.07773e-41
-8.55149e-41
-2.72445e-40
-6.97849e-40
-1.47848e-39
-2.64646e-39
-4.07134e-39
-5.46475e-39
-6.49284e-39
-6.92427e-39
-4.75081e-37
-1.49434e-37
-1.71554e-38
-5.69645e-39
-4.05746e-39
-3.16577e-39
-2.3216e-39
-1.65947e-39
0.999996
0.988807
0.941427
1
0.781101
-2.75458e-20
0.998326
1
1
1
0.187716
-2.06764e-21
-1.0545e-21
-3.01965e-22
-4.37017e-23
-2.69522e-24
-2.60475e-26
-9.88806e-32
-4.58253e-33
-1.072e-34
-5.54164e-37
-6.50247e-42
-1.85965e-49
-1.43246e-51
-5.43781e-54
-1.6581e-55
-1.64978e-57
-1.069e-57
-1.71477e-57
-2.82976e-57
-4.7092e-57
-7.98306e-57
-1.32493e-56
-2.11361e-56
-3.2873e-56
-4.98348e-56
-7.35846e-56
-1.50733e-55
-4.49847e-53
-2.10856e-49
-1.49003e-47
-2.12788e-46
-1.39896e-45
-5.57526e-45
-1.54346e-44
-3.21504e-44
-5.30419e-44
-7.18069e-44
-8.18772e-44
-8.02811e-44
-6.89017e-44
-5.26042e-44
-3.62745e-44
-2.29324e-44
-1.34909e-44
-7.49533e-45
-3.98869e-45
-2.05947e-45
-1.04328e-45
-6.15076e-46
0.999996
0.891894
1
1
0.428784
-2.95294e-20
1
1
1
1
0.0111855
-4.10258e-22
-6.59753e-22
-1.18804e-22
-8.62421e-24
-9.61478e-26
-2.44646e-32
-6.19462e-34
-3.55286e-36
-7.15983e-40
-1.93985e-44
-5.93117e-52
-4.54155e-55
-6.26639e-58
-1.40269e-60
-2.60784e-65
-2.29207e-65
-4.15392e-65
-8.12806e-65
-1.58793e-64
-3.04487e-64
-5.68487e-64
-1.02924e-63
-1.80692e-63
-3.09805e-63
-5.46242e-63
-9.13557e-63
-1.51289e-62
-2.46523e-62
-3.8943e-62
-5.96457e-62
-8.88593e-62
-1.29002e-61
-1.82646e-61
-2.5229e-61
-3.39975e-61
-4.46801e-61
-5.72582e-61
-7.16361e-61
-8.77179e-61
-1.05554e-60
-1.25587e-60
-1.4907e-60
-1.78839e-60
-2.20902e-60
-2.88154e-60
-4.1077e-60
-6.69529e-60
-1.32083e-59
-2.62121e-54
0.999052
0.797911
1
1
0.108321
6.71474e-19
1
1
1
1
-2.20397e-19
-1.61625e-21
-4.30801e-22
-3.9866e-23
-7.6392e-25
-2.41233e-32
-5.23775e-34
-1.99674e-36
-7.26438e-40
-1.0266e-43
-6.99813e-48
-4.32007e-52
-5.05588e-57
-1.34758e-62
-3.26235e-68
-2.39552e-69
-1.77267e-69
-3.16601e-69
-5.89539e-69
-1.09181e-68
-1.99956e-68
-3.59527e-68
-6.31208e-68
-1.07841e-67
-1.79411e-67
-2.91034e-67
-4.61497e-67
-7.1696e-67
-1.096e-66
-1.6885e-66
-2.58885e-66
-3.89004e-66
-5.708e-66
-8.1423e-66
-1.13265e-65
-1.53999e-65
-2.0486e-65
-2.67048e-65
-3.4204e-65
-4.33598e-65
-5.53882e-65
-7.39155e-65
-1.08783e-64
-1.85776e-64
-3.71359e-64
-8.36364e-64
-2.0134e-63
-4.96448e-63
-1.22027e-62
-4.17522e-59
0.967023
0.901111
0.999995
1
0.161589
0.360984
1
1
1
0.913951
-3.18939e-20
-9.74994e-22
-2.05169e-22
-7.23316e-24
-2.1791e-30
-5.72261e-33
-2.47868e-35
-5.78736e-38
-8.14555e-41
-5.19183e-44
-1.23241e-47
-8.215e-52
-1.03692e-56
-1.27202e-62
-2.04252e-68
-1.02065e-69
-5.20109e-71
-3.40478e-72
-1.93083e-72
-3.63814e-72
-7.02294e-72
-1.30529e-71
-2.3457e-71
-4.09592e-71
-6.95686e-71
-1.14754e-70
-1.83654e-70
-2.85607e-70
-4.33788e-70
-6.47772e-70
-9.5965e-70
-1.43535e-69
-2.24203e-69
-3.86296e-69
-8.15301e-69
-2.05196e-68
-6.03986e-68
-1.90168e-67
-6.05038e-67
-1.88739e-66
-5.73695e-66
-1.68793e-65
-4.83905e-65
-1.36918e-64
-3.85175e-64
-1.08573e-63
-3.05956e-63
-8.53157e-63
-2.30309e-62
-5.90871e-62
0.971801
1
0.994329
0.988179
0.0205692
0.611763
1
1
1
0.549412
-2.82854e-21
-9.00278e-22
-8.74634e-23
-3.45279e-25
-1.3173e-30
-4.38487e-33
-2.45914e-35
-8.03988e-38
-1.25288e-40
-8.38422e-44
-2.10406e-47
-1.50655e-51
-2.05199e-56
-2.76897e-62
-1.71143e-68
-7.59599e-70
-3.79027e-71
-1.81251e-72
-8.37407e-74
-5.93625e-75
-4.58499e-75
-8.0949e-75
-1.44323e-74
-2.52333e-74
-4.32358e-74
-7.40238e-74
-1.3562e-73
-3.0136e-73
-8.82104e-73
-3.18038e-72
-1.2502e-71
-4.97553e-71
-1.94574e-70
-7.39884e-70
-2.72605e-69
-9.72341e-69
-3.36327e-68
-1.13402e-67
-3.97205e-67
-1.32927e-66
-4.38389e-66
-1.37974e-65
-4.25213e-65
-1.29468e-64
-3.93649e-64
-1.20744e-63
-3.73307e-63
-1.15035e-62
-3.46634e-62
-1.01712e-61
0.686104
1
1
0.599647
0.0200691
0.73763
1
1
1
0.325789
-1.70979e-21
-7.30144e-22
-2.95395e-23
-4.44908e-28
-1.06042e-30
-5.83468e-33
-3.60325e-35
-1.19398e-37
-1.88711e-40
-1.29504e-43
-3.41255e-47
-2.60362e-51
-3.81578e-56
-5.75159e-62
-1.68153e-68
-5.51735e-70
-2.70725e-71
-1.26651e-72
-5.63582e-74
-2.37947e-75
-9.56973e-77
-5.71334e-78
-6.38007e-78
-2.47538e-77
-1.19013e-76
-6.11107e-76
-3.16201e-75
-1.62166e-74
-8.21338e-74
-4.0936e-73
-1.99456e-72
-9.43538e-72
-4.31591e-71
-1.90446e-70
-8.10374e-70
-3.32582e-69
-1.31705e-68
-5.03301e-68
-1.85389e-67
-6.57214e-67
-2.24114e-66
-7.37796e-66
-2.52206e-65
-8.29861e-65
-2.75995e-64
-9.20355e-64
-3.08895e-63
-1.02473e-62
-3.31576e-62
-1.06893e-61
0.582821
1
0.668209
0.951762
0.218433
0.829947
1
1
1
0.148964
4.90168e-39
-4.59235e-22
-4.30029e-24
-3.55184e-28
-1.06803e-30
-8.34487e-33
-5.03946e-35
-1.66127e-37
-2.65843e-40
-1.87418e-43
-5.17542e-47
-4.19161e-51
-6.61791e-56
-1.12576e-61
-2.19061e-68
-3.89055e-70
-1.8777e-71
-8.61346e-73
-3.75203e-74
-1.54814e-75
-6.01307e-77
-2.23015e-78
-3.36674e-79
-1.51867e-78
-8.57227e-78
-4.7447e-77
-2.5728e-76
-1.36814e-75
-7.14451e-75
-3.66866e-74
-1.85355e-73
-9.21895e-73
-4.52178e-72
-2.19193e-71
-1.04973e-70
-4.94248e-70
-2.27214e-69
-1.01479e-68
-4.39379e-68
-1.83783e-67
-7.38295e-67
-2.83756e-66
-1.0471e-65
-3.75342e-65
-1.3236e-64
-4.6153e-64
-1.63116e-63
-5.51068e-63
-1.75269e-62
-5.3215e-62
0.94062
1
0.503374
0.831179
0.0969684
0.935177
1
1
1
0.0452035
-1.50964e-21
-1.85983e-22
-2.44682e-25
-2.97566e-28
-1.20164e-30
-1.087e-32
-6.51114e-35
-2.14057e-37
-3.46908e-40
-2.51288e-43
-7.26318e-47
-6.23252e-51
-1.06091e-55
-2.05132e-61
-3.6711e-68
-2.65527e-70
-1.26204e-71
-5.68707e-73
-2.42755e-74
-9.79756e-76
-3.71696e-77
-1.32195e-78
-5.85401e-80
-8.9296e-80
-5.10342e-79
-2.89954e-78
-1.61469e-77
-8.82314e-77
-4.73702e-76
-2.50181e-75
-1.30063e-74
-6.6639e-74
-3.37146e-73
-1.68688e-72
-8.35208e-72
-4.09754e-71
-2.00121e-70
-9.76159e-70
-4.74662e-69
-2.30147e-68
-1.10457e-67
-5.12528e-67
-2.25148e-66
-9.32441e-66
-3.66542e-65
-1.37185e-64
-4.82029e-64
-1.53724e-63
-4.22496e-63
-9.34055e-63
0.530383
0.611038
0.578656
0.801916
-8.15582e-21
0.98526
1
1
1
0.0103956
-1.45068e-21
-4.69165e-23
-1.8601e-25
-2.65238e-28
-1.37386e-30
-1.28097e-32
-7.69316e-35
-2.53285e-37
-4.15661e-40
-3.08784e-43
-9.32723e-47
-8.46717e-51
-1.55777e-55
-3.45053e-61
-6.80008e-68
-1.75047e-70
-8.19675e-72
-3.63088e-73
-1.5211e-74
-6.01388e-76
-2.23215e-77
-7.75022e-79
-2.57369e-80
-4.65707e-81
-2.31277e-80
-1.34034e-79
-7.62036e-79
-4.25216e-78
-2.33105e-77
-1.25594e-76
-6.65864e-76
-3.4789e-75
-1.79326e-74
-9.12999e-74
-4.5969e-73
-2.29577e-72
-1.14203e-71
-5.67465e-71
-2.82741e-70
-1.42382e-69
-7.26101e-69
-3.74619e-68
-1.91457e-67
-9.15963e-67
-3.97332e-66
-1.55036e-65
-5.34746e-65
-1.56585e-64
-3.6552e-64
-6.30418e-64
0.776432
1
1
0.416811
-3.23497e-20
0.999856
1
1
1
0.000222846
-1.51349e-21
-3.35364e-23
-1.62809e-25
-2.70441e-28
-1.52415e-30
-1.37644e-32
-8.24043e-35
-2.72235e-37
-4.52307e-40
-3.43852e-43
-1.0833e-46
-1.04024e-50
-2.07609e-55
-5.31553e-61
-1.24265e-67
-1.11329e-70
-5.13381e-72
-2.23701e-73
-9.20163e-75
-3.56781e-76
-1.29752e-77
-4.41042e-79
-1.40065e-80
-5.41205e-82
-7.87078e-82
-4.56938e-81
-2.63566e-80
-1.49157e-79
-8.28442e-79
-4.51909e-78
-2.42184e-77
-1.27667e-76
-6.62192e-76
-3.38356e-75
-1.70516e-74
-8.49254e-74
-4.19065e-73
-2.05414e-72
-1.0042e-71
-4.91465e-71
-2.41614e-70
-1.19568e-69
-5.90927e-69
-2.88055e-68
-1.31892e-67
-5.26371e-67
-1.76779e-66
-4.84365e-66
-1.03204e-65
-1.60397e-65
0.999961
0.996193
0.656963
0.409094
-1.32502e-23
1
1
1
1
-2.87201e-21
-1.60025e-21
-3.06478e-23
-1.5929e-25
-3.30883e-28
-1.62157e-30
-1.33301e-32
-7.94916e-35
-2.63169e-37
-4.42269e-40
-3.43195e-43
-1.12592e-46
-1.14445e-50
-2.49142e-55
-7.4426e-61
-2.12509e-67
-6.823e-71
-3.09831e-72
-1.3279e-73
-5.36582e-75
-2.04108e-76
-7.27649e-78
-2.42431e-79
-7.53532e-81
-2.20861e-82
-2.46049e-83
-1.11583e-82
-6.4765e-82
-3.69071e-81
-2.0634e-80
-1.131e-79
-6.07797e-79
-3.20249e-78
-1.65532e-77
-8.39437e-77
-4.17898e-76
-2.04435e-75
-9.84266e-75
-4.67042e-74
-2.18744e-73
-1.01156e-72
-4.61798e-72
-2.07389e-71
-9.07201e-71
-3.81449e-70
-1.49844e-69
-5.36256e-69
-1.66154e-68
-4.18465e-68
-8.22495e-68
-1.23226e-67
0.999971
0.985914
0.599341
0.84869
-1.33781e-18
1
1
1
1
-1.00606e-20
-1.72279e-21
-2.7271e-23
-1.61645e-25
-4.67899e-28
-1.7243e-30
-1.16125e-32
-6.87944e-35
-2.27464e-37
-3.85512e-40
-3.04527e-43
-1.03862e-46
-1.11866e-50
-2.67305e-55
-9.40068e-61
-3.3203e-67
-4.01937e-71
-1.7968e-72
-7.57776e-74
-3.00894e-75
-1.12375e-76
-3.93003e-78
-1.28413e-79
-3.91541e-81
-1.11113e-82
-3.23953e-84
-1.9576e-84
-1.09739e-83
-6.25209e-83
-3.48968e-82
-1.90692e-81
-1.01965e-80
-5.33164e-80
-2.72646e-79
-1.36272e-78
-6.65692e-78
-3.17893e-77
-1.48621e-76
-6.80741e-76
-3.05768e-75
-1.34762e-74
-5.82262e-74
-2.45192e-73
-9.9671e-73
-3.84612e-72
-1.37817e-71
-4.47287e-71
-1.26591e-70
-3.00127e-70
-5.71742e-70
-8.39218e-70
0.334485
0.836913
0.992666
0.282471
0.37777
1
1
1
0.812328
2.78687e-21
-1.59303e-21
-2.4044e-23
-1.66369e-25
-7.09754e-28
-2.00921e-30
-9.14732e-33
-5.29861e-35
-1.7422e-37
-2.96887e-40
-2.381e-43
-8.43215e-47
-9.64983e-51
-2.54815e-55
-1.06361e-60
-4.68015e-67
-2.27302e-71
-9.99552e-73
-4.14841e-74
-1.61956e-75
-5.9402e-77
-2.03972e-78
-6.54193e-80
-1.95757e-81
-5.45455e-83
-1.41407e-84
-5.53952e-86
-1.2557e-85
-7.05582e-85
-3.90388e-84
-2.11153e-83
-1.11533e-82
-5.74878e-82
-2.89079e-81
-1.41784e-80
-6.77775e-80
-3.15887e-79
-1.43655e-78
-6.3801e-78
-2.76818e-77
-1.17404e-76
-4.85677e-76
-1.94744e-75
-7.48463e-75
-2.71002e-74
-9.06274e-74
-2.72624e-73
-7.15476e-73
-1.58636e-72
-2.86261e-72
-4.04169e-72
2.39841e-08
-1.05068e-20
-1.85557e-20
-4.35039e-21
0.7334
1
1
1
0.565109
2.86105e-22
-1.45381e-21
-2.2421e-23
-1.81443e-25
-1.08504e-27
-2.66378e-30
-6.50487e-33
-3.5794e-35
-1.16615e-37
-1.99577e-40
-1.62284e-43
-5.96236e-47
-7.27951e-51
-2.14262e-55
-1.06919e-60
-5.88754e-67
-1.23354e-71
-5.3312e-73
-2.17676e-74
-8.35402e-76
-3.00987e-77
-1.01505e-78
-3.19646e-80
-9.39303e-82
-2.57115e-83
-6.53735e-85
-1.55745e-86
-1.27287e-87
-5.22795e-87
-2.84477e-86
-1.51267e-85
-7.84166e-85
-3.9609e-84
-1.94877e-83
-9.33549e-83
-4.35073e-82
-1.9736e-81
-8.72178e-81
-3.75667e-80
-1.57631e-79
-6.43829e-79
-2.5518e-78
-9.74384e-78
-3.54158e-77
-1.20575e-76
-3.77397e-76
-1.0606e-75
-2.60999e-75
-5.46109e-75
-9.39672e-75
-1.28561e-74
1.08146e-08
1.22595e-08
1.28642e-06
1.04394e-17
0.948985
1
1
1
0.336203
-1.50175e-21
-1.3766e-21
-2.20164e-23
-2.11655e-25
-1.5703e-27
-3.81563e-30
-4.32457e-33
-2.09437e-35
-6.74353e-38
-1.15834e-40
-9.54812e-44
-3.63386e-47
-4.75508e-51
-1.57434e-55
-9.44391e-61
-6.53425e-67
-6.40609e-72
-2.71802e-73
-1.09233e-74
-4.1222e-76
-1.45944e-77
-4.83546e-79
-1.49597e-80
-4.31718e-82
-1.16103e-83
-2.90219e-85
-6.7322e-87
-1.49025e-88
-2.81231e-89
-1.3499e-88
-7.0214e-88
-3.5579e-87
-1.75391e-86
-8.41454e-86
-3.92538e-85
-1.77922e-84
-7.84041e-84
-3.35874e-83
-1.39904e-82
-5.66048e-82
-2.2206e-81
-8.41666e-81
-3.05785e-80
-1.05237e-79
-3.38228e-79
-9.96873e-79
-2.64097e-78
-6.14564e-78
-1.22313e-77
-2.02193e-77
-2.6934e-77
2.37689e-09
1.19669e-06
0.000326672
3.28269e-18
1
1
1
1
0.132359
-1.45544e-21
-1.11831e-21
-2.11103e-23
-2.48356e-25
-2.08424e-27
-5.46536e-30
-3.09137e-33
-1.06182e-35
-3.36038e-38
-5.78476e-41
-4.83701e-44
-1.9019e-47
-2.67761e-51
-1.00382e-55
-7.25577e-61
-6.32916e-67
-3.16711e-72
-1.316e-73
-5.2098e-75
-1.93451e-76
-6.7352e-78
-2.19493e-79
-6.67812e-81
-1.89463e-82
-5.00801e-84
-1.23098e-85
-2.80947e-87
-5.93673e-89
-1.23403e-90
-4.42926e-91
-2.14718e-90
-1.06216e-89
-5.11125e-89
-2.39222e-88
-1.08744e-87
-4.80073e-87
-2.05743e-86
-8.56308e-86
-3.45577e-85
-1.35076e-84
-5.1002e-84
-1.8531e-83
-6.42648e-83
-2.10531e-82
-6.42052e-82
-1.79556e-81
-4.51951e-81
-1.00314e-80
-1.91465e-80
-3.05928e-80
-3.98577e-80
3.57134e-08
4.47026e-07
4.56209e-05
0.624069
1
1
1
1
0.014741
-2.25925e-21
-8.15643e-22
-1.96416e-23
-2.78484e-25
-2.50464e-27
-7.23657e-30
-2.82204e-33
-4.69109e-36
-1.45076e-38
-2.49784e-41
-2.12475e-44
-8.59874e-48
-1.30507e-51
-5.55063e-56
-4.82725e-61
-5.31592e-67
-1.48913e-72
-6.02194e-74
-2.3495e-75
-8.59061e-77
-2.9421e-78
-9.43178e-80
-2.82393e-81
-7.88322e-83
-2.05047e-84
-4.96063e-86
-1.1143e-87
-2.31818e-89
-4.44256e-91
-8.71668e-93
-4.71364e-93
-2.20943e-92
-1.03656e-91
-4.73412e-91
-2.1021e-90
-9.06179e-90
-3.79161e-89
-1.53834e-88
-6.04229e-88
-2.29184e-87
-8.36897e-87
-2.92665e-86
-9.73105e-86
-3.04654e-85
-8.86878e-85
-2.36761e-84
-5.7024e-84
-1.21519e-83
-2.2395e-83
-3.48444e-83
-4.46439e-83
1.54335e-10
0.000269324
1.18042e-19
1
1
1
1
1
1.7316e-19
-3.00097e-21
-6.39415e-22
-1.78051e-23
-2.77413e-25
-2.57682e-27
-8.06597e-30
-3.03139e-33
-1.81488e-36
-5.44031e-39
-9.35497e-42
-8.11817e-45
-3.37071e-48
-5.51254e-52
-2.65358e-56
-2.76095e-61
-3.83642e-67
-6.67678e-73
-2.59788e-74
-9.99114e-76
-3.59926e-77
-1.21307e-78
-3.82418e-80
-1.12627e-81
-3.09244e-83
-7.91416e-85
-1.88474e-86
-4.16873e-88
-8.54128e-90
-1.61294e-91
-2.79343e-93
-5.2656e-95
-4.0096e-95
-1.78526e-94
-7.89454e-94
-3.40611e-93
-1.43036e-92
-5.83358e-92
-2.30639e-91
-8.81201e-91
-3.2431e-90
-1.14528e-89
-3.85898e-89
-1.23149e-88
-3.69059e-88
-1.02729e-87
-2.62416e-87
-6.06027e-87
-1.24398e-86
-2.22391e-86
-3.38176e-86
-4.27309e-86
8.13984e-07
1.68694e-18
0.781575
1
1
1
1
0.767721
1.43512e-20
-2.48486e-21
-4.54753e-22
-1.47411e-23
-2.17122e-25
-2.09012e-27
-6.99565e-30
-3.02012e-33
-6.33646e-37
-1.78606e-39
-3.0511e-42
-2.70033e-45
-1.14251e-48
-2.00226e-52
-1.08342e-56
-1.33683e-61
-2.33988e-67
-2.84839e-73
-1.04695e-74
-3.97249e-76
-1.41166e-77
-4.69098e-79
-1.45606e-80
-4.22029e-82
-1.14036e-83
-2.87223e-85
-6.73332e-87
-1.46591e-88
-2.9572e-90
-5.50203e-92
-9.39413e-94
-1.46645e-95
-2.8385e-97
-3.3428e-97
-1.41887e-96
-5.94483e-96
-2.43182e-95
-9.67827e-95
-3.73595e-94
-1.39273e-93
-4.99496e-93
-1.71522e-92
-5.60506e-92
-1.73188e-91
-5.01541e-91
-1.34816e-90
-3.32696e-90
-7.44188e-90
-1.48548e-89
-2.59523e-89
-3.88439e-89
-4.86374e-89
0.287751
0.508307
1
1
1
1
1
0.222982
-1.1232e-38
-2.31797e-21
-4.0713e-22
-1.08495e-23
-1.22948e-25
-1.2376e-27
-4.48777e-30
-2.4318e-33
-2.19723e-37
-5.19135e-40
-8.75332e-43
-7.86412e-46
-3.36386e-49
-6.23721e-53
-3.75215e-57
-5.43058e-62
-1.19205e-67
-1.15247e-73
-3.90266e-75
-1.46185e-76
-5.12782e-78
-1.68105e-79
-5.14664e-81
-1.46969e-82
-3.91277e-84
-9.70572e-86
-2.241e-87
-4.80563e-89
-9.54887e-91
-1.75069e-92
-2.94671e-94
-4.53256e-96
-6.35038e-98
-1.20014e-99
-1.67894e-99
-6.89944e-99
-2.78616e-98
-1.09662e-97
-4.18985e-97
-1.54751e-96
-5.49647e-96
-1.86918e-95
-6.04449e-95
-1.84625e-94
-5.28536e-94
-1.40424e-93
-3.42681e-93
-7.58049e-93
-1.49965e-92
-2.60253e-92
-3.88095e-92
-4.84796e-92
1
1
1
1
1
1
1
1
1
1
1
1
1
1
1
1
1
1
1
1
1
1
1
1
1
1
1
1
1
1
1
1
1
1
1
1
1
1
1
1
1
1
1
1
1
1
1
1
1
1
1
1
1
1
1
1
1
1
1
1
1
1
1
1
1
1
1
1
1
1
1
1
1
1
1
1
1
1
1
1
1
1
1
1
1
1
1
1
1
1
1
1
1
1
1
1
1
1
1
1
1
1
1
1
1
1
1
1
1
1
1
1
1
1
1
1
1
1
1
1
1
1
1
1
1
1
1
1
1
1
1
1
1
1
1
1
1
1
1
1
1
1
1
1
1
1
1
1
1
1
1
1
1
1
1
1
1
1
1
1
1
1
1
1
1
1
1
1
1
1
1
1
1
1
1
1
1
1
1
1
1
1
1
1
1
1
1
1
1
1
1
1
1
1
1
1
1
1
1
1
1
1
1
1
1
1
1
1
1
1
1
1
1
1
1
1
1
1
1
1
1
1
1
1
1
1
1
1
1
1
1
1
1
1
1
1
1
1
1
1
1
1
1
1
1
1
1
1
1
1
1
1
1
0.998749
0.986605
0.955362
0.901033
0.816619
0.694623
0.48487
-3.50232e-34
0.152627
0.145903
0.133829
0.119637
0.103519
0.0856687
0.0663504
0.04606
0.0256152
0.00527182
0
-2.77763e-22
-2.98799e-22
-2.11788e-22
-2.22508e-22
-3.12867e-22
-4.83342e-22
-6.56439e-22
-6.90635e-22
-4.01446e-34
-1.68558e-35
-5.60708e-36
-7.76442e-36
-1.02941e-35
-1.22703e-35
-1.51156e-35
-2.159e-33
-1.9002e-30
-1.06103e-27
-1.85594e-25
-1.49185e-23
-1.34743e-23
-1.83991e-23
-1.61594e-23
-8.60132e-24
-3.17075e-24
-5.07273e-25
-2.37951e-26
-5.62801e-27
-2.64987e-34
-2.92671e-35
-1.82515e-37
-4.89431e-38
-1.05306e-37
-1.78069e-37
-2.4301e-37
-2.75477e-37
-2.70709e-37
-2.39379e-37
-2.14726e-37
-2.56188e-37
-3.58762e-37
-5.32611e-37
-6.25505e-37
-5.71417e-37
-3.71421e-37
-1.56324e-37
-5.12254e-38
-2.30611e-38
-4.6132e-34
-4.99569e-35
-3.14791e-37
-3.7103e-40
-1.02404e-39
-2.28579e-39
-3.83542e-39
-5.15339e-39
-5.83638e-39
-5.83877e-39
-5.61199e-39
-5.84929e-39
-5.67315e-39
-5.69047e-39
-5.25995e-39
-3.99172e-39
-2.32721e-39
-1.01251e-39
-3.59138e-40
-1.34646e-40
-2.23466e-34
-3.92005e-36
-2.75231e-38
-6.11489e-41
-1.65986e-41
-4.01654e-41
-7.42035e-41
-1.07319e-40
-1.27432e-40
-1.30584e-40
-1.21997e-40
-1.08567e-40
-9.02646e-41
-7.08679e-41
-5.01127e-41
-3.04054e-41
-1.54155e-41
-6.50712e-42
-2.35375e-42
-7.80416e-43
-7.03163e-35
-2.68171e-37
-2.42647e-39
-2.07914e-41
-4.67847e-43
-7.60977e-43
-1.43891e-42
-2.08506e-42
-2.42863e-42
-2.39475e-42
-2.08393e-42
-1.6437e-42
-1.18049e-42
-7.70098e-43
-4.48062e-43
-2.28241e-43
-1.00641e-43
-3.83682e-44
-1.27865e-44
-3.80155e-45
-1.51208e-35
-7.19035e-38
-8.21165e-40
-7.93319e-42
-6.54544e-44
-1.34109e-44
-2.4168e-44
-3.35248e-44
-3.68219e-44
-3.38825e-44
-2.71148e-44
-1.92167e-44
-1.2124e-44
-6.79812e-45
-3.36606e-45
-1.4618e-45
-5.54293e-46
-1.83508e-46
-5.33311e-47
-1.37311e-47
-8.03852e-37
-1.12809e-38
-1.19022e-40
-1.02915e-42
-6.52889e-45
-2.10981e-46
-3.08978e-46
-3.97575e-46
-4.02853e-46
-3.42146e-46
-2.5135e-46
-1.60972e-46
-8.97858e-47
-4.35455e-47
-1.83497e-47
-6.71818e-48
-2.13878e-48
-5.93539e-49
-1.44274e-49
-3.09231e-50
-9.29226e-40
-2.40273e-40
-2.55533e-42
-1.94103e-44
-9.9266e-47
-2.00173e-48
-2.57282e-48
-3.00526e-48
-2.78429e-48
-2.18303e-48
-1.47426e-48
-8.50332e-49
-4.15113e-49
-1.7133e-49
-6.0074e-50
-1.80188e-50
-4.65553e-51
-1.0431e-51
-2.04075e-52
-3.51173e-53
-5.9022e-45
-5.79781e-44
-7.83302e-46
-5.54086e-48
-2.595e-50
-7.76943e-51
-1.09705e-50
-1.15277e-50
-9.8018e-51
-7.15007e-51
-4.43306e-51
-2.26714e-51
-9.42209e-52
-3.19422e-52
-8.96088e-53
-2.1156e-53
-4.26671e-54
-7.43672e-55
-1.13028e-55
-1.50926e-56
-9.92169e-51
-1.32646e-49
-1.46351e-51
-8.77359e-54
-6.92809e-54
-1.1515e-53
-1.4578e-53
-1.38923e-53
-1.10296e-53
-7.5692e-54
-4.26444e-54
-1.87243e-54
-6.31534e-55
-1.66527e-55
-3.54901e-56
-6.31176e-57
-9.55699e-58
-1.24291e-58
-1.39571e-59
-1.36432e-60
1
1
1
1
1
1
1
1
1
1
1
1
1
1
1
1
1
1
1
1
1
1
1
1
1
1
1
1
1
1
1
1
1
1
1
1
1
1
1
1
1
1
1
1
1
1
1
1
1
1
1
1
1
1
1
1
1
1
1
1
1
1
1
1
1
1
1
1
1
1
1
1
1
1
1
1
1
1
1
1
1
1
1
1
1
1
1
1
1
1
1
1
1
1
1
1
1
1
1
1
1
1
1
1
1
1
1
1
1
1
1
1
1
1
1
1
1
1
0.828885