/*--------------------------------*- C++ -*----------------------------------*\
| =========                 |                                                 |
| \\      /  F ield         | OpenFOAM: The Open Source CFD Toolbox           |
|  \\    /   O peration     | Version:  v1912                                 |
|   \\  /    A nd           | Website:  www.openfoam.com                      |
|    \\/     M anipulation  |                                                 |
\*---------------------------------------------------------------------------*/
FoamFile
{
    version     2.0;
    format      ascii;
    class       volScalarField;
    location    "52";
    object      epsilon;
}
// * * * * * * * * * * * * * * * * * * * * * * * * * * * * * * * * * * * * * //

dimensions      [0 2 -3 0 0 0 0];


internalField   nonuniform List<scalar> 
20320
(
4.44142e-05
0.000214366
0.000220217
0.000226006
0.000231683
0.000237206
0.000242516
0.000247538
0.000252186
0.000256369
0.000259983
0.000262904
0.000265001
0.00026612
0.000266078
0.000264613
0.000261234
0.000254781
0.00024165
0.000207746
4.4014e-05
4.39273e-05
4.46717e-05
4.64498e-05
4.97867e-05
5.5325e-05
6.3895e-05
7.66011e-05
9.48116e-05
0.000120222
0.00015497
0.000201695
0.000263611
0.000344336
0.000447812
0.000576901
0.000730251
0.000894737
0.00102588
0.00117459
4.44253e-05
4.49298e-05
4.61451e-05
4.81912e-05
5.1516e-05
5.67424e-05
6.47625e-05
7.6896e-05
9.51413e-05
0.000122436
0.000162901
0.000222075
0.000307051
0.000426413
0.000589595
0.000804645
0.00107171
0.00136681
0.00160797
0.00188725
4.50137e-05
4.65178e-05
4.8815e-05
5.19624e-05
5.64251e-05
6.28411e-05
7.2151e-05
8.57858e-05
0.000105952
0.000136069
0.000181345
0.00024935
0.000350389
0.000497385
0.00070499
0.00098691
0.0013477
0.00175987
0.00211792
0.00258539
4.57413e-05
4.85841e-05
5.23329e-05
5.69778e-05
6.30048e-05
7.10874e-05
8.22238e-05
9.79188e-05
0.000120501
0.000153659
0.000203246
0.000278304
0.000392009
0.000561743
0.000807436
0.0011474
0.00158872
0.00210124
0.0025665
0.00328434
4.65867e-05
5.11106e-05
5.67225e-05
6.33459e-05
7.1472e-05
8.17988e-05
9.53798e-05
0.000113794
0.000139459
0.000176206
0.000230224
0.000311446
0.000435263
0.000623464
0.000902323
0.00129589
0.00181264
0.00241674
0.00298038
0.00398532
4.75212e-05
5.40377e-05
6.19165e-05
7.10206e-05
8.18329e-05
9.50583e-05
0.000111793
0.000133679
0.00016321
0.000204332
0.000263437
0.000350982
0.000483865
0.000687603
0.000995228
0.00143841
0.00202799
0.00271957
0.00337473
0.00469419
4.85099e-05
5.7283e-05
6.78091e-05
7.99066e-05
9.40378e-05
0.000110896
0.000131606
0.000157855
0.000192196
0.000238675
0.000303849
0.000398533
0.00054066
0.000758686
0.00109208
0.00158151
0.00224237
0.00302095
0.00376586
0.0054247
4.95101e-05
6.07305e-05
7.42229e-05
8.97952e-05
0.000107889
0.000129179
0.000154803
0.000186482
0.000226806
0.0002799
0.000352478
0.000455654
0.000608156
0.000840793
0.00119887
0.00173278
0.00246488
0.00333296
0.00417005
0.006191
5.04725e-05
6.42267e-05
8.08955e-05
0.000100337
0.000122997
0.000149541
0.000181134
0.00021952
0.000267304
0.000328673
0.00041049
0.000524163
0.000689123
0.000938187
0.00132195
0.00190077
0.0027059
0.00366791
0.00460162
0.0070194
5.13425e-05
6.75822e-05
8.74772e-05
0.000111027
0.000138745
0.000171336
0.000210036
0.000256639
0.000313755
0.000385618
0.000479239
0.000606339
0.000787064
0.00105614
0.00146918
0.00209669
0.00298067
0.00404547
0.00508353
0.00793549
5.20656e-05
7.05828e-05
9.35468e-05
0.00012122
0.000154287
0.000193601
0.000240574
0.000297128
0.000365917
0.000451231
0.000560251
0.00070506
0.000906625
0.00120169
0.00165097
0.00233566
0.00331044
0.00449466
0.00565177
0.00896226
5.25927e-05
7.3012e-05
9.86533e-05
0.00013018
0.000168599
0.000215086
0.000271414
0.000339814
0.000423117
0.00052576
0.000655176
0.000823942
0.00105407
0.00138471
0.00188226
0.00263965
0.00372642
0.00505713
0.00635475
0.010149
5.28872e-05
7.46795e-05
0.000102374
0.000137168
0.000180571
0.000234314
0.00030083
0.000382977
0.000484062
0.000608933
0.000765534
0.000967251
0.00123763
0.00161912
0.00218522
0.00304304
0.0042805
0.00580672
0.00728251
0.0115943
5.2931e-05
7.54518e-05
0.000104381
0.000141551
0.000189145
0.000249729
0.000326784
0.000424301
0.000546621
0.000699578
0.00089224
0.00113955
0.0014677
0.00192424
0.00259305
0.00360069
0.00506031
0.00687383
0.00859686
0.0134751
5.27276e-05
7.52781e-05
0.000104508
0.000142916
0.000193491
0.000259894
0.000347108
0.000460936
0.000607645
0.000795113
0.00103479
0.00134478
0.00175626
0.00232588
0.00315514
0.00440255
0.00622376
0.0085154
0.0106417
0.0161797
5.23015e-05
7.41996e-05
0.000102778
0.000141155
0.000193159
0.000263728
0.000359766
0.000489677
0.000662877
0.00089097
0.00119001
0.00158433
0.00211479
0.00285546
0.00394158
0.00559477
0.00806378
0.0112738
0.0142206
0.0206479
5.16945e-05
7.23426e-05
9.94077e-05
0.000136493
0.000188185
0.000260724
0.000363195
0.000507332
0.000707111
0.000980125
0.00135043
0.00185374
0.00254903
0.00354366
0.00504049
0.00739987
0.0111184
0.0163613
0.0215018
0.0297068
5.0958e-05
6.98942e-05
9.47608e-05
0.000129452
0.000179106
0.000251097
0.000356669
0.000511306
0.000734807
0.00105327
0.00150309
0.00213869
0.00305019
0.00440455
0.00653478
0.0101053
0.0162991
0.0265262
0.0393276
0.055204
5.01462e-05
6.70693e-05
8.92808e-05
0.000120747
0.000166873
0.000235799
0.000340556
0.000500257
0.000741158
0.0010999
0.00162959
0.00241166
0.00358348
0.00540655
0.00843586
0.013928
0.0247465
0.0470171
0.0895099
0.175195
1.6624
4.16873
5.37913
6.76345
10.3062
17.443
31.0068
52.6816
96.4743
255.756
626.196
1026.58
1520.82
2095.6
2336.62
4097.8
3856.13
2764.82
1505.85
881.718
538.565
337.124
233.455
178.891
144.182
119.725
101.787
88.2069
77.5834
69.0123
61.916
55.896
50.6912
46.1396
42.1352
38.5977
35.4683
32.7031
30.2704
28.12
26.1884
24.4435
22.8782
21.4782
20.2488
19.1701
18.1731
17.2146
16.3455
15.6533
15.1127
14.7103
14.6136
14.8013
15.0537
15.2749
15.4455
15.7347
16.3145
17.3636
2.81514
1.89482
2.56132
3.61542
5.68823
9.93363
17.8999
32.3258
63.9618
159.659
447.954
738.15
1222.83
1988.83
2831.65
4092.05
2345.11
1369.08
754.473
452.75
297.977
209.156
150.495
111.86
86.1569
68.4963
55.9438
46.7306
39.7597
34.3339
30.0012
26.4654
23.5269
21.047
18.9274
17.0992
15.5117
14.1248
12.9048
11.8259
10.8716
10.0249
9.26553
8.58624
7.97568
7.42227
6.93233
6.51895
6.17415
5.87358
5.63796
5.4848
5.32947
5.19738
5.12281
5.09728
5.13511
5.25116
5.46752
5.81965
3.72629
2.26617
2.91273
4.13689
6.55591
11.5276
21.1313
39.2263
77.908
185.365
471.592
893.464
1709.89
2995.47
2252.72
1471.67
924.825
601.01
404.823
284.879
210.709
161.828
125.752
98.6935
78.8355
64.2164
53.2958
44.9827
38.5264
33.4102
29.2779
25.881
23.044
20.6416
18.5835
16.8031
15.2513
13.8905
12.6911
11.6289
10.6832
9.83719
9.08024
8.40182
7.79294
7.24892
6.76486
6.3332
5.95347
5.6382
5.38199
5.16939
5.00501
4.89675
4.82997
4.80932
4.8381
4.92596
5.09309
5.3523
4.51462
2.80798
3.59604
5.11327
8.10408
14.416
27.4414
53.708
108.761
256.59
567.216
1229.27
1768.19
1309.46
888.656
609.473
420.812
298.812
220.841
170.379
136.949
113.089
94.0543
78.4803
65.9277
55.9045
47.9005
41.4667
36.2435
31.9537
28.3888
25.3908
22.8403
20.6468
18.7414
17.0722
15.5996
14.2933
13.129
12.087
11.1495
10.3029
9.53891
8.8501
8.23106
7.67804
7.18092
6.7332
6.3489
6.0308
5.75892
5.52988
5.37707
5.28953
5.24586
5.24794
5.29412
5.39726
5.59212
5.87595
5.26028
3.41008
4.4694
6.44243
10.2851
18.6558
37.2977
79.0865
170.717
386.97
932.556
1780.42
1083.49
668.397
437.401
299.666
214.388
160.282
125.376
102.448
86.9517
75.6613
66.4774
58.5749
51.7221
45.8071
40.7368
36.4051
32.7002
29.5168
26.7645
24.368
22.2656
20.4079
18.7551
17.2743
15.9396
14.7319
13.6355
12.6373
11.7263
10.8939
10.1345
9.44526
8.82514
8.27091
7.77395
7.33438
6.96279
6.65227
6.38701
6.18593
6.06567
6.01113
6.00723
6.04447
6.1187
6.2489
6.45156
6.71437
6.12593
4.08405
5.53436
8.18892
13.2664
24.5708
51.4198
118.45
287.954
683.028
1914.47
1586.86
772.376
426.649
261.45
174.258
124.76
95.1619
76.8177
65.1113
57.3569
51.8615
47.5301
43.7825
40.3866
37.2868
34.4591
31.8915
29.5619
27.4407
25.4986
23.709
22.056
20.5334
19.1304
17.8301
16.6174
15.4872
14.4363
13.4597
12.5548
11.7203
10.9545
10.2585
9.63522
9.08307
8.59601
8.17554
7.82571
7.53821
7.30884
7.15474
7.08234
7.07938
7.12888
7.21455
7.33012
7.49333
7.72224
8.01244
7.3694
4.88608
6.85572
10.4927
17.3064
32.4717
69.8783
170.5
472.1
1418.26
3171.07
1206.16
543.951
285.231
169.44
111.603
80.4234
62.7868
52.4734
46.2475
42.2526
39.5504
37.5669
35.9602
34.511
33.121
31.7498
30.3798
29.0057
27.6247
26.2319
24.8109
23.39
22.0364
20.7529
19.5114
18.2919
17.1174
16.0081
14.9609
13.9824
13.0811
12.2592
11.5202
10.8692
10.3046
9.82009
9.41519
9.08881
8.83422
8.65245
8.55523
8.54303
8.60214
8.7142
8.86158
9.03934
9.26228
9.54825
9.89381
9.08294
5.91762
8.58548
13.6092
22.8462
42.8542
92.5596
229.313
693.836
2391.95
2045.6
760.712
344.618
182.787
110.225
74.4761
56.0869
46.5338
41.4959
38.8382
37.0942
36.1156
35.5586
35.3689
35.2026
34.8537
34.282
33.4871
32.5045
31.3848
30.1597
28.8321
27.4293
26.049
24.6867
23.2873
21.7809
20.3242
18.9802
17.6765
16.4688
15.3756
14.4019
13.5495
12.8183
12.2026
11.6916
11.2813
10.9668
10.7407
10.6043
10.5649
10.6168
10.7413
10.92
11.1368
11.3884
11.6864
12.0448
12.4561
11.0842
7.30015
11.0323
18.0286
30.7447
56.9917
121.014
295.949
903.066
2631.15
990.728
421.66
206.606
115.452
73.0836
52.9718
43.886
40.3463
38.8764
37.4929
36.4381
35.541
35.1337
34.9573
34.9205
34.8857
34.727
34.3626
33.7969
33.0932
32.3521
31.6412
30.8875
30.0185
28.9765
27.8028
26.5962
25.2587
23.7639
22.1516
20.6074
19.1201
17.8393
16.749
15.851
15.1132
14.5238
14.0652
13.733
13.5167
13.4099
13.4161
13.5244
13.7084
13.948
14.2301
14.5565
14.9361
15.3725
15.8487
13.142
9.10107
14.6966
24.7434
42.7842
78.1587
161.308
383.659
1126.57
1177.28
511.876
244.548
129.083
76.1253
52.1455
42.6967
40.3504
39.571
38.4076
36.9006
35.5114
34.208
33.5411
33.2461
33.0847
32.9877
32.8964
32.7445
32.513
32.2298
31.9408
31.59
31.0819
30.5844
30.1085
29.5604
28.8133
27.9287
27.1044
26.1562
25.0988
24.0197
22.8456
21.6018
20.4665
19.4624
18.7213
18.1328
17.7316
17.4956
17.3904
17.4096
17.5484
17.7732
18.0541
18.3738
18.7585
19.2219
19.7348
20.2608
15.1769
11.3071
20.1344
35.8254
62.8805
114.12
228.261
528.702
1425.55
663.788
316.587
158.946
86.2908
53.9782
42.0724
40.404
40.8179
39.8662
38.047
35.6343
33.4077
31.5729
30.4
29.809
29.5193
29.4021
29.4008
29.4648
29.5613
29.6765
29.7884
29.7909
29.6149
29.4671
29.4245
29.3444
29.0081
28.5554
28.2454
27.8123
27.3923
26.9981
26.6211
26.1984
25.6804
25.1543
24.5254
23.877
23.4121
23.1213
22.984
22.9444
23.0584
23.2888
23.5891
23.8637
24.2543
24.8125
25.4003
25.9167
17.1583
13.8676
27.8548
55.0357
100.462
184.269
356.709
802.625
1002.53
467.23
221.152
109.265
60.222
42.2053
39.3962
41.9502
41.9647
39.4726
36.1678
32.7061
29.6912
27.3511
25.7636
24.8854
24.5138
24.4906
24.7101
25.0896
25.5658
26.0857
26.5848
26.9612
27.1826
27.4107
27.7211
27.9827
28.0249
27.9726
28.0135
27.9988
28.0453
28.1272
28.2359
28.3097
28.4205
28.4358
28.5442
28.6035
28.6741
28.7455
29.0067
29.5542
29.8457
29.9203
29.8395
29.9903
30.2025
30.3878
30.5429
30.58
19.2035
16.6922
38.3932
88.822
179.059
340.804
634.609
1417.69
806.183
351.468
156.603
74.754
44.1525
37.6765
41.8969
43.9355
41.4585
37.1628
32.4783
28.1568
24.5963
21.923
20.1311
19.1631
18.8621
19.0517
19.5768
20.3138
21.1683
22.0618
22.9158
23.6519
24.2593
24.8372
25.4394
25.9751
26.3386
26.6187
26.9317
27.2311
27.5855
27.9692
28.3535
28.733
29.1587
29.5301
30.0088
30.3478
30.7227
31.2336
31.7936
32.1749
32.4016
32.5487
32.6265
32.4926
32.4074
32.3786
32.1999
31.973
21.5301
19.4863
52.0539
148.29
356.247
723.345
1302.67
1607.83
637.475
252.738
105.052
50.6153
35.8525
38.7945
45.5424
43.8823
38.6844
32.8327
27.3064
22.5496
18.7775
16.0535
14.3439
13.548
13.4843
13.9495
14.7664
15.7982
16.9417
18.1132
19.2395
20.2634
21.1784
22.0349
22.8573
23.5993
24.2149
24.75
25.2739
25.7895
26.3348
26.8924
27.437
27.9853
28.5611
29.1246
29.7374
30.2257
30.7327
31.3526
31.8538
32.0255
32.1593
32.4001
32.4958
32.263
32.0385
31.8615
31.5513
31.2561
24.0426
21.7126
66.1761
242.981
748.882
1650.26
2513.05
1392.99
453.198
164.132
66.2698
35.9971
33.7752
43.741
46.7086
41.3597
34.1362
27.2952
21.4203
16.6399
13.0159
10.5767
9.241
8.8126
9.05231
9.75198
10.7546
11.9446
13.2336
14.5486
15.8281
17.0284
18.1383
19.1752
20.1456
21.0268
21.805
22.5139
23.1887
23.8411
24.4951
25.143
25.7713
26.3954
27.027
27.653
28.278
28.8119
29.3406
29.8916
30.2577
30.3569
30.4662
30.6565
30.6616
30.3964
30.1015
29.8105
29.4474
29.1259
26.1995
22.8286
73.6155
337.439
1527.17
2457.79
2901.74
833.972
268.912
97.5405
41.6886
29.3192
36.5666
47.973
45.1461
36.9758
28.5229
21.3301
15.5644
11.1258
7.99617
6.14484
5.35821
5.32541
5.79434
6.60289
7.64589
8.84586
10.138
11.465
12.7772
14.0374
15.228
16.3467
17.3899
18.3463
19.2141
20.0133
20.7679
21.4937
22.2009
22.8855
23.5433
24.1836
24.8123
25.4233
26.0046
26.5182
27.0041
27.4455
27.7105
27.7942
27.869
27.9393
27.8347
27.5402
27.1975
26.8392
26.4579
26.1236
27.2863
22.81
67.0347
314.486
1068.75
1498.87
981.43
401.562
150.506
58.1136
28.6806
28.2798
42.6862
48.8221
41.6296
31.5825
22.6172
15.5855
10.3019
6.52603
4.17774
3.06735
2.79475
3.01936
3.56279
4.33983
5.29856
6.39456
7.5842
8.8236
10.0718
11.2955
12.4721
13.589
14.637
15.6081
16.5025
17.3312
18.1086
18.847
19.5563
20.2374
20.888
21.5082
22.1004
22.6604
23.1775
23.6382
24.0547
24.3965
24.5923
24.6565
24.672
24.6232
24.4305
24.1102
23.7436
23.3644
22.9905
22.664
26.9423
22.4161
54.3173
187.229
572.588
678.991
544.22
233.091
92.9777
37.0243
22.9413
31.0692
48.5551
46.9862
36.7237
25.8067
16.9668
10.5006
6.00107
3.14796
1.72543
1.27129
1.30045
1.58793
2.06518
2.71041
3.50687
4.43151
5.45504
6.54328
7.66201
8.78045
9.87418
10.9256
11.9222
12.856
13.7251
14.5346
15.2921
16.0062
16.6836
17.3261
17.933
18.5049
19.0415
19.5395
19.9897
20.3869
20.729
20.9883
21.1275
21.1568
21.1098
20.9767
20.7343
20.4086
20.0501
19.6904
19.3501
19.0582
25.9993
22.2517
48.1158
121.493
325.96
533.913
418.041
165.388
62.5877
25.3115
21.4355
36.7012
50.6257
43.4232
31.1505
20.1336
11.9124
6.33039
2.8536
1.07964
0.495061
0.415431
0.514793
0.730127
1.06391
1.52763
2.12353
2.84225
3.66547
4.56554
5.51402
6.48237
7.44651
8.38703
9.28973
10.1452
10.949
11.7017
12.4068
13.0688
13.6916
14.2767
14.8235
15.3316
15.8001
16.2265
16.6072
16.9388
17.2128
17.4051
17.4956
17.4887
17.3986
17.2266
16.977
16.6761
16.3591
16.0515
15.7709
15.5394
25.6422
22.2578
47.1287
110.169
278.851
711.485
324.571
120.938
42.7119
18.7094
22.6152
44.1294
50.0937
38.6255
25.4422
14.917
7.66308
3.19861
0.91351
0.185478
0.0847098
0.0981836
0.154159
0.261324
0.439992
0.712421
1.09405
1.58946
2.19296
2.88127
3.6338
4.42286
5.2266
6.02498
6.803
7.54993
8.2592
8.92826
9.55708
10.1471
10.6999
11.2156
11.6939
12.1339
12.5344
12.8933
13.2083
13.4749
13.6845
13.8218
13.8754
13.8464
13.744
13.5767
13.3585
13.1126
12.8643
12.6337
12.4341
12.2809
25.7278
22.221
47.5707
112.923
295.131
723.138
255.454
87.7452
28.9849
15.4049
25.6865
49.6066
47.6133
33.3126
19.9855
10.3661
4.3213
1.17152
0.120895
0.0109136
0.00898996
0.0139803
0.0275064
0.0587536
0.122511
0.238163
0.426418
0.703429
1.07531
1.53558
2.07034
2.65866
3.28107
3.91542
4.54728
5.16456
5.75904
6.32576
6.86217
7.36719
7.84031
8.28083
8.6878
9.0601
9.39625
9.69446
9.95206
10.1648
10.3256
10.4256
10.4597
10.4302
10.3452
10.2157
10.0566
9.88606
9.72241
9.58065
9.4712
9.4015
26.0417
22.1571
47.8823
116.594
305.253
608.754
196.937
63.2905
19.849
14.2934
30.1752
53.2707
43.4791
27.7677
14.9909
6.58589
1.9901
0.235114
0.00254146
0.000692066
0.000736768
0.00110175
0.00222104
0.00560949
0.0155483
0.0412795
0.097145
0.200486
0.367284
0.606425
0.91701
1.28945
1.70938
2.16101
2.62905
3.10185
3.56741
4.01943
4.45285
4.86488
5.25332
5.61637
5.95244
6.25995
6.53727
6.78229
6.99259
7.16463
7.29397
7.37666
7.41171
7.40259
7.35682
7.28459
7.19818
7.11121
7.03676
6.98539
6.96355
6.96902
26.2779
22.1052
48.3125
122.447
336.416
509.963
151.724
45.1109
14.0996
14.5994
35.9063
53.0969
38.9647
22.4719
10.6392
3.72723
0.692745
0.0123054
0.000251613
0.00020644
0.000199511
0.000201078
0.000223232
0.000313243
0.000652943
0.00197892
0.00683449
0.0217022
0.05767
0.127869
0.243717
0.410948
0.62799
0.887316
1.17843
1.49056
1.81346
2.13944
2.46125
2.77492
3.07548
3.36001
3.62647
3.8723
4.09583
4.29484
4.46727
4.61082
4.72357
4.80454
4.85489
4.87834
4.88108
4.87107
4.85746
4.8497
4.85652
4.88447
4.93548
4.99886
25.4757
21.7228
48.2543
125.75
367.714
382.978
114.862
32.2359
10.7733
15.8137
42.7011
50.7103
33.5298
17.4621
7.03301
1.86968
0.143876
0.000417295
0.000142966
0.000135121
0.000131729
0.000131222
0.00013208
0.000131844
0.000131356
0.000139825
0.000181769
0.000382796
0.00136269
0.00535512
0.0177101
0.0467175
0.101071
0.186794
0.305313
0.453707
0.626191
0.816079
1.01689
1.22307
1.42939
1.6319
1.82724
2.01211
2.18472
2.3418
2.48239
2.60489
2.70889
2.79476
2.86416
2.92024
2.96741
3.01121
3.05782
3.11329
3.18258
3.26841
3.36854
3.46676
22.9105
20.3466
46.1688
121.514
343.544
273.093
86.7548
23.6189
9.00705
17.6042
48.4265
48.0458
28.4921
13.0852
4.42492
0.778796
0.0131167
0.000134736
0.000108826
0.000105223
0.000103418
0.000102516
0.000101971
0.000101071
0.000100036
9.91839e-05
9.77443e-05
9.62972e-05
9.6249e-05
0.000101683
0.000137271
0.000323629
0.00124895
0.00485188
0.0151556
0.0375072
0.0764905
0.134392
0.210782
0.303129
0.407748
0.520741
0.638341
0.757138
0.874381
0.987502
1.09498
1.19538
1.28876
1.37495
1.45551
1.53232
1.60827
1.68672
1.77136
1.86549
1.97118
2.08792
2.21013
2.31944
18.5324
17.7276
40.1972
108.634
349.357
210.294
67.8553
17.8505
8.15294
19.7637
51.7165
45.1089
24.1256
9.69401
2.63455
0.248777
0.000749943
9.63315e-05
8.89004e-05
8.55672e-05
8.39519e-05
8.33519e-05
8.31514e-05
8.28663e-05
8.24042e-05
8.19817e-05
8.12863e-05
8.03308e-05
7.86801e-05
7.62454e-05
7.36862e-05
7.14332e-05
6.9763e-05
6.95538e-05
7.62231e-05
0.000112758
0.000276206
0.000981557
0.00343557
0.00994645
0.0235262
0.0467639
0.0807773
0.125002
0.177805
0.237153
0.301234
0.368559
0.43828
0.510006
0.584183
0.661463
0.743502
0.831456
0.92743
1.03257
1.14705
1.26804
1.38773
1.48816
13.8296
15.02
33.6901
86.8844
257.929
184.444
56.5718
13.9366
7.8363
22.1754
55.4407
40.201
19.3668
6.98224
1.45201
0.0558862
0.000152078
8.03725e-05
7.63468e-05
7.34994e-05
7.17795e-05
7.11739e-05
7.09956e-05
7.06728e-05
7.03493e-05
7.02498e-05
6.9996e-05
6.94722e-05
6.83473e-05
6.67729e-05
6.5165e-05
6.3473e-05
6.17054e-05
5.99815e-05
5.82745e-05
5.65863e-05
5.51183e-05
5.40578e-05
5.36655e-05
5.50733e-05
6.31963e-05
9.68558e-05
0.000232189
0.000772988
0.0026142
0.00762393
0.0185565
0.0379616
0.0668549
0.104965
0.151879
0.207389
0.271636
0.344911
0.427683
0.519735
0.620052
0.724043
0.822875
0.899388
13.5363
13.73
31.7069
84.177
264.36
164.535
48.2345
11.1007
7.85035
24.7414
57.3213
34.0829
14.7174
4.70636
0.705901
0.00845984
8.82165e-05
7.16196e-05
6.78116e-05
6.54136e-05
6.37578e-05
6.30246e-05
6.26709e-05
6.22644e-05
6.19912e-05
6.19437e-05
6.18251e-05
6.15681e-05
6.0849e-05
5.97965e-05
5.87309e-05
5.75429e-05
5.62588e-05
5.50295e-05
5.37847e-05
5.24487e-05
5.11885e-05
5.01402e-05
4.92412e-05
4.84267e-05
4.76948e-05
4.70878e-05
4.66674e-05
4.64943e-05
4.69324e-05
4.96967e-05
6.42253e-05
0.000154498
0.000777921
0.00402658
0.014357
0.0354133
0.0680972
0.112144
0.166953
0.231414
0.303227
0.377278
0.44362
0.482428
15.6951
14.7474
34.3808
99.7656
315.572
152.313
40.9283
8.95953
8.09454
27.3722
55.0458
28.9182
11.1123
2.94023
0.283676
0.00102083
7.36627e-05
6.61125e-05
6.23771e-05
5.98324e-05
5.82356e-05
5.74243e-05
5.69253e-05
5.64338e-05
5.61329e-05
5.60253e-05
5.59339e-05
5.57837e-05
5.52585e-05
5.45169e-05
5.38036e-05
5.29606e-05
5.20144e-05
5.1116e-05
5.01909e-05
4.91499e-05
4.81376e-05
4.72819e-05
4.6515e-05
4.5787e-05
4.51228e-05
4.45593e-05
4.41104e-05
4.37561e-05
4.35274e-05
4.35011e-05
4.37699e-05
4.47874e-05
4.88543e-05
7.11661e-05
0.000251783
0.00170566
0.00829075
0.0241185
0.0501192
0.0851042
0.12621
0.167859
0.199446
0.199695
20.1402
18.1517
40.6008
122.115
359.623
140.011
33.5362
7.29348
8.52473
30.0983
50.127
25.7328
8.65912
1.72593
0.0876377
0.000201276
6.76895e-05
6.22599e-05
5.87267e-05
5.60346e-05
5.43702e-05
5.34712e-05
5.28544e-05
5.23024e-05
5.19661e-05
5.17965e-05
5.16906e-05
5.15621e-05
5.11318e-05
5.05706e-05
5.00547e-05
4.94183e-05
4.86958e-05
4.80277e-05
4.73365e-05
4.65206e-05
4.57008e-05
4.50001e-05
4.43548e-05
4.37244e-05
4.31375e-05
4.26214e-05
4.21902e-05
4.18393e-05
4.15856e-05
4.1462e-05
4.15103e-05
4.1852e-05
4.26853e-05
4.46097e-05
5.076e-05
8.21468e-05
0.000320723
0.00198067
0.00818286
0.0207078
0.0378512
0.054914
0.063583
0.0509053
32.775
26.5186
54.8961
153.071
404.26
123.991
25.9106
6.03969
9.13206
33.0037
45.9878
22.3559
6.75773
0.956162
0.0194518
9.79992e-05
6.41521e-05
5.91231e-05
5.58693e-05
5.32975e-05
5.16072e-05
5.06198e-05
4.99131e-05
4.93204e-05
4.89387e-05
4.87144e-05
4.85864e-05
4.84433e-05
4.80756e-05
4.76473e-05
4.72518e-05
4.67441e-05
4.61742e-05
4.56555e-05
4.51178e-05
4.4462e-05
4.37831e-05
4.31972e-05
4.2652e-05
4.21069e-05
4.15889e-05
4.11227e-05
4.07233e-05
4.03906e-05
4.01305e-05
3.99661e-05
3.99429e-05
4.01286e-05
4.06046e-05
4.15496e-05
4.33007e-05
4.67407e-05
5.59244e-05
9.48163e-05
0.000324359
0.00144748
0.00433681
0.00785454
0.00857412
0.00400828
56.1396
46.0106
91.177
231.594
432.224
105.462
18.767
5.19453
9.92842
36.4817
41.5036
17.9626
4.91279
0.479973
0.00315668
7.18489e-05
6.09307e-05
5.66897e-05
5.36647e-05
5.12571e-05
4.95972e-05
4.85415e-05
4.77724e-05
4.71542e-05
4.67258e-05
4.64456e-05
4.62763e-05
4.60966e-05
4.57749e-05
4.54453e-05
4.51305e-05
4.4719e-05
4.42631e-05
4.3845e-05
4.34096e-05
4.28726e-05
4.23e-05
4.1795e-05
4.13228e-05
4.08474e-05
4.0389e-05
3.99675e-05
3.96007e-05
3.92904e-05
3.90357e-05
3.88588e-05
3.87984e-05
3.88907e-05
3.91997e-05
3.98436e-05
4.0966e-05
4.28125e-05
4.57902e-05
5.06912e-05
5.97064e-05
7.89785e-05
0.000120957
0.000177533
0.000169844
9.44284e-05
111.332
87.5566
180.963
464.805
425.343
81.5183
12.701
4.73128
10.938
40.3368
35.4312
13.5431
3.21825
0.201689
0.000487442
6.34096e-05
5.78593e-05
5.47031e-05
5.19525e-05
4.96769e-05
4.80541e-05
4.69599e-05
4.61706e-05
4.55517e-05
4.50925e-05
4.47761e-05
4.45662e-05
4.43493e-05
4.40654e-05
4.3795e-05
4.35146e-05
4.31612e-05
4.2782e-05
4.24299e-05
4.20697e-05
4.16283e-05
4.11401e-05
4.06962e-05
4.02839e-05
3.98696e-05
3.94622e-05
3.90803e-05
3.8746e-05
3.84582e-05
3.82148e-05
3.80401e-05
3.7957e-05
3.79889e-05
3.81925e-05
3.86385e-05
3.94212e-05
4.06926e-05
4.2621e-05
4.54711e-05
4.95401e-05
5.49203e-05
6.1237e-05
6.69812e-05
6.88901e-05
6.32715e-05
261.586
192.276
459.027
907.524
326.764
50.3869
7.98463
4.61276
12.2251
42.5578
30.2439
10.2697
1.94019
0.0656811
0.000141564
6.00589e-05
5.54566e-05
5.27934e-05
5.03512e-05
4.82749e-05
4.67264e-05
4.56307e-05
4.48525e-05
4.4258e-05
4.37972e-05
4.34744e-05
4.32454e-05
4.30136e-05
4.27743e-05
4.25561e-05
4.23026e-05
4.19924e-05
4.16663e-05
4.1356e-05
4.1045e-05
4.06708e-05
4.02423e-05
3.98415e-05
3.94767e-05
3.91147e-05
3.87523e-05
3.84075e-05
3.8103e-05
3.78367e-05
3.76086e-05
3.74387e-05
3.73402e-05
3.73349e-05
3.74618e-05
3.77657e-05
3.83207e-05
3.92058e-05
4.05192e-05
4.2406e-05
4.49848e-05
4.83005e-05
5.21457e-05
5.57921e-05
5.77306e-05
5.57051e-05
225.425
260.021
638.046
984.962
164.222
24.0432
5.17694
4.82576
13.9307
41.2986
26.277
7.84125
1.0935
0.0156498
8.01466e-05
5.7062e-05
5.35147e-05
5.12247e-05
4.89741e-05
4.70545e-05
4.55761e-05
4.44821e-05
4.37124e-05
4.31365e-05
4.26821e-05
4.23597e-05
4.21178e-05
4.18863e-05
4.16871e-05
4.15175e-05
4.13123e-05
4.1065e-05
4.08038e-05
4.05421e-05
4.02731e-05
3.99513e-05
3.95741e-05
3.92091e-05
3.88771e-05
3.8553e-05
3.82277e-05
3.79143e-05
3.76334e-05
3.73853e-05
3.71708e-05
3.70048e-05
3.68979e-05
3.68648e-05
3.69315e-05
3.71349e-05
3.75195e-05
3.81319e-05
3.90355e-05
4.02948e-05
4.19727e-05
4.40997e-05
4.65767e-05
4.91047e-05
5.10185e-05
5.10426e-05
147.9
165.792
351.357
240.705
55.1842
10.9607
3.90379
5.3569
16.2587
40.9728
20.4978
5.38179
0.525227
0.00264491
6.35071e-05
5.4517e-05
5.20932e-05
5.01111e-05
4.79578e-05
4.61303e-05
4.4703e-05
4.361e-05
4.28315e-05
4.22499e-05
4.1791e-05
4.14583e-05
4.11967e-05
4.09604e-05
4.07724e-05
4.06134e-05
4.04317e-05
4.02283e-05
4.00211e-05
3.98095e-05
3.95864e-05
3.93233e-05
3.90134e-05
3.87023e-05
3.84119e-05
3.81273e-05
3.78385e-05
3.75551e-05
3.7297e-05
3.70665e-05
3.68633e-05
3.67004e-05
3.65877e-05
3.65323e-05
3.65534e-05
3.66776e-05
3.69338e-05
3.73525e-05
3.79626e-05
3.87966e-05
3.98929e-05
4.12645e-05
4.28845e-05
4.46832e-05
4.65133e-05
4.78187e-05
104.394
137.171
257.761
89.9606
23.0003
6.00857
3.48271
6.23735
19.448
36.9969
15.0022
3.25698
0.189809
0.00040271
5.91331e-05
5.31001e-05
5.09073e-05
4.89775e-05
4.69785e-05
4.53131e-05
4.39876e-05
4.29456e-05
4.21855e-05
4.16089e-05
4.11555e-05
4.08183e-05
4.05466e-05
4.03111e-05
4.01265e-05
3.9963e-05
3.97773e-05
3.95775e-05
3.93814e-05
3.91863e-05
3.89855e-05
3.87625e-05
3.85088e-05
3.82492e-05
3.80017e-05
3.77598e-05
3.75139e-05
3.72683e-05
3.70395e-05
3.68311e-05
3.66427e-05
3.64866e-05
3.63716e-05
3.63e-05
3.62854e-05
3.63487e-05
3.65093e-05
3.67829e-05
3.71841e-05
3.7731e-05
3.84392e-05
3.93126e-05
4.0358e-05
4.16303e-05
4.33129e-05
4.54226e-05
87.6655
160.953
152.233
43.1766
10.9454
3.81661
3.55088
7.57861
23.5124
30.7267
11.2592
1.7831
0.0484915
0.000136101
5.73109e-05
5.20715e-05
4.97939e-05
4.78273e-05
4.59488e-05
4.44228e-05
4.32124e-05
4.22583e-05
4.1549e-05
4.10035e-05
4.05783e-05
4.0256e-05
3.99928e-05
3.97724e-05
3.96028e-05
3.94572e-05
3.92969e-05
3.91232e-05
3.89491e-05
3.87707e-05
3.85839e-05
3.8383e-05
3.8163e-05
3.7934e-05
3.771e-05
3.74917e-05
3.72739e-05
3.70574e-05
3.68526e-05
3.66628e-05
3.64878e-05
3.63384e-05
3.62219e-05
3.61384e-05
3.60972e-05
3.61127e-05
3.61976e-05
3.63617e-05
3.66119e-05
3.69549e-05
3.7396e-05
3.79369e-05
3.85982e-05
3.94905e-05
4.09928e-05
4.35936e-05
179.9
318.779
75.4623
17.7307
5.08787
2.87292
4.06561
9.56122
29.3065
24.3292
7.20866
0.774563
0.00855752
9.32303e-05
5.62831e-05
5.15103e-05
4.90403e-05
4.69963e-05
4.52106e-05
4.37604e-05
4.25971e-05
4.16803e-05
4.09876e-05
4.04531e-05
4.00415e-05
3.97272e-05
3.94716e-05
3.92625e-05
3.90984e-05
3.89618e-05
3.88285e-05
3.86885e-05
3.85449e-05
3.83961e-05
3.82373e-05
3.80665e-05
3.78822e-05
3.76882e-05
3.7492e-05
3.72971e-05
3.71023e-05
3.69093e-05
3.67239e-05
3.65489e-05
3.63853e-05
3.62407e-05
3.61201e-05
3.60247e-05
3.59609e-05
3.59379e-05
3.5964e-05
3.60446e-05
3.61831e-05
3.6382e-05
3.66419e-05
3.69632e-05
3.7366e-05
3.7975e-05
3.92732e-05
4.2141e-05
48.8491
54.3387
14.8124
4.9986
2.65828
2.77872
5.14553
12.5275
29.7931
19.6688
4.3061
0.271139
0.00153321
7.82442e-05
5.55489e-05
5.10382e-05
4.83273e-05
4.62403e-05
4.45429e-05
4.31834e-05
4.20986e-05
4.12442e-05
4.05878e-05
4.00791e-05
3.96874e-05
3.93875e-05
3.91489e-05
3.89563e-05
3.88021e-05
3.86704e-05
3.85453e-05
3.84197e-05
3.82903e-05
3.81554e-05
3.80135e-05
3.78625e-05
3.77018e-05
3.75325e-05
3.73584e-05
3.71824e-05
3.70062e-05
3.68316e-05
3.66617e-05
3.64983e-05
3.63438e-05
3.62026e-05
3.60779e-05
3.59722e-05
3.58895e-05
3.58353e-05
3.58146e-05
3.58306e-05
3.58853e-05
3.59794e-05
3.6112e-05
3.62821e-05
3.65071e-05
3.69038e-05
3.79931e-05
4.09681e-05
4.9309e-05
6.40777e-05
8.34165e-05
0.000111161
0.000152671
0.000216368
0.000316367
0.000474636
0.000723457
0.00111063
0.0017087
0.00263272
0.00408113
0.0064411
0.0105758
0.018648
0.0365726
0.0817059
0.214277
0.932144
4.84646e-05
6.10681e-05
7.74914e-05
0.000101291
0.000137499
0.000194303
0.000286015
0.000436124
0.000681343
0.00107924
0.00172146
0.00275848
0.004455
0.0073328
0.0125773
0.0232942
0.0485979
0.116604
0.316928
1.24303
4.76403e-05
5.81099e-05
7.16887e-05
9.15438e-05
0.000122157
0.000171014
0.000251683
0.000387475
0.000616856
0.00100342
0.00165317
0.00274602
0.00460287
0.00785188
0.0138934
0.0263171
0.0552659
0.129137
0.322097
0.805403
4.68647e-05
5.53156e-05
6.62442e-05
8.23758e-05
0.000107521
0.000148144
0.000216276
0.000333351
0.00053632
0.000889112
0.00150274
0.00257138
0.0044447
0.00779429
0.0140489
0.0266327
0.0544318
0.119706
0.26816
0.567141
4.61596e-05
5.27705e-05
6.13327e-05
7.41255e-05
9.42628e-05
0.000127047
0.000182507
0.000278937
0.000448877
0.000750593
0.00128864
0.00225059
0.00397695
0.00710813
0.0129319
0.0242774
0.0477609
0.0981574
0.201758
0.395174
4.55395e-05
5.05291e-05
5.70553e-05
6.69853e-05
8.27865e-05
0.000108627
0.000152424
0.000228765
0.000364045
0.000606503
0.00104451
0.0018394
0.00328585
0.00592868
0.0108082
0.0200154
0.0379225
0.0733
0.140735
0.257597
4.50125e-05
4.86178e-05
5.34487e-05
6.1015e-05
7.32356e-05
9.32888e-05
0.00012716
0.000185833
0.000289226
0.00047393
0.000807322
0.00141292
0.00251604
0.00452691
0.00819684
0.0149243
0.0273443
0.0502352
0.091029
0.157923
4.45812e-05
4.70407e-05
5.05008e-05
5.61762e-05
6.55533e-05
8.10199e-05
0.000106972
0.000151333
0.000228313
0.000363751
0.000604683
0.00103612
0.00181046
0.00319854
0.0056775
0.0100821
0.0178547
0.031378
0.0541074
0.0898027
4.42447e-05
4.57857e-05
4.81645e-05
5.23649e-05
5.95556e-05
7.15323e-05
9.14795e-05
0.000124979
0.000181808
0.00027937
0.000448542
0.000743363
0.00125689
0.00214661
0.00367452
0.00626982
0.0106204
0.0177747
0.0291527
0.0462477
4.39996e-05
4.48283e-05
4.63678e-05
4.94398e-05
5.4995e-05
6.44063e-05
7.99866e-05
0.000105638
0.000147997
0.000218573
0.000337186
0.000537203
0.000872835
0.00142812
0.00232831
0.00375736
0.00598391
0.00938703
0.0144435
0.0216001
4.38413e-05
4.41268e-05
4.50164e-05
4.72537e-05
5.16269e-05
5.91985e-05
7.16792e-05
9.18113e-05
0.00012414
0.000176334
0.000261297
0.00040046
0.000627307
0.000987355
0.00153473
0.002332
0.00345867
0.00502603
0.00718129
0.010026
4.39654e-05
4.36593e-05
4.41731e-05
4.60374e-05
4.98886e-05
5.65659e-05
6.73039e-05
8.39485e-05
0.00010958
0.000149173
0.000211
0.000310215
0.000474686
0.000739627
0.00113781
0.00172461
0.00264739
0.00440483
0.00836698
0.0178785
0.000514837
8.91656e-05
0.000140899
0.000194856
0.000247394