/*--------------------------------*- C++ -*----------------------------------*\
| =========                 |                                                 |
| \\      /  F ield         | OpenFOAM: The Open Source CFD Toolbox           |
|  \\    /   O peration     | Version:  v1912                                 |
|   \\  /    A nd           | Website:  www.openfoam.com                      |
|    \\/     M anipulation  |                                                 |
\*---------------------------------------------------------------------------*/
FoamFile
{
    version     2.0;
    format      ascii;
    class       volScalarField;
    location    "52";
    object      k;
}
// * * * * * * * * * * * * * * * * * * * * * * * * * * * * * * * * * * * * * //

dimensions      [0 2 -2 0 0 0 0];


internalField   nonuniform List<scalar> 
20320
(
0.00413927
0.00425426
0.00433133
0.00440691
0.0044804
0.00455132
0.004619
0.00468255
0.00474098
0.00479326
0.0048382
0.00487437
0.00490026
0.00491405
0.00491353
0.00489548
0.00485372
0.00477345
0.004608
0.00416624
0.00415084
0.00414924
0.00419448
0.00429122
0.00445995
0.00472009
0.00509043
0.00558977
0.00623253
0.00702922
0.00798967
0.00912264
0.0104361
0.0119306
0.0135985
0.0153985
0.0172138
0.0187643
0.0193449
0.0177362
0.00417749
0.00421796
0.00430459
0.00444418
0.00466246
0.00499152
0.00547079
0.0061484
0.0070825
0.00833683
0.00997077
0.0120286
0.0145282
0.0174512
0.0207285
0.0242128
0.0276094
0.030322
0.0310351
0.0272584
0.00421532
0.00432035
0.00447522
0.00468186
0.00496605
0.00536025
0.00590786
0.00666772
0.00771845
0.00916174
0.0111194
0.0137165
0.0170483
0.0211374
0.0258909
0.0310585
0.0361529
0.0402465
0.0413918
0.0357337
0.00426168
0.00445145
0.00469488
0.00498864
0.00535804
0.00583544
0.00646496
0.00730703
0.00844556
0.00999759
0.0121212
0.015011
0.0188663
0.0238166
0.0298155
0.0365394
0.0432909
0.0487893
0.0504667
0.0434399
0.00431495
0.00460862
0.00496138
0.00536468
0.00584234
0.00642568
0.00715878
0.00810234
0.00934079
0.010995
0.0132373
0.0163027
0.0204763
0.0260202
0.0330109
0.0411289
0.0494796
0.0563774
0.0586084
0.050492
0.00437311
0.00478665
0.00526684
0.00580036
0.00640869
0.00712119
0.00798105
0.00904831
0.0104067
0.0121773
0.0145376
0.0177416
0.0221313
0.0280861
0.0358422
0.0451678
0.055028
0.0633
0.0660669
0.0570602
0.00443382
0.00497925
0.00560172
0.00628401
0.00704456
0.00790984
0.00892135
0.0101376
0.0116404
0.0135499
0.0160447
0.0193882
0.0239564
0.0302197
0.0385743
0.0489342
0.0601996
0.0698179
0.0731153
0.0633564
0.00449439
0.00517871
0.00595361
0.00679954
0.00773175
0.00877321
0.00996312
0.0113575
0.0130352
0.0151141
0.017772
0.0212766
0.0260252
0.0325554
0.0414074
0.0526698
0.0652483
0.0761927
0.0800243
0.0695664
0.00455189
0.00537591
0.00630715
0.00732629
0.00844598
0.00968584
0.0110826
0.0126891
0.0145799
0.0168689
0.0197319
0.0234381
0.028398
0.0351997
0.0445072
0.0565917
0.070416
0.0826708
0.0870322
0.0759494
0.00460321
0.00556065
0.00664453
0.00783938
0.00915699
0.0106148
0.0122479
0.0141057
0.0162572
0.0188108
0.0219383
0.0259083
0.0311403
0.0382613
0.0480423
0.0609352
0.0759972
0.0895855
0.0944711
0.0827449
0.0046454
0.0057223
0.00694649
0.00831092
0.00982957
0.0115203
0.0134186
0.0155717
0.0180422
0.0209314
0.0244057
0.0287305
0.0343318
0.0418689
0.0522073
0.0659758
0.0823523
0.0973779
0.102813
0.0901473
0.00467588
0.00585078
0.00719409
0.00871231
0.0104259
0.0123575
0.0145467
0.0170417
0.0199001
0.0232154
0.0271469
0.0319562
0.0380737
0.0461882
0.0572538
0.0720726
0.0899587
0.106626
0.11265
0.0985554
0.00469282
0.00593773
0.00737077
0.009017
0.0109086
0.0130786
0.0155774
0.0184598
0.0217825
0.0256338
0.0301667
0.0356393
0.0424881
0.0514344
0.0635242
0.07974
0.0995453
0.118279
0.125005
0.108699
0.00469532
0.00597755
0.00746442
0.00920361
0.0112444
0.0136372
0.0164517
0.0197589
0.0236238
0.0281364
0.03345
0.0398249
0.0477121
0.0578787
0.0714853
0.089726
0.112238
0.133876
0.141584
0.121811
0.00468363
0.00596833
0.00746928
0.00925906
0.0114086
0.0139928
0.0171108
0.020863
0.0253381
0.0306432
0.0369465
0.044528
0.0538753
0.065839
0.0817581
0.103136
0.129878
0.156189
0.165721
0.1404
0.00465904
0.00591211
0.00738687
0.00918061
0.0113887
0.0141161
0.0175017
0.0216917
0.0268193
0.0330343
0.0405487
0.0496967
0.061052
0.0756304
0.095101
0.121545
0.155485
0.190421
0.204402
0.170064
0.00462377
0.00581463
0.00722585
0.00897664
0.0111866
0.0139941
0.0175853
0.0221679
0.0279455
0.0351452
0.0440678
0.0551611
0.0691721
0.0874347
0.112258
0.146942
0.193749
0.246451
0.273711
0.225738
0.00458059
0.00568446
0.00700081
0.00866565
0.0108196
0.0136335
0.0173435
0.0222305
0.0285929
0.0367748
0.0472233
0.0605826
0.0779026
0.101073
0.133567
0.181181
0.250881
0.341989
0.413311
0.357472
0.00453247
0.00553173
0.00673005
0.00827365
0.0103184
0.0130618
0.0167865
0.0218489
0.0286582
0.0377102
0.0496567
0.0654302
0.086532
0.115688
0.158208
0.224307
0.331353
0.499688
0.70721
0.770587
0.952665
1.22173
1.44791
1.68605
2.23195
3.16906
4.6461
6.61373
9.88311
18.9363
34.4972
47.984
62.3773
77.2394
83.0068
121.044
116.047
92.806
62.0192
43.4592
31.4237
23.0153
17.9498
15.0022
12.9881
11.4726
10.2943
9.35543
8.58715
7.9422
7.38796
6.90127
6.46634
6.07358
5.71713
5.39264
5.09697
4.82845
4.5857
4.36563
4.16344
3.97636
3.80455
3.64767
3.50683
3.38106
3.2631
3.14765
3.04041
2.95311
2.88432
2.832
2.8175
2.84066
2.87336
2.90239
2.92426
2.95962
3.02983
3.15535
1.35738
3.2215
4.12566
5.0308
6.64094
9.42077
13.6133
19.7323
29.6226
51.7893
102.825
147.312
201.721
266.204
314.21
354.501
234.576
159.93
109.029
79.4125
61.0539
48.3274
40.043
34.1422
29.6081
26.0665
23.2654
21.0078
19.1471
17.5796
16.2318
15.0508
14.0006
13.0587
12.2105
11.4445
10.7525
10.1294
9.57127
9.06974
8.61207
8.1909
7.81268
7.47543
7.17347
6.90548
6.6566
6.41344
6.19857
6.05344
5.95153
5.86651
5.88745
5.99936
6.10961
6.21706
6.32755
6.4702
6.69955
7.05169
1.64132
4.19107
5.48181
6.82025
8.95494
12.6038
18.2252
26.5788
40.2152
68.5417
122.942
189.263
281.419
376.626
303.965
220.812
159.456
119.262
92.3805
74.2238
61.6838
52.4487
45.1866
39.4428
34.8725
31.1991
28.209
25.7363
23.6561
21.8758
20.3272
18.9598
17.7373
16.6351
15.6366
14.729
13.9035
13.1542
12.4767
11.8637
11.304
10.7897
10.3234
9.90454
9.53014
9.19951
8.89958
8.61517
8.36807
8.1938
8.05853
7.95152
7.9701
8.10225
8.25431
8.42392
8.60263
8.8234
9.15022
9.60788
1.87097
5.02053
6.66343
8.39282
11.0182
15.4799
22.6118
33.543
51.1327
86.8928
143.596
233.346
291.568
236.804
181.08
139.481
108.588
86.8126
71.7001
61.1474
53.5994
47.7861
42.8991
38.7336
35.2106
32.2341
29.7062
27.539
25.66
24.0112
22.5471
21.2319
20.0389
18.9489
17.9484
17.0274
16.1787
15.3985
14.6838
14.0297
13.4285
12.8747
12.37
11.9153
11.5111
11.1565
10.8378
10.5473
10.314
10.1472
10.0122
9.92514
9.97522
10.1338
10.333
10.5596
10.7992
11.0915
11.517
12.0818
2.07782
5.77437
7.80264
9.95113
13.1331
18.5563
27.5981
42.3254
66.3101
109.694
188.667
281.029
208.807
154.883
118.246
92.8216
75.1154
62.8241
54.3135
48.378
44.1174
40.8066
37.9784
35.4681
33.2249
31.2198
29.4293
27.8258
26.3815
25.0698
23.8672
22.7536
21.7146
20.7411
19.8268
18.9657
18.1539
17.3915
16.6798
16.0178
15.4031
14.8348
14.3154
13.8487
13.4381
13.0823
12.771
12.5054
12.305
12.1638
12.0599
12.0359
12.137
12.3367
12.5924
12.8743
13.1691
13.5248
13.9917
14.5606
2.30751
6.50532
8.96529
11.6112
15.4727
22.0958
33.5948
53.6907
89.278
149.192
276.285
248.507
160.053
111.905
83.4682
65.7116
54.3164
46.912
42.0673
38.8472
36.6132
34.9288
33.5238
32.2629
31.0888
29.9862
28.9472
27.9634
27.0253
26.1229
25.2452
24.3818
23.5314
22.7019
21.8962
21.1099
20.3399
19.5935
18.8801
18.2036
17.5682
16.9799
16.4446
15.9683
15.5566
15.2092
14.919
14.6894
14.5291
14.4293
14.3863
14.436
14.5992
14.8567
15.1731
15.5141
15.8685
16.2772
16.7829
17.3768
2.61931
7.30085
10.2319
13.4843
18.1861
26.2466
40.6661
67.2345
119.909
226.208
367.471
201.534
124.058
84.3691
62.3537
49.543
41.9844
37.5606
34.9949
33.4889
32.526
31.8683
31.3875
31.0051
30.6456
30.266
29.8502
29.3881
28.8757
28.3134
27.6979
27.0138
26.2778
25.5389
24.801
24.0458
23.2608
22.4727
21.7074
20.968
20.268
19.6228
19.0428
18.536
18.1093
17.7624
17.4892
17.2912
17.1703
17.1196
17.144
17.2684
17.5004
17.8207
18.1985
18.6038
19.0298
19.507
20.0697
20.7044
3.02141
8.2963
11.7293
15.7179
21.4545
31.1415
48.7216
81.8811
153.362
315.629
276.211
150.444
93.3084
64.1614
48.3264
39.6898
35.2264
33.1556
32.3224
32.1006
31.9987
32.0739
32.2705
32.6108
32.9214
33.0948
33.1108
32.9708
32.6943
32.3126
31.8429
31.2759
30.6115
29.9111
29.1776
28.3737
27.4432
26.5022
25.6065
24.7049
23.8559
23.0824
22.4018
21.8224
21.3474
20.9745
20.6963
20.5111
20.4177
20.4101
20.4939
20.6859
20.9838
21.364
21.8001
22.2689
22.7673
23.3166
23.9407
24.6175
3.46135
9.58983
13.6507
18.5417
25.5653
37.0627
57.8713
97.4214
185.244
340.667
183.13
107.659
69.6215
49.5071
38.9939
34.1028
32.4311
32.4372
32.8938
33.0213
33.1089
33.1343
33.3729
33.7143
34.1152
34.4943
34.7805
34.9271
34.9369
34.8519
34.733
34.612
34.4193
34.1092
33.6587
33.0945
32.4684
31.7028
30.793
29.7555
28.7324
27.7181
26.8493
26.1191
25.5412
25.0929
24.772
24.5644
24.4735
24.4914
24.6154
24.8568
25.207
25.6352
26.1172
26.6365
27.1967
27.8132
28.4939
29.205
3.89007
11.1506
16.2226
22.3497
31.0524
44.7458
69.0371
115.07
216.424
215.221
126.755
79.0842
53.1343
39.5254
33.4718
31.9377
32.7189
33.6303
33.9511
33.8028
33.5493
33.2471
33.2905
33.546
33.8845
34.2664
34.6527
34.9977
35.2853
35.53
35.7584
35.9256
35.946
35.9334
35.9137
35.83
35.5808
35.1954
34.8394
34.373
33.8039
33.2024
32.5043
31.7262
31.0143
30.3883
29.9772
29.6839
29.5557
29.5751
29.7127
29.9691
30.3422
30.7968
31.3015
31.8369
32.4322
33.1068
33.834
34.5606
4.29612
12.8776
19.5955
27.8435
38.9864
55.8159
84.6063
138.897
248.039
153.877
94.8636
60.5504
41.8611
33.3224
31.1833
32.5962
34.2953
34.822
34.5528
33.7103
32.8237
32.0941
31.7692
31.8331
32.1164
32.5358
33.0483
33.6108
34.1921
34.7754
35.3396
35.8016
36.0964
36.3711
36.7016
36.9941
37.0794
37.0508
37.1226
37.0904
37.0576
37.0403
37.0258
36.9648
36.8098
36.6336
36.3658
36.0627
35.9094
35.9035
36.0283
36.237
36.5823
37.031
37.5379
38.0119
38.5877
39.3196
40.0842
40.7741
4.67899
14.6933
23.8037
36.002
51.5827
73.7217
109.265
175.911
199.571
121.811
74.3502
47.4121
34.2614
30.2594
31.5543
34.5512
35.7206
35.1867
33.8798
32.2212
30.6711
29.4842
28.81
28.6684
28.9274
29.4682
30.2039
31.0623
31.9856
32.9262
33.8298
34.6126
35.2398
35.8332
36.4668
37.0536
37.4561
37.7649
38.1409
38.4657
38.8318
39.2231
39.6303
39.9974
40.3809
40.6707
41.0287
41.3299
41.6337
41.9389
42.3992
43.091
43.5718
43.8875
44.067
44.42
44.823
45.2189
45.5983
45.868
5.06099
16.5378
28.785
47.8959
73.0667
105.942
152.179
241.789
170.316
99.1541
58.5505
37.5849
29.6512
29.7873
33.9058
36.2875
35.9099
34.1358
31.7628
29.3115
27.1708
25.5795
24.6549
24.4136
24.7438
25.4958
26.5305
27.7346
29.0203
30.3161
31.5539
32.6647
33.6344
34.546
35.4532
36.2931
36.9795
37.5816
38.2037
38.8074
39.4493
40.1105
40.7648
41.4005
42.06
42.6557
43.3287
43.8704
44.4335
45.1054
45.8162
46.3733
46.7913
47.1421
47.4346
47.5332
47.665
47.8586
47.9387
47.9679
5.48136
18.2856
34.3396
64.6686
110.625
167.239
232.445
260.109
143.693
78.9478
45.3467
30.537
27.6285
31.4416
36.3933
36.6477
34.5535
31.5773
28.3369
25.2503
22.6565
20.7983
19.7932
19.6254
20.1495
21.1731
22.5197
24.0495
25.6578
27.2628
28.7959
30.2043
31.4812
32.6753
33.8169
34.8715
35.7991
36.6423
37.4669
38.2755
39.1007
39.928
40.7327
41.5239
42.3225
43.0907
43.8863
44.5609
45.2391
46.0078
46.6735
47.0454
47.366
47.7762
48.0682
48.0609
48.0519
48.1005
48.0478
48.0016
5.92086
19.7396
39.5148
86.1465
173.52
278.189
349.604
234.313
115.047
60.2741
34.799
26.1705
27.7734
34.5196
37.3461
35.4538
31.8898
27.9037
23.9904
20.4548
17.6
15.6916
14.8274
14.9018
15.6943
16.9801
18.5762
20.3451
22.1834
24.0115
25.7663
27.4059
28.9221
30.3374
31.6658
32.891
34.001
35.0285
36.0117
36.9634
37.9045
38.8278
39.7184
40.5874
41.4453
42.279
43.0962
43.8167
44.5169
45.2292
45.773
46.0632
46.3458
46.7039
46.9032
46.8466
46.7588
46.6904
46.5704
46.4837
6.291
20.7271
42.5554
104.964
268.139
361.73
383.963
174.677
85.4228
44.7361
27.2602
24.2128
29.7507
36.9449
36.7177
32.9979
28.2628
23.5302
19.1599
15.3841
12.516
10.8272
10.3058
10.701
11.7343
13.1923
14.9214
16.8067
18.7582
20.7041
22.5882
24.3731
26.0449
27.6084
29.0671
30.4146
31.6514
32.8002
33.8881
34.9318
35.9421
36.9154
37.8459
38.7415
39.608
40.4399
41.2281
41.9362
42.6018
43.2164
43.6596
43.9197
44.1625
44.4079
44.4939
44.3925
44.2456
44.0976
43.9396
43.8213
6.48462
21.1963
41.8234
103.712
222.701
279.046
214.521
119.141
62.3391
33.3308
22.5329
24.2401
33.0546
37.5583
34.8881
29.6882
24.075
18.8457
14.2444
10.4803
7.89931
6.68076
6.58199
7.23457
8.38434
9.87726
11.6059
13.4829
15.434
17.3955
19.3155
21.1575
22.901
24.5393
26.069
27.487
28.7973
30.0154
31.1596
32.2445
33.2807
34.2698
35.209
36.0995
36.9444
37.7404
38.4782
39.1435
39.7493
40.2718
40.6435
40.8767
41.06
41.1868
41.1739
41.0301
40.8431
40.6545
40.4812
40.3475
6.45069
21.2556
38.7587
80.5624
159.364
184.994
157.671
88.6685
46.8591
25.3693
20.1057
25.8697
36.064
36.7553
32.115
25.8413
19.6533
14.1748
9.59545
6.1517
4.1735
3.54522
3.76791
4.50372
5.60368
6.98903
8.59439
10.3552
12.2088
14.0967
15.9692
17.7882
19.528
21.1736
22.7172
24.1548
25.4893
26.7307
27.8914
28.9828
30.0139
30.9874
31.9036
32.764
33.5695
34.3178
35.0007
35.6124
36.1532
36.5989
36.9138
37.11
37.2281
37.2613
37.1814
37.0128
36.814
36.6231
36.4608
36.337
6.32153
21.1534
36.6053
64.9126
117.967
160.949
132.403
70.6988
35.7933
19.957
19.4525
28.786
37.2291
34.9494
28.7253
21.7208
15.245
9.77982
5.5226
2.77324
1.6422
1.50198
1.82082
2.44325
3.33767
4.48888
5.86315
7.41333
9.08574
10.8226
12.575
14.3013
15.9717
17.5656
19.0707
20.4807
21.7957
23.0208
24.1641
25.2339
26.2368
27.1762
28.0529
28.8678
29.6212
30.3117
30.9364
31.4924
31.9735
32.3574
32.6247
32.7826
32.8499
32.8292
32.7228
32.5602
32.3848
32.2283
32.1073
32.0227
6.28698
21.0786
35.8589
60.605
105.734
180.898
110.252
56.5364
27.2377
16.5465
20.1388
32.4777
37.0959
32.3447
24.9809
17.5509
11.052
5.88356
2.3324
0.712212
0.394818
0.44824
0.660527
1.04032
1.62214
2.43279
3.47229
4.71622
6.12366
7.63221
9.19566
10.765
12.3073
13.7964
15.2158
16.5559
17.8128
18.988
20.0854
21.1103
22.067
22.9582
23.7852
24.5483
25.2479
25.883
26.4522
26.9524
27.3763
27.7094
27.9402
28.0723
28.1181
28.0881
27.9987
27.8791
27.7631
27.6757
27.627
27.6087
6.3242
21.0532
35.8603
60.7403
107.728
180.439
93.0259
44.8427
20.6257
14.7253
21.8083
35.1346
35.9535
29.2593
21.0928
13.5013
7.23832
2.74226
0.465163
0.069619
0.058216
0.082121
0.145562
0.283413
0.542831
0.971411
1.60324
2.44724
3.48381
4.67053
5.95978
7.30134
8.65653
9.98839
11.2769
12.5072
13.6716
14.7671
15.7941
16.7545
17.6505
18.4837
19.2547
19.9639
20.6111
21.1958
21.7168
22.1708
22.5516
22.8504
23.0622
23.1915
23.2499
23.2526
23.2199
23.1775
23.1512
23.1593
23.2062
23.2723
6.40014
21.0315
35.9366
61.6623
110.041
163.174
77.9702
35.2653
15.7533
14.0947
24.1548
36.9505
33.8836
25.8182
17.1997
9.69932
4.03328
0.756488
0.0243313
0.0147798
0.0149388
0.0166147
0.0222103
0.0396151
0.0893088
0.209951
0.450472
0.854063
1.44276
2.20955
3.12402
4.14372
5.22581
6.33311
7.43561
8.51379
9.54971
10.5365
11.4693
12.3472
13.1695
13.9361
14.6469
15.3014
15.8993
16.4397
16.9215
17.3419
17.6969
17.983
18.2001
18.3547
18.459
18.529
18.5841
18.6453
18.7315
18.854
19.0098
19.1654
6.4628
20.9238
35.8322
62.5572
114.512
144.911
64.7601
27.2827
12.4116
14.2912
27.0057
36.9676
31.4664
22.2729
13.4444
6.35336
1.7583
0.063012
0.0118172
0.0118613
0.0117008
0.011434
0.0112224
0.0113584
0.0128333
0.0199603
0.0464349
0.12303
0.293572
0.596179
1.04848
1.64297
2.35319
3.14428
3.98237
4.83953
5.69358
6.53027
7.33775
8.11119
8.84392
9.53323
10.1779
10.7756
11.3259
11.8271
12.2783
12.6779
13.0248
13.3193
13.5649
13.7694
13.9447
14.1056
14.2682
14.448
14.657
14.8992
15.1627
15.4007
6.354
20.5198
35.3124
62.3506
117.267
118.467
52.9305
20.9516
10.3517
15.0265
30.2219
35.9212
28.4253
18.6609
9.94941
3.73493
0.475398
0.0108273
0.00979524
0.00962831
0.00948778
0.00946239
0.00948884
0.00942734
0.00924092
0.00910782
0.00910976
0.0100328
0.0159775
0.0401257
0.109734
0.259188
0.513788
0.879395
1.34342
1.88295
2.47248
3.08961
3.71658
4.34026
4.94989
5.53853
6.10091
6.63225
7.13121
7.59301
8.01831
8.40586
8.75702
9.07447
9.36342
9.63201
9.8906
10.1512
10.4256
10.7237
11.05
11.3999
11.7532
12.0531
5.94277
19.5257
33.9994
60.6815
113.397
95.3986
43.0265
16.2192
9.22695
16.0812
32.7984
34.6289
25.3687
15.2003
7.02907
1.85688
0.0604635
0.00859988
0.00830693
0.00814134
0.00804979
0.00800638
0.00798261
0.00794046
0.00789015
0.00784741
0.00776505
0.00765267
0.00752333
0.00734343
0.00732071
0.00849604
0.0152183
0.0401844
0.105674
0.23484
0.439966
0.719383
1.06104
1.44844
1.8651
2.2972
2.73366
3.16591
3.588
3.99496
4.38499
4.75641
5.11177
5.45234
5.78439
6.11426
6.45035
6.80075
7.17257
7.56925
7.98805
8.41638
8.82592
9.15611
5.18216
17.8235
31.2204
56.3159
113.485
79.9435
35.2258
12.7457
8.70036
17.306
34.1598
33.068
22.4775
12.1768
4.70498
0.718199
0.0102897
0.00750474
0.00724006
0.00705702
0.00696699
0.00693551
0.00692755
0.00691582
0.00689462
0.00687596
0.0068416
0.00679123
0.00669945
0.00655996
0.00640868
0.00626543
0.00612779
0.00598713
0.00589881
0.0061008
0.00749246
0.0136239
0.0337531
0.0831167
0.177647
0.326053
0.526386
0.769278
1.04369
1.33982
1.65055
1.97116
2.30011
2.63767
2.98702
3.3514
3.7364
4.14375
4.5763
5.03091
5.49907
5.96092
6.38175
6.70229
4.27917
15.966
28.068
49.4188
93.6633
71.0586
29.5701
10.2725
8.53964
18.612
35.6345
30.5166
19.198
9.47905
2.92382
0.196455
0.00723656
0.00672136
0.00651164
0.00634582
0.00624529
0.0062109
0.00620274
0.00618715
0.00617181
0.00617
0.00615917
0.0061318
0.00606761
0.00597515
0.0058795
0.0057776
0.0056698
0.0055635
0.00545686
0.00534942
0.00525278
0.00517357
0.00510997
0.00507401
0.0051273
0.0054873
0.00700216
0.012886
0.031809
0.0796904
0.175532
0.330082
0.540191
0.797689
1.09669
1.43349
1.80583
2.21095
2.64495
3.09923
3.56041
4.00145
4.38252
4.64334
4.23052
14.8118
26.4956
47.009
91.5757
63.3516
25.0361
8.50761
8.59898
19.9262
36.3828
27.2875
15.7669
6.99063
1.61755
0.0390299
0.00659821
0.00621625
0.00599159
0.00584618
0.00574574
0.00570186
0.00568205
0.00565991
0.00564618
0.00564663
0.00564292
0.00563035
0.00558864
0.00552545
0.0054608
0.00538782
0.00530796
0.00523091
0.00515214
0.00506662
0.00498538
0.00491777
0.00485985
0.00480737
0.00476022
0.00472103
0.00469298
0.0046757
0.00467493
0.00472362
0.00497864
0.00644227
0.0156569
0.057923
0.172553
0.371644
0.641398
0.965698
1.33018
1.71939
2.11279
2.47849
2.76703
2.89309
4.68694
15.2369
26.8162
49.4106
96.612
57.4838
21.062
7.25223
8.80109
21.1832
35.446
24.3499
12.809
4.83658
0.749014
0.0101272
0.00620297
0.00587595
0.00564641
0.00548804
0.0053882
0.00533785
0.00530792
0.00527923
0.00526276
0.00525883
0.00525612
0.00524945
0.00521855
0.00517334
0.00512963
0.00507716
0.00501747
0.0049605
0.00490132
0.00483387
0.00476783
0.00471204
0.00466207
0.00461458
0.00457134
0.004535
0.0045067
0.00448511
0.00447231
0.00447308
0.00449067
0.00453875
0.0046718
0.00518232
0.00858117
0.0320539
0.119597
0.291393
0.528311
0.803423
1.08697
1.33959
1.5006
1.45639
5.55356
16.8603
28.7487
53.7615
99.7852
51.6994
17.2832
6.3652
9.10946
22.3908
33.2302
22.2459
10.5396
3.15367
0.270054
0.00666725
0.00593311
0.00562839
0.0054066
0.00523602
0.0051297
0.00507241
0.00503392
0.00500019
0.00498058
0.00497207
0.00496789
0.00496211
0.00493643
0.00490193
0.00487019
0.00483024
0.00478423
0.0047416
0.00469714
0.00464387
0.00458994
0.00454394
0.00450162
0.00446015
0.00442159
0.00438794
0.0043603
0.00433845
0.00432364
0.00431834
0.00432551
0.00435311
0.00441146
0.00452074
0.0047598
0.00554608
0.0101739
0.0373222
0.120446
0.258446
0.418363
0.555758
0.610677
0.492436
7.71351
20.7561
33.6374
60.7698
104.229
45.2459
13.6466
5.77526
9.51226
23.6023
31.1476
19.9453
8.62707
1.93575
0.0725515
0.00621951
0.00572977
0.00542212
0.00521461
0.0050492
0.00493953
0.00487545
0.00483015
0.00479277
0.00476944
0.00475679
0.00475069
0.00474354
0.00472136
0.00469502
0.00467072
0.00463868
0.00460221
0.00456907
0.00453446
0.00449147
0.00444658
0.00440797
0.0043721
0.0043361
0.00430189
0.00427128
0.00424545
0.00422444
0.00420876
0.00420019
0.0042021
0.00421941
0.00425793
0.00432939
0.00445218
0.00465783
0.00504871
0.00610663
0.010744
0.0296433
0.0706033
0.11331
0.118837
0.0606846
11.0923
28.5843
44.3099
76.0694
106.019
38.2736
10.4053
5.44311
10.0102
25.0162
28.8899
16.9713
6.70035
1.08145
0.0174719
0.00586528
0.00552573
0.00525806
0.00506295
0.00490622
0.00479723
0.0047278
0.00467764
0.00463779
0.00461078
0.00459394
0.00458469
0.00457472
0.00455516
0.00453501
0.00451575
0.00448975
0.0044606
0.00443395
0.00440599
0.00437076
0.00433283
0.00429949
0.00426839
0.00423694
0.00420661
0.00417884
0.004155
0.00413526
0.00411964
0.00410982
0.00410869
0.00411899
0.00414546
0.00419658
0.00428223
0.00441807
0.00462593
0.00493526
0.00540184
0.00613525
0.00730692
0.00859055
0.00832714
0.00636593
17.5754
42.0616
65.999
112.864
100.37
30.0109
7.77011
5.32954
10.61
26.5291
25.9026
13.8166
4.81222
0.51398
0.00735464
0.00559344
0.00532477
0.00512132
0.00494228
0.00479275
0.00468517
0.00461246
0.00456031
0.00451983
0.00449031
0.00447064
0.00445832
0.00444554
0.0044282
0.00441179
0.0043946
0.00437227
0.00434808
0.00432572
0.00430269
0.00427381
0.00424149
0.00421219
0.00418506
0.00415769
0.00413074
0.00410557
0.00408381
0.00406545
0.00405038
0.00404043
0.00403735
0.00404295
0.00406142
0.00409797
0.00415935
0.00425603
0.00439864
0.00460236
0.0048798
0.00522251
0.00558622
0.00586508
0.00587513
0.00541545
31.2805
67.1509
113.373
168.478
79.7043
20.1897
5.80944
5.40652
11.3416
27.2943
23.1198
11.2168
3.22626
0.193873
0.00598357
0.00543615
0.00516303
0.00498916
0.00482859
0.00469085
0.00458727
0.00451378
0.00446182
0.0044225
0.00439247
0.00437202
0.0043581
0.00434406
0.00432955
0.00431652
0.00430098
0.00428143
0.00426072
0.00424106
0.00422127
0.0041969
0.00416859
0.00414214
0.00411819
0.00409437
0.00407046
0.00404777
0.00402799
0.00401099
0.00399683
0.00398701
0.00398256
0.00398515
0.00399768
0.00402351
0.00406803
0.00413681
0.00423637
0.00437564
0.00455971
0.00478489
0.00502503
0.00521584
0.00524882
0.00499124
28.4873
80.8706
139.169
171.822
48.1888
11.7203
4.66433
5.66889
12.2762
26.5717
20.7072
9.06878
2.02662
0.056341
0.00564469
0.00525371
0.00502941
0.00487853
0.0047293
0.00460085
0.00450117
0.0044272
0.00437533
0.00433685
0.00430688
0.00428616
0.00427108
0.00425681
0.00424485
0.00423499
0.00422264
0.0042073
0.00419097
0.00417457
0.00415758
0.00413679
0.00411197
0.00408794
0.00406619
0.00404495
0.00402358
0.00400304
0.00398483
0.00396901
0.00395568
0.00394597
0.00394069
0.00394099
0.00394881
0.00396693
0.00399862
0.00404722
0.00411711
0.00421234
0.00433588
0.00448623
0.00464835
0.00478683
0.00483868
0.00471606
21.6087
63.9002
103.044
71.6565
23.0095
6.74211
4.19262
6.11802
13.5046
26.2436
17.2767
6.77478
1.10404
0.0147606
0.00539744
0.00508682
0.00492861
0.00479701
0.0046534
0.00453037
0.00443359
0.00435926
0.00430641
0.00426722
0.00423666
0.00421496
0.00419829
0.00418348
0.00417211
0.00416281
0.00415193
0.00413951
0.00412683
0.00411381
0.00409994
0.00408318
0.00406303
0.00404273
0.00402387
0.00400537
0.00398654
0.00396806
0.00395141
0.00393676
0.00392413
0.0039145
0.00390863
0.00390707
0.00391129
0.00392327
0.00394517
0.0039792
0.00402739
0.00409186
0.0041747
0.00427496
0.00438545
0.0044886
0.00455212
0.00452132
17.2055
54.6585
76.3162
33.4103
10.9438
4.48564
4.17436
6.77368
15.0998
24.4416
13.7653
4.58903
0.467338
0.00670772
0.0052816
0.00498769
0.00484278
0.00471393
0.0045797
0.00446687
0.00437653
0.00430534
0.00425349
0.00421442
0.00418401
0.00416181
0.00414427
0.00412936
0.00411809
0.00410834
0.00409706
0.00408478
0.00407276
0.00406079
0.00404839
0.00403437
0.00401813
0.00400141
0.00398553
0.00397002
0.0039542
0.00393838
0.00392376
0.00391064
0.00389898
0.00388973
0.00388354
0.00388062
0.00388199
0.00388921
0.00390375
0.00392675
0.00395926
0.00400249
0.00405731
0.00412311
0.00419722
0.00427352
0.00434173
0.00437433
15.3856
52.5599
43.2787
15.6153
5.68131
3.71101
4.44746
7.6872
16.9894
21.3745
10.9862
2.83309
0.143838
0.00570508
0.00520038
0.00491308
0.00476166
0.00462953
0.00450245
0.00439836
0.00431538
0.00424984
0.00420123
0.00416408
0.00413543
0.00411409
0.004097
0.004083
0.00407266
0.00406406
0.00405446
0.00404392
0.00403335
0.00402248
0.00401099
0.00399848
0.00398456
0.00396998
0.00395572
0.00394185
0.00392799
0.00391421
0.00390126
0.00388941
0.00387864
0.00386978
0.00386335
0.00385939
0.00385861
0.00386209
0.00387077
0.00388539
0.00390643
0.00393436
0.00396946
0.00401149
0.0040602
0.00411624
0.00418442
0.00426092
24.8938
57.2444
18.6899
6.63476
3.78321
3.64495
4.95385
8.92872
19.5626
17.9943
7.8168
1.43799
0.0330472
0.00552381
0.00514343
0.0048687
0.00470398
0.00456602
0.00444453
0.00434515
0.00426506
0.00420183
0.00415414
0.00411757
0.0040897
0.00406877
0.00405208
0.00403875
0.00402867
0.0040206
0.00401279
0.00400453
0.00399604
0.00398717
0.0039776
0.00396715
0.00395572
0.00394357
0.00393124
0.00391899
0.00390673
0.00389459
0.00388299
0.00387214
0.00386212
0.0038535
0.00384667
0.0038417
0.0038391
0.00383955
0.00384366
0.00385185
0.00386436
0.00388134
0.00390284
0.00392874
0.00395968
0.0039998
0.00406408
0.00416991
10.4889
11.5966
5.53221
3.79971
3.44177
3.89165
5.75102
10.6292
19.6913
15.1199
5.16545
0.589709
0.00993682
0.00544549
0.00510242
0.00483003
0.00464882
0.00450734
0.00439125
0.00429765
0.00422266
0.00416353
0.00411819
0.00408327
0.00405667
0.00403664
0.00402104
0.00400878
0.00399931
0.00399149
0.0039842
0.00397689
0.00396934
0.0039614
0.00395296
0.00394387
0.00393407
0.00392364
0.00391285
0.00390191
0.00389093
0.00388006
0.00386952
0.00385945
0.00385002
0.00384157
0.00383433
0.00382849
0.00382435
0.00382234
0.0038228
0.00382601
0.00383207
0.00384106
0.00385288
0.00386744
0.00388573
0.00391327
0.00397125
0.00409567
0.00448229
0.00536682
0.00643307
0.00783046
0.00972257
0.0123243
0.0159539
0.0210343
0.0280855
0.0377712
0.050988
0.0690276
0.0939559
0.129533
0.183372
0.271671
0.428071
0.714518
1.221
2.19021
0.00443108
0.00519744
0.00612464
0.00735967
0.00906587
0.0114645
0.0148934
0.0198223
0.0268637
0.0368391
0.0508948
0.0707029
0.0989192
0.140313
0.204584
0.313157
0.513391
0.89591
1.57612
2.85694
0.00438051
0.00502726
0.0058134
0.00687788
0.00837617
0.010524
0.0136594
0.0182708
0.0250259
0.0348613
0.0491269
0.0698215
0.100087
0.14539
0.216464
0.336332
0.553757
0.952716
1.6177
2.42093
0.00433238
0.00486297
0.00551221
0.00640711
0.00768947
0.00955916
0.0123356
0.0164931
0.022704
0.031946
0.0456697
0.066057
0.0965013
0.142666
0.214975
0.334236
0.541272
0.900519
1.45878
2.12918
0.00428817
0.00471014
0.00523207
0.00596657
0.00703825
0.00862393
0.0110097
0.0146274
0.0201035
0.0283703
0.0408429
0.0596798
0.0882174
0.131808
0.199609
0.308315
0.487919
0.782372
1.22307
1.78536
0.00424892
0.00457288
0.00498089
0.0055704
0.00644758
0.0077628
0.00976027
0.0128111
0.0174585
0.0245186
0.0352424
0.0515541
0.0764206
0.114469
0.17312
0.264695
0.409333
0.634956
0.964834
1.39156
0.00421529
0.00445374
0.00476335
0.00522696
0.00593312
0.00700591
0.00864558
0.0111554
0.014979
0.0207792
0.0295646
0.0428786
0.0630839
0.0937936
0.140539
0.211812
0.320329
0.482871
0.714723
1.01645
0.00418758
0.00435392
0.00458131
0.00493939
0.00550147
0.00636803
0.00769835
0.00973076
0.0128107
0.017447
0.0243956
0.0347812
0.0502826
0.0733996
0.107823
0.158914
0.234178
0.343059
0.494549
0.691625
0.00416584
0.00427347
0.00443411
0.0047064
0.00515159
0.00585062
0.00692755
0.00856449
0.0110221
0.0146779
0.0200752
0.027985
0.0394934
0.0561213
0.079987
0.114011
0.16209
0.228975
0.319286
0.435279
0.00414993
0.00421145
0.00431903
0.00452332
0.00487694
0.00544553
0.00632473
0.00765099
0.00961713
0.0125
0.0166898
0.0227167
0.0312682
0.0431885
0.0594895
0.0814198
0.110568
0.148862
0.198196
0.259421
0.00413961
0.00416561
0.00423129
0.00438383
0.0046687
0.00513899
0.0058688
0.00695883
0.00855076
0.0108473
0.0141346
0.0188062
0.0253502
0.0342385
0.0458192
0.0603562
0.0781906
0.0998751
0.125909
0.154793
0.00413882
0.00413211
0.00416565
0.00428001
0.00451088
0.00489908
0.00549569
0.00636457
0.00759935
0.00932774
0.011729
0.0150914
0.0197892
0.025952
0.0333407
0.0413089
0.0494405
0.0582045
0.0704502
0.0930016
0.00871837
0.00460265
0.00506032
0.00552633
0.00598122
0.00643466
0.00693554
0.00759973
0.0085875
0.0102418
0.013385
0.0193855
0.0302004
0.0477253
0.073583
0.10962
0.164116
0.263241
0.373231
0.540663
0.0548179
0.0427785
0.0470949
0.0507604
0.0569131
0.0670986
0.0834244
0.108788
0.148387
0.214183
0.279753
0.320035
0.351254
0.419394
0.515927
0.682698
0.972927
1.28779
1.43126
2.09443
0.0135738
0.0176763
0.0255943
0.0408947
0.0631773
0.0923857
0.128032
0.167553
0.203271
0.225561
0.269126
0.622176
0.576024
0.512196
0.446145
0.396846
0.374008
0.292951
0.319962
0.477279
0.00972436
0.00938452
0.00511205
0.00503263
0.00496958
0.00489928
0.00499356
0.00521173
0.00546798
0.00575629
0.00781262
0.0163584
0.0374583
0.0463367
0.044278
0.0362313
0.0255456
0.0160527
0.0104983
0.0106812
0.00658502
0.0100502
0.00488806
0.00405795
0.00392958
0.00392138
0.00395423
0.00398529
0.00400187
0.00412149
0.00472907
0.0048996
0.00490283
0.00522218
0.00584665
0.00645591
0.00697788
0.00720799
0.00625274
0.00624248
0.00653432
0.010039
0.00485687
0.00394055
0.00375498
0.00373166
0.00376177
0.00380343
0.00383856
0.00388499
0.00397325
0.00409195
0.00431081
0.00459284
0.00494555
0.00532878
0.00564358
0.00573499
0.00553485
0.0055275
0.00705571
0.0100538
0.00476289
0.00390273
0.00373341
0.00371143
0.00373989
0.0037838
0.00382903
0.00387425
0.00393256
0.00403232
0.00418662
0.00437494
0.00459509
0.00481854
0.00499553
0.00508825
0.0051166
0.00516112
0.00773961
0.00969219
0.00470812
0.00392158
0.00377268
0.00375392
0.00377789
0.00381673
0.00386095
0.00390962
0.00396834
0.00404891
0.00415776
0.00428967
0.00443819
0.00458759
0.00471644
0.00481113
0.00487786
0.00493564
0.00843796
0.00889038
0.00460637
0.00396142