/*--------------------------------*- C++ -*----------------------------------*\
| =========                 |                                                 |
| \\      /  F ield         | OpenFOAM: The Open Source CFD Toolbox           |
|  \\    /   O peration     | Version:  v1912                                 |
|   \\  /    A nd           | Website:  www.openfoam.com                      |
|    \\/     M anipulation  |                                                 |
\*---------------------------------------------------------------------------*/
FoamFile
{
    version     2.0;
    format      ascii;
    class       volScalarField;
    location    "52";
    object      nut;
}
// * * * * * * * * * * * * * * * * * * * * * * * * * * * * * * * * * * * * * //

dimensions      [0 2 -1 0 0 0 0];


internalField   nonuniform List<scalar> 
20320
(
0.0347191
0.00759864
0.00766716
0.00773376
0.00779798
0.00785945
0.00791767
0.00797195
0.00802154
0.00806565
0.00810337
0.0081336
0.00815517
0.00816663
0.00816621
0.00815119
0.00811635
0.00804897
0.00790826
0.00751967
0.0352309
0.0352732
0.035446
0.0356796
0.0359576
0.0362429
0.0364993
0.0367109
0.0368731
0.036989
0.0370724
0.0371354
0.0371838
0.0372038
0.0371645
0.036991
0.0365194
0.035417
0.0328306
0.0241033
0.0353543
0.035638
0.0361394
0.0368856
0.0379779
0.0395185
0.0415929
0.0442448
0.0474511
0.0510898
0.0549257
0.0586369
0.0618665
0.0642777
0.0655883
0.0655735
0.0640147
0.0605412
0.0539101
0.0354336
0.0355271
0.0361127
0.0369247
0.0379656
0.0393362
0.0411499
0.0435372
0.0466425
0.0506049
0.0555186
0.0613624
0.0679078
0.0746545
0.0808448
0.0855761
0.087968
0.0872843
0.0828357
0.0728049
0.0444502
0.0357352
0.0367072
0.0379067
0.0393097
0.0410092
0.0431119
0.0457485
0.0490748
0.0532731
0.058543
0.0650596
0.072869
0.0817186
0.0908788
0.0990876
0.104725
0.106167
0.101957
0.0893123
0.0517098
0.0359694
0.0374002
0.0390564
0.0408896
0.0429813
0.045429
0.0483576
0.051921
0.0563073
0.0617463
0.0685005
0.0768032
0.0866952
0.0977355
0.108692
0.117482
0.121558
0.118365
0.103727
0.0575737
0.036219
0.0381601
0.0403214
0.0426351
0.0451704
0.0480129
0.0512801
0.0551207
0.05972
0.0653148
0.072202
0.0807133
0.0911028
0.10325
0.116174
0.127649
0.134383
0.132602
0.116405
0.0624236
0.0364727
0.0389534
0.0416483
0.0444768
0.047495
0.0507762
0.0544287
0.0585938
0.0634498
0.0692326
0.0762518
0.0848891
0.0955344
0.108333
0.122627
0.136269
0.145453
0.145222
0.12776
0.0665959
0.036719
0.0397446
0.0429799
0.0463392
0.0498676
0.0536252
0.0577104
0.0622545
0.0674253
0.0734518
0.0806463
0.0894155
0.100234
0.113449
0.128714
0.144086
0.155448
0.156762
0.138212
0.0703527
0.0369463
0.0404977
0.0442572
0.0481449
0.0521971
0.0564619
0.0610276
0.0660134
0.0715721
0.0779203
0.0853648
0.0943233
0.105323
0.118859
0.134861
0.151641
0.16492
0.167698
0.148146
0.0739592
0.0371439
0.0411776
0.0454231
0.0498169
0.0543915
0.0591859
0.064279
0.0697769
0.0758128
0.0825843
0.0903853
0.0996331
0.110886
0.12475
0.141389
0.159384
0.174391
0.178545
0.158006
0.0776517
0.0373025
0.0417527
0.0464242
0.0512821
0.0563616
0.0616968
0.0673607
0.0734464
0.0800643
0.0873859
0.0956844
0.105367
0.117006
0.13129
0.148582
0.167726
0.184378
0.189874
0.168327
0.0816076
0.0374149
0.0421965
0.0472153
0.0524764
0.0580253
0.0638983
0.0701681
0.0769181
0.0842349
0.0922588
0.101234
0.111546
0.123772
0.138658
0.156737
0.177107
0.195451
0.202333
0.179725
0.0861349
0.0374765
0.0424896
0.0477617
0.0533473
0.059311
0.0657003
0.0725962
0.0800801
0.0882181
0.0971176
0.106987
0.118185
0.131276
0.147052
0.166198
0.188056
0.208348
0.216832
0.193116
0.091716
0.0374855
0.0426206
0.048041
0.0538575
0.0601621
0.0670235
0.0745427
0.0828122
0.0918869
0.101846
0.112863
0.125262
0.139593
0.156683
0.177364
0.201231
0.224051
0.234664
0.209862
0.0991033
0.0374429
0.0425873
0.0480454
0.0539879
0.060541
0.0678043
0.0759131
0.084988
0.095091
0.106287
0.118724
0.132695
0.148742
0.167734
0.190671
0.217451
0.243929
0.257832
0.232268
0.109649
0.0373527
0.0423961
0.0477819
0.0537392
0.0604328
0.0680013
0.0766275
0.086481
0.0976571
0.110233
0.12435
0.140298
0.158627
0.180285
0.206511
0.237649
0.269826
0.289469
0.264421
0.126064
0.0372213
0.0420623
0.0472716
0.0531324
0.0598483
0.0676006
0.0766302
0.0871762
0.0993979
0.113421
0.129424
0.147727
0.168939
0.194159
0.225013
0.262609
0.303866
0.334108
0.313583
0.154382
0.0370572
0.0416082
0.046549
0.0522079
0.0588243
0.0666217
0.0759019
0.0869884
0.100135
0.115559
0.133527
0.154451
0.179069
0.208741
0.245702
0.292361
0.347548
0.396818
0.39093
0.208332
0.0368702
0.0410621
0.0456584
0.0510223
0.0574226
0.065119
0.0744689
0.0858832
0.0997308
0.116361
0.136182
0.159766
0.188058
0.222791
0.267035
0.325116
0.39931
0.477952
0.502884
0.305046
0.0491345
0.0322245
0.0350764
0.037828
0.0435023
0.0518184
0.0626559
0.0747267
0.0911209
0.126185
0.171041
0.201856
0.23026
0.256219
0.265388
0.321792
0.31431
0.280368
0.229886
0.192787
0.165013
0.141412
0.12421
0.113231
0.105298
0.0989418
0.0937009
0.0893033
0.0855405
0.0822616
0.0793393
0.0766866
0.074238
0.0719545
0.0698158
0.0678084
0.0659214
0.0641607
0.0625223
0.0609987
0.0595715
0.058217
0.0569414
0.0557539
0.0546602
0.0536691
0.0527322
0.0517987
0.0508991
0.0501416
0.0495437
0.0490692
0.0488891
0.0490658
0.0493603
0.0496339
0.0498281
0.0501022
0.0506413
0.0516057
0.0589045
0.492938
0.598087
0.630027
0.697789
0.804096
0.931794
1.08405
1.23472
1.51192
2.12425
2.6459
2.99488
3.2068
3.13792
2.76399
2.11177
1.68142
1.41803
1.25361
1.12587
1.00498
0.958898
0.937885
0.91574
0.892772
0.87079
0.849968
0.829858
0.810094
0.790384
0.770345
0.749838
0.72921
0.708953
0.689378
0.670808
0.653779
0.638898
0.626036
0.613995
0.602316
0.592887
0.585749
0.580675
0.578221
0.575266
0.567867
0.560077
0.561493
0.565428
0.56473
0.585346
0.623258
0.655785
0.682456
0.70172
0.717502
0.738828
0.769011
0.0650659
0.697589
0.928517
1.01198
1.10087
1.24025
1.41469
1.62082
1.86827
2.28099
2.88456
3.60826
4.16851
4.26186
3.69133
2.98177
2.47437
2.12992
1.89731
1.74047
1.62518
1.52988
1.46132
1.4187
1.38831
1.36421
1.34377
1.32522
1.30729
1.28911
1.27015
1.25005
1.22874
1.20657
1.18412
1.16198
1.14073
1.12113
1.10393
1.0893
1.07648
1.06509
1.05631
1.05084
1.04891
1.05075
1.05371
1.05475
1.05858
1.0717
1.08595
1.10079
1.14226
1.20655
1.26958
1.32797
1.37667
1.42241
1.47953
1.55223
0.0697841
0.807882
1.11126
1.23982
1.34823
1.49602
1.6769
1.88541
2.16354
2.64832
3.27173
3.98653
4.32705
3.85415
3.32084
2.87287
2.52183
2.26992
2.09509
1.97507
1.888
1.8173
1.761
1.72051
1.69247
1.67273
1.65804
1.64604
1.63504
1.62386
1.61167
1.59788
1.58229
1.56516
1.547
1.52843
1.51014
1.49303
1.47805
1.46563
1.4556
1.44797
1.44372
1.44379
1.44884
1.45898
1.47211
1.48698
1.50799
1.53659
1.5666
1.60325
1.66549
1.74731
1.83182
1.91226
1.9826
2.05141
2.13473
2.23578
0.0738669
0.880011
1.22596
1.38337
1.50928
1.66116
1.83789
2.03865
2.31806
2.79852
3.43526
3.99229
3.62169
3.23011
2.87699
2.58764
2.36864
2.21621
2.11761
2.05605
2.01458
1.98075
1.95273
1.93289
1.92085
1.91501
1.91344
1.91415
1.91554
1.91636
1.91552
1.91215
1.90594
1.89718
1.88638
1.87405
1.86083
1.84782
1.83633
1.82723
1.82095
1.8181
1.81989
1.82745
1.8416
1.86234
1.88822
1.91899
1.95716
2.00177
2.04943
2.10764
2.18569
2.27867
2.37565
2.46791
2.55093
2.63452
2.73097
2.8418
0.0782273
0.932586
1.30709
1.48172
1.62414
1.78831
1.97541
2.19031
2.4912
2.9329
3.58847
3.50253
2.98497
2.64163
2.39825
2.23014
2.12828
2.08136
2.07334
2.08595
2.10346
2.11722
2.12804
2.13968
2.15384
2.17036
2.18853
2.20672
2.22357
2.23815
2.24949
2.25662
2.25949
2.25896
2.25557
2.24936
2.24066
2.23097
2.22225
2.21574
2.21252
2.21398
2.22176
2.23705
2.26054
2.29203
2.33038
2.37538
2.42772
2.48578
2.54854
2.62145
2.70846
2.80603
2.90648
3.00251
3.09174
3.18222
3.28271
3.39172
0.0837888
0.981814
1.37436
1.55959
1.71995
1.90934
2.12992
2.38618
2.741
3.24715
3.83249
3.03064
2.54645
2.24601
2.06515
1.97939
1.97259
2.02227
2.10045
2.18252
2.25347
2.31105
2.36021
2.40595
2.44918
2.48914
2.52578
2.5586
2.58717
2.61174
2.63213
2.64712
2.657
2.66382
2.66749
2.66706
2.66214
2.65532
2.64922
2.64484
2.64413
2.64922
2.6622
2.68421
2.7155
2.75558
2.80329
2.85801
2.91938
2.98581
3.05724
3.137
3.22645
3.32266
3.42049
3.51507
3.60558
3.69748
3.79663
3.89944
0.0904555
1.0468
1.44218
1.6338
1.81328
2.03671
2.30815
2.63136
3.05084
3.74839
3.35662
2.67777
2.27377
2.02696
1.90691
1.90364
1.99122
2.12612
2.26592
2.38787
2.48428
2.5636
2.63578
2.7061
2.77092
2.82822
2.87817
2.92162
2.95967
2.9941
3.0258
3.05341
3.07465
3.09113
3.1037
3.11141
3.11199
3.11023
3.10916
3.10752
3.11009
3.11869
3.1361
3.16319
3.19966
3.24471
3.29726
3.35628
3.4212
3.49061
3.56459
3.64524
3.73267
3.82428
3.91685
4.00755
4.09638
4.18691
4.28268
4.37873
0.0972814
1.13379
1.52014
1.71624
1.91326
2.16923
2.49076
2.88625
3.41988
3.96968
3.04654
2.47388
2.11148
1.91063
1.87248
1.97596
2.15695
2.34707
2.50487
2.61748
2.70755
2.78014
2.85303
2.9264
2.99955
3.06966
3.13507
3.19508
3.25038
3.30336
3.35602
3.40755
3.45195
3.48816
3.51877
3.54541
3.56734
3.58118
3.5911
3.59725
3.60547
3.61642
3.6369
3.66581
3.70399
3.74963
3.80263
3.86109
3.92527
3.99392
4.0666
4.14484
4.22829
4.31449
4.40136
4.48736
4.57317
4.66129
4.75337
4.84355
0.103632
1.22956
1.61162
1.81688
2.02838
2.30553
2.6592
3.10616
3.74193
3.54108
2.82494
2.30174
1.96845
1.847
1.93368
2.15008
2.38777
2.57233
2.70105
2.78686
2.85261
2.90818
2.97376
3.04637
3.12332
3.20352
3.28525
3.36653
3.44646
3.52513
3.6029
3.67706
3.74142
3.79962
3.85544
3.90864
3.9544
3.99176
4.03036
4.06539
4.09753
4.13059
4.16219
4.19364
4.22983
4.27029
4.32005
4.3734
4.43381
4.49952
4.56898
4.64303
4.72172
4.80274
4.88423
4.96484
5.04659
5.13194
5.22056
5.30578
0.109449
1.31996
1.71639
1.94759
2.17547
2.45695
2.82239
3.28412
3.88418
3.21043
2.55829
2.076
1.82768
1.85138
2.08012
2.36674
2.59335
2.73744
2.82417
2.87011
2.90248
2.93616
2.988
3.05952
3.14478
3.24032
3.34334
3.45062
3.55934
3.66753
3.77327
3.87225
3.95968
4.04033
4.12005
4.1974
4.26569
4.32664
4.39108
4.45172
4.51201
4.5736
4.63476
4.69401
4.74863
4.80164
4.85303
4.90207
4.95699
5.0177
5.0828
5.15076
5.22341
5.2994
5.37614
5.44934
5.52526
5.60779
5.69312
5.77338
0.114835
1.40113
1.83076
2.11959
2.38369
2.65449
3.01224
3.4699
3.57552
2.85813
2.24966
1.85157
1.75427
1.95252
2.2746
2.56114
2.7365
2.82295
2.85629
2.85691
2.85149
2.86053
2.8995
2.97238
3.07221
3.19117
3.32272
3.46111
3.60158
3.74044
3.87443
3.9992
4.11167
4.21594
4.31745
4.41585
4.50551
4.58866
4.67366
4.7561
4.83901
4.92266
5.00606
5.08593
5.16372
5.2353
5.30763
5.37466
5.44053
5.5069
5.57776
5.65452
5.72496
5.79374
5.85704
5.92133
5.98689
6.05597
6.12674
6.19191
0.120042
1.47464
1.94233
2.32444
2.6834
2.96399
3.28433
3.71136
3.23832
2.51755
1.97016
1.70073
1.79214
2.1195
2.46949
2.69737
2.79935
2.82199
2.79567
2.74622
2.70133
2.68612
2.71758
2.79923
2.92137
3.07076
3.23588
3.40797
3.58063
3.7493
3.91032
4.06007
4.19694
4.32449
4.44679
4.56386
4.67275
4.77536
4.87743
4.97746
5.07738
5.17701
5.27481
5.36875
5.46025
5.54539
5.63046
5.70766
5.78368
5.86244
5.94213
6.01536
6.08143
6.14505
6.20672
6.25826
6.30953
6.36656
6.42332
6.47681
0.125595
1.54429
2.03882
2.53816
3.09169
3.47994
3.73292
3.78716
2.91509
2.21949
1.76168
1.65811
1.91619
2.29341
2.61739
2.75452
2.77773
2.73328
2.64656
2.5447
2.46031
2.42509
2.45816
2.5586
2.70983
2.89238
3.09096
3.29494
3.49725
3.69309
3.87891
4.05198
4.21164
4.36085
4.50283
4.63751
4.76326
4.88241
4.9988
5.11259
5.22493
5.3354
5.44241
5.54511
5.64428
5.73784
5.82905
5.91255
5.99336
6.07621
6.15492
6.21985
6.2787
6.34043
6.39928
6.44348
6.48621
6.53546
6.58525
6.63466
0.131229
1.61513
2.12354
2.74881
3.6185
4.22056
4.37719
3.54723
2.62847
1.9921
1.6446
1.71237
2.05543
2.4518
2.68742
2.73521
2.68121
2.56731
2.41821
2.26298
2.14187
2.0952
2.14118
2.26786
2.44888
2.6609
2.88778
3.11881
3.34673
3.56663
3.77501
3.9697
4.15054
4.31974
4.47964
4.63046
4.77167
4.90496
5.03331
5.15774
5.27893
5.39649
5.50921
5.61689
5.71999
5.81769
5.91115
5.99722
6.07888
6.15929
6.23196
6.29064
6.3452
6.40363
6.45731
6.49797
6.53703
6.58155
6.62852
6.67675
0.135953
1.69372
2.21403
2.93854
4.23717
4.79145
4.5726
3.29279
2.4422
1.84661
1.6043
1.79962
2.17847
2.56067
2.68765
2.65032
2.52045
2.33615
2.12274
1.91451
1.76317
1.71698
1.78395
1.93525
2.13872
2.37219
2.6208
2.87387
3.12372
3.36496
3.59395
3.8087
4.00909
4.19657
4.37269
4.53792
4.69255
4.83812
4.97671
5.10942
5.23696
5.35917
5.47537
5.58566
5.69039
5.78936
5.88272
5.96867
6.04879
6.12446
6.19097
6.24608
6.29837
6.35254
6.40111
6.44013
6.4782
6.52082
6.56749
6.61577
0.138697
1.7727
2.34845
3.07822
4.17648
4.6755
4.22012
3.18138
2.32385
1.72051
1.59327
1.86997
2.30366
2.60039
2.63145
2.51167
2.3064
2.0509
1.77262
1.51476
1.34425
1.30958
1.39513
1.5601
1.77578
2.02322
2.28792
2.55856
2.82677
3.08652
3.33386
3.56667
3.78453
3.9882
4.17868
4.3566
4.5227
4.67846
4.8255
4.9649
5.09733
5.22287
5.34137
5.45306
5.55827
5.65703
5.74918
5.83375
5.91157
5.98299
6.0454
6.09905
6.15
6.20032
6.24529
6.28415
6.32313
6.36655
6.41505
6.46456
0.139002
1.81397
2.48911
3.11986
3.9919
4.53623
4.11126
3.03568
2.12546
1.56449
1.58586
1.93863
2.41077
2.58769
2.52762
2.32884
2.04888
1.72211
1.38084
1.08194
0.908543
0.889787
0.982535
1.14962
1.36846
1.62197
1.89563
2.17773
2.45918
2.73325
2.99548
3.24331
3.4758
3.69309
3.89577
4.08452
4.2603
4.42447
4.57841
4.72318
4.85955
4.98784
5.10821
5.22094
5.32636
5.42462
5.51556
5.59881
5.67488
5.74383
5.80459
5.85833
5.90881
5.95692
6.00072
6.04134
6.08347
6.13054
6.18316
6.23532
0.138333
1.80983
2.50636
3.12141
3.84239
4.36665
3.77413
2.71996
1.84229
1.41616
1.58876
2.032
2.46398
2.53163
2.38401
2.10898
1.75589
1.3598
0.961915
0.641123
0.490272
0.488731
0.579623
0.735836
0.942375
1.18713
1.45696
1.74023
2.02691
2.30896
2.58102
2.83963
3.08314
3.31102
3.52349
3.72113
3.90489
4.076
4.2357
4.38506
4.5249
4.65578
4.77801
4.89194
4.9979
5.09612
5.18663
5.26954
5.34529
5.41393
5.47528
5.53057
5.5821
5.63072
5.67653
5.72167
5.76986
5.82373
5.88293
5.93916
0.13873
1.79656
2.45556
3.00056
3.60825
4.13945
3.37058
2.37868
1.56327
1.31703
1.61402
2.15122
2.47236
2.43767
2.20752
1.8585
1.43457
0.974006
0.535962
0.246133
0.165616
0.184172
0.254716
0.372733
0.538239
0.747677
0.99183
1.25944
1.53899
1.81953
2.09434
2.35812
2.60824
2.84328
3.06289
3.2674
3.45755
3.63441
3.79908
3.95263
4.09591
4.22957
4.35406
4.46978
4.5771
4.67634
4.76781
4.85187
4.92905
4.99953
5.06356
5.12223
5.17725
5.22988
5.28153
5.33475
5.39252
5.45645
5.52457
5.58603
0.139911
1.79521
2.43293
2.94045
3.539
4.05214
3.04887
2.06254
1.32096
1.26682
1.6664
2.23961
2.44341
2.31292
2.00353
1.58263
1.0912
0.57771
0.161081
0.0399696
0.0339289
0.0434144
0.069327
0.12304
0.21647
0.356595
0.542502
0.766256
1.01583
1.2785
1.54405
1.80461
2.05549
2.29327
2.5169
2.72603
2.92101
3.10258
3.27169
3.42929
3.57623
3.71317
3.84064
3.95912
4.06901
4.17081
4.26501
4.35218
4.43286
4.50743
4.57642
4.64096
4.70269
4.7634
4.82517
4.8905
4.96151
5.03846
5.11736
5.18472
0.141564
1.79667
2.42741
2.93499
3.57019
3.93645
2.77825
1.76848
1.12524
1.25089
1.74021
2.30672
2.37652
2.16051
1.77605
1.28561
0.735672
0.219063
0.0209647
0.0284076
0.0272611
0.0225498
0.0199892
0.0251791
0.0461687
0.0961042
0.188
0.327445
0.510069
0.724556
0.957849
1.19844
1.43784
1.67039
1.89268
2.10314
2.30076
2.48581
2.65876
2.82036
2.9713
3.11222
3.24367
3.36614
3.4802
3.58638
3.68537
3.77781
3.86434
3.94554
4.0223
4.09595
4.16839
4.24172
4.3182
4.39984
4.48759
4.57992
4.67055
4.7436
0.143052
1.78251
2.39183
2.87639
3.5081
3.70602
2.48774
1.48503
0.983307
1.25905
1.82803
2.31641
2.28699
1.98681
1.52904
0.974685
0.401658
0.0290397
0.0499506
0.0613352
0.0617604
0.0585162
0.0507755
0.0370678
0.0227009
0.0181196
0.0283939
0.0627709
0.1345
0.250168
0.405957
0.591172
0.793604
1.00278
1.21122
1.41417
1.60881
1.79392
1.96885
2.13384
2.28886
2.43434
2.57084
2.69872
2.81868
2.93127
3.03725
3.13733
3.23233
3.32317
3.41111
3.49785
3.58548
3.67621
3.77199
3.87386
3.98116
4.09024
4.19244
4.27024
0.14263
1.74451
2.32574
2.78238
3.3658
3.2981
2.19523
1.22557
0.895188
1.28506
1.92506
2.29006
2.16881
1.79477
1.26676
0.671493
0.141374
0.0252838
0.0604005
0.0617476
0.0615022
0.0614097
0.0613527
0.0606681
0.0585091
0.0533934
0.0410901
0.0236655
0.0168603
0.0270594
0.0611936
0.129418
0.235063
0.372605
0.532015
0.703305
0.878618
1.05273
1.22251
1.38619
1.54271
1.69175
1.83331
1.96749
2.09495
2.21575
2.33098
2.44128
2.54779
2.6518
2.75496
2.85929
2.96695
3.07987
3.19916
3.32442
3.45291
3.57857
3.69073
3.77154
0.138735
1.68641
2.25338
2.72729
3.36874
2.99928
1.92053
1.0024
0.850699
1.3221
1.99924
2.24628
2.0329
1.58916
1.00492
0.398463
0.0250844
0.0494019
0.0570679
0.0566921
0.0563919
0.0562759
0.0562413
0.0561445
0.0560087
0.0558797
0.0555188
0.0547337
0.0529258
0.0477301
0.0351375
0.0200737
0.016689
0.0299534
0.0663146
0.132334
0.227758
0.346569
0.480703
0.622894
0.767809
0.912049
1.05361
1.19142
1.32509
1.45455
1.58043
1.70332
1.82478
1.94591
2.06892
2.19574
2.32835
2.46782
2.61388
2.76411
2.91338
3.05337
3.17209
3.25297
0.130416
1.61279
2.18235
2.62747
3.31779
2.73516
1.64581
0.819061
0.835608
1.36385
2.03069
2.18171
1.88478
1.37659
0.756225
0.186604
0.0127063
0.0526194
0.0530668
0.0523816
0.0520358
0.0519378
0.0519436
0.0519459
0.0519175
0.0519029
0.0518252
0.0516723
0.05134
0.0507963
0.0501641
0.0494589
0.0484423
0.046383
0.0410851
0.0297078
0.0182919
0.0170187
0.029845
0.0625103
0.120727
0.204602
0.308718
0.42608
0.551363
0.681254
0.813945
0.948813
1.08639
1.22775
1.37458
1.52823
1.68992
1.85862
2.03231
2.20606
2.37268
2.52194
2.64129
2.71669
0.119166
1.52743
2.10456
2.52979
3.06113
2.46383
1.39106
0.681454
0.83755
1.40591
2.06136
2.08487
1.71277
1.15818
0.529876
0.0621535
0.0309914
0.0505882
0.0499842
0.04931
0.0489044
0.0487788
0.0487728
0.0487496
0.0487314
0.0487717
0.0487769
0.0487088
0.0484794
0.0481215
0.0477429
0.0473313
0.0468873
0.0464432
0.0459885
0.045514
0.0450531
0.044562
0.043791
0.0420731
0.0374394
0.0279791
0.0190049
0.0193334
0.034834
0.0749679
0.149437
0.25831
0.39283
0.545591
0.712703
0.891752
1.08046
1.27553
1.47216
1.66329
1.83998
1.99027
2.10067
2.15753
0.118996
1.4381
1.99268
2.36271
2.85501
2.19533
1.16955
0.586825
0.847709
1.44433
2.07835
1.96622
1.52021
0.934523
0.333592
0.016206
0.0444165
0.0485588
0.0476456
0.0470239
0.0466016
0.0464265
0.0463645
0.0463044
0.0462831
0.0463259
0.0463537
0.0463402
0.0461957
0.0459517
0.0456972
0.0454022
0.0450721
0.0447508
0.044418
0.0440498
0.0436986
0.0434104
0.0431677
0.0429509
0.0427588
0.0425999
0.0424742
0.042319
0.0419103
0.0404078
0.0347342
0.0241767
0.028361
0.0749908
0.186648
0.351018
0.543712
0.748424
0.953832
1.14975
1.32491
1.4654
1.55331
1.56148
0.125967
1.41683
1.88244
2.20243
2.66199
1.95252
0.975476
0.528325
0.861238
1.47542
2.05424
1.8453
1.32883
0.71604
0.177992
0.00904204
0.0470104
0.0470019
0.0460005
0.0453044
0.0448685
0.044656
0.0445437
0.0444472
0.0444071
0.0444259
0.0444526
0.0444594
0.044355
0.0441829
0.0440152
0.0438057
0.0435601
0.0433248
0.0430769
0.0427869
0.042501
0.0422634
0.042054
0.0418566
0.0416805
0.0415393
0.0414399
0.0413762
0.0413565
0.0413958
0.0414658
0.041396
0.0402075
0.0339639
0.0263214
0.0542141
0.15527
0.316849
0.501207
0.682622
0.842532
0.962146
1.01613
0.955942
0.137823
1.40947
1.83208
2.13017
2.49188
1.71811
0.801631
0.499955
0.876088
1.49914
1.9826
1.73084
1.15457
0.518624
0.074895
0.0198767
0.0468043
0.0457933
0.0447976
0.0440341
0.0435577
0.0433064
0.0431493
0.0430223
0.0429617
0.0429552
0.0429709
0.0429778
0.0428922
0.0427641
0.0426472
0.0424905
0.0423034
0.0421308
0.0419483
0.0417212
0.041489
0.0412947
0.0411186
0.0409467
0.0407892
0.0406571
0.0405568
0.040488
0.0404574
0.0404786
0.0405659
0.0407498
0.0410326
0.0412317
0.0401697
0.0336996
0.0290463
0.0632943
0.159558
0.290302
0.416168
0.50621
0.527866
0.428726
0.163382
1.46211
1.85501
2.17133
2.41858
1.48598
0.646869
0.497016
0.891746
1.51911
1.89867
1.60151
0.991216
0.352704
0.0243543
0.0355249
0.0460581
0.0447532
0.043804
0.0430507
0.0425504
0.0422621
0.0420678
0.0419169
0.0418336
0.0418035
0.0418063
0.0418035
0.0417304
0.041637
0.0415521
0.041429
0.0412835
0.0411534
0.0410153
0.0408348
0.0406433
0.0404822
0.0403351
0.0401872
0.0400482
0.039928
0.0398333
0.039765
0.0397262
0.0397273
0.0397864
0.0399294
0.040185
0.0406002
0.0411997
0.0417748
0.0410206
0.0353967
0.0320295
0.0546366
0.103448
0.147116
0.148237
0.0826879
0.197249
1.59823
1.93802
2.24872
2.34046
1.25011
0.519231
0.513322
0.908347
1.54386
1.80988
1.44312
0.822449
0.219298
0.00870345
0.0430924
0.045101
0.0438924
0.0429894
0.0422652
0.0417606
0.0414427
0.041221
0.041053
0.0409482
0.0408948
0.0408793
0.0408605
0.0407965
0.0407295
0.0406661
0.0405691
0.0404563
0.0403556
0.0402479
0.040103
0.0399434
0.0398064
0.0396808
0.0395534
0.0394314
0.0393231
0.0392358
0.0391708
0.039129
0.0391199
0.0391593
0.0392626
0.0394554
0.0397809
0.0402865
0.0410334
0.0420598
0.0432444
0.0439851
0.0428942
0.0397267
0.0374115
0.0367438
0.0386245
0.24971
1.81855
2.16634
2.46651
2.13164
0.994367
0.427819
0.540311
0.926271
1.57032
1.70429
1.26862
0.64761
0.117883
0.00998718
0.0444064
0.0441033
0.0431514
0.0423147
0.0416158
0.0411114
0.0407737
0.0405383
0.040363
0.040243
0.0401732
0.0401402
0.0401056
0.0400498
0.0399989
0.0399435
0.0398623
0.0397719
0.0396905
0.0396053
0.0394898
0.0393564
0.0392379
0.0391303
0.0390216
0.0389149
0.0388178
0.0387388
0.0386785
0.0386369
0.0386239
0.0386495
0.0387241
0.0388705
0.0391164
0.0394969
0.0400623
0.040856
0.0419245
0.0432603
0.044696
0.0458633
0.0462209
0.0450943
0.0417161
0.336646
2.11067
2.52012
2.81494
1.74973
0.72809
0.380413
0.570318
0.946979
1.57546
1.59064
1.10261
0.482835
0.0515034
0.022762
0.0442842
0.0432611
0.0424343
0.0416748
0.0410227
0.0405312
0.0401852
0.0399466
0.0397728
0.0396472
0.0395707
0.0395274
0.0394845
0.0394406
0.0394046
0.039356
0.0392871
0.0392124
0.039143
0.0390722
0.0389779
0.0388632
0.0387576
0.0386647
0.0385724
0.0384797
0.0383936
0.038323
0.0382678
0.0382285
0.0382135
0.0382288
0.0382838
0.0383946
0.0385794
0.0388667
0.0392846
0.0398629
0.0406349
0.0415959
0.0426613
0.0435814
0.0438852
0.0429497
0.0402499
0.323999
2.26368
2.73197
2.69761
1.27263
0.514191
0.378224
0.599338
0.973639
1.53867
1.46862
0.943962
0.338039
0.018255
0.0357798
0.0435339
0.0425405
0.0418159
0.0411027
0.0404871
0.040009
0.0396567
0.0394148
0.0392416
0.0391132
0.0390324
0.0389809
0.0389349
0.0389015
0.0388792
0.0388446
0.0387952
0.038741
0.0386865
0.0386286
0.0385511
0.0384531
0.0383588
0.0382758
0.0381954
0.0381145
0.038038
0.0379741
0.0379233
0.0378864
0.0378697
0.0378779
0.0379176
0.0379996
0.038139
0.0383535
0.0386605
0.0390812
0.0396314
0.0403116
0.0410743
0.0417515
0.0419968
0.0413018
0.0392164
0.284141
2.21659
2.71984
1.91986
0.863463
0.373248
0.405253
0.628856
1.00953
1.51284
1.31056
0.767549
0.208866
0.00741376
0.0412854
0.0427172
0.0419671
0.0413285
0.0406373
0.0400426
0.0395746
0.0392176
0.0389682
0.0387889
0.0386551
0.0385671
0.0385058
0.0384551
0.0384228
0.0384014
0.0383725
0.0383362
0.0382988
0.0382599
0.0382165
0.0381584
0.0380829
0.0380064
0.0379371
0.0378697
0.0378007
0.0377338
0.0376766
0.0376304
0.0375954
0.0375772
0.0375799
0.037607
0.0376664
0.0377693
0.0379271
0.0381518
0.0384534
0.038841
0.0393186
0.0398593
0.0403619
0.0405808
0.0400952
0.0384746
0.255211
1.96018
2.03357
1.11674
0.468646
0.301384
0.450303
0.662051
1.05514
1.45323
1.13673
0.581927
0.103559
0.0100554
0.0424563
0.0421643
0.0414622
0.040833
0.0401807
0.0396301
0.0391898
0.0388453
0.0385985
0.0384177
0.0382825
0.0381901
0.0381227
0.03807
0.0380367
0.0380118
0.0379797
0.0379431
0.0379078
0.0378729
0.0378359
0.0377906
0.0377338
0.0376745
0.0376194
0.0375663
0.0375118
0.0374575
0.0374096
0.03737
0.0373386
0.0373205
0.0373195
0.0373368
0.0373782
0.0374521
0.0375667
0.037728
0.0379413
0.0382124
0.0385429
0.038919
0.0392858
0.0394824
0.0391697
0.0379135
0.243019
1.54473
1.10735
0.50827
0.265404
0.324749
0.501338
0.701762
1.10484
1.3382
0.964782
0.405122
0.0383995
0.0215231
0.0424694
0.0417206
0.0409811
0.0403311
0.0397069
0.0391939
0.0387857
0.038466
0.0382326
0.0380592
0.0379306
0.0378407
0.0377739
0.0377242
0.0376941
0.0376736
0.0376487
0.0376195
0.0375905
0.0375601
0.0375267
0.0374881
0.0374423
0.037393
0.0373453
0.0372998
0.0372544
0.0372096
0.0371693
0.037135
0.0371069
0.0370892
0.037085
0.0370947
0.037122
0.037173
0.0372528
0.0373652
0.0375129
0.037698
0.037921
0.0381762
0.0384389
0.0386145
0.038442
0.0374823
0.310023
0.925164
0.416609
0.223444
0.253178
0.4162
0.543253
0.750425
1.17526
1.19781
0.762862
0.240269
0.0114859
0.0294553
0.0423029
0.0414166
0.0406088
0.0399259
0.0393237
0.0388303
0.0384338
0.0381232
0.0378925
0.0377201
0.0375937
0.0375043
0.0374381
0.0373903
0.0373601
0.0373409
0.0373238
0.0373048
0.037285
0.0372637
0.0372389
0.0372097
0.0371756
0.0371378
0.0370991
0.0370609
0.0370227
0.0369853
0.0369509
0.0369207
0.0368951
0.0368772
0.0368691
0.0368714
0.0368868
0.036919
0.0369713
0.037046
0.0371442
0.0372666
0.0374132
0.0375819
0.0377648
0.0379159
0.0378504
0.0371357
0.202695
0.222739
0.185958
0.259953
0.401057
0.490529
0.578497
0.811667
1.17132
1.04607
0.557668
0.115432
0.0057961
0.0341087
0.0421812
0.0411383
0.0402472
0.0395424
0.0389619
0.0384935
0.0381195
0.0378271
0.0376063
0.0374405
0.0373189
0.0372327
0.0371706
0.0371268
0.0370985
0.0370796
0.037064
0.037049
0.0370331
0.0370155
0.0369956
0.0369725
0.0369458
0.0369159
0.0368842
0.0368518
0.0368193
0.0367874
0.0367574
0.03673
0.0367061
0.0366876
0.0366758
0.0366716
0.0366768
0.0366935
0.0367238
0.0367688
0.0368293
0.0369054
0.0369965
0.0371021
0.037223
0.0373467
0.0373588
0.0368507
0.0366705
0.0404548
0.0446507
0.0496438
0.0557247
0.0631796
0.0724077
0.0838952
0.098128
0.11561
0.136934
0.162886
0.194675
0.234447
0.286151
0.356204
0.450939
0.562361
0.626178
0.463161
0.0364617
0.0398113
0.0435663
0.0481269
0.0537974
0.0608803
0.0697975
0.0810849
0.0953254
0.113173
0.135423
0.163097
0.197677
0.241641
0.299503
0.378893
0.488113
0.619524
0.705438
0.590967
0.0362507
0.0391432
0.0424279
0.0465074
0.0516912
0.0582872
0.0667196
0.0775376
0.0913773
0.109005
0.13139
0.159778
0.195869
0.24229
0.303532
0.386849
0.499372
0.632584
0.731224
0.65493
0.0360454
0.0384768
0.0412806
0.0448504
0.0494928
0.0555136
0.0633218
0.0734419
0.0865018
0.103304
0.124915
0.152726
0.188568
0.235019
0.296056
0.377516
0.484419
0.609697
0.714213
0.719407
0.0358529
0.0378373
0.0401697
0.043224
0.0472967
0.0526853
0.0597738
0.0690355
0.0810322
0.0965084
0.116505
0.14243
0.176117
0.219973
0.277296
0.352395
0.448606
0.561237
0.667289
0.725949
0.0356789
0.0372461
0.0391345
0.0416903
0.0451935
0.0499278
0.0562487
0.0645691
0.0753527
0.0892077
0.107019
0.130045
0.159962
0.19891
0.249565
0.315043
0.397649
0.495023
0.595314
0.676562
0.0355275
0.0367196
0.038206
0.0402999
0.0432601
0.0473524
0.0529028
0.0602691
0.069818
0.0819944
0.0974408
0.117113
0.142352
0.174899
0.216865
0.270552
0.337728
0.41773
0.505054
0.588799
0.0354011
0.0362686
0.0374045
0.0390874
0.0415533
0.0450466
0.049862
0.0563123
0.064693
0.0753149
0.0885802
0.10508
0.125686
0.151593
0.184292
0.225434
0.276428
0.337563
0.406822
0.479396
0.0353009
0.0358983
0.0367391
0.0380697
0.0401054
0.043067
0.0472148
0.0528214
0.0601393
0.069405
0.0808645
0.0948185
0.111685
0.132052
0.156704
0.186586
0.222647
0.265471
0.314721
0.368712
0.035227
0.0356085
0.0362075
0.0372461
0.0389237
0.0414375
0.04501
0.0498723
0.0562446
0.064338
0.0743494
0.0864562
0.100813
0.117548
0.136799
0.158789
0.183872
0.212461
0.24477
0.280413
0.0351785
0.0353913
0.0357946
0.0366027
0.0379977
0.0401501
0.0432461
0.0474699
0.0530077
0.060055
0.0688138
0.0794846
0.0921986
0.106856
0.123114
0.140591
0.15909
0.178621
0.19868
0.215088
0.0350658
0.0351974
0.035355
0.0358114
0.0367082
0.0381872
0.0403874
0.0434277
0.047431
0.0524935
0.0586792
0.0660753
0.0742493
0.0819544
0.0879266
0.0890513
0.0830981
0.0692191
0.0533873
0.0435403
0.0132875
0.0213826
0.0163565
0.0141059
0.0130147
0.0124455
0.0120504
0.0115026
0.0106295
0.00944263
0.00845464
0.00889928
0.0113256
0.0158187
0.0224817
0.0313665
0.0430118
0.059143
0.0781775
0.10137
0.0113983
0.0113749
0.0142346
0.016563
0.0190107
0.0219107
0.0256786
0.0307276
0.0375111
0.0468357
0.0561406
0.0644779
0.0727477
0.0860882
0.103441
0.127457
0.157974
0.182474
0.198316
0.242714
0.00766467
0.0102679
0.0114118
0.0150353
0.0201873
0.0263574
0.0330699
0.0395552
0.044594
0.0474245
0.0509631
0.0931057
0.0979298
0.0992247
0.0980451
0.0957403
0.0889643
0.0682267
0.0668128
0.0913892
0.0119789
0.0150761
0.0172735
0.0199783
0.0168973
0.0132017
0.0105459
0.00883827
0.00780117
0.00740738
0.00784292
0.00803959
0.0146762
0.0193098
0.0205565
0.0191043
0.0156698
0.0124965
0.0109758
0.00886403
0.0133341
0.0158037
0.017329
0.0286425
0.0337864
0.0345374
0.0342887
0.0339099
0.0335529
0.0336683
0.0352762
0.0318657
0.0260983
0.0227676
0.0234312
0.0264404
0.0311496
0.0363728
0.0388656
0.0414925
0.0151598
0.0165507
0.0174111
0.0286138
0.0342925
0.0355161
0.0357979
0.0359587
0.0360868
0.036299
0.0367286
0.0372789
0.0380804
0.0390448
0.0403306
0.0419398
0.0434112
0.0440198
0.043526
0.0436192
0.0158389
0.0173395
0.0185555
0.0294429
0.0343456
0.0352684
0.0355127
0.0357201
0.0359251
0.0361326
0.0364139
0.0369098
0.037664
0.0385846
0.0396131
0.0406012
0.0413315
0.0416631
0.0417112
0.0418289
0.0163146
0.0179921
0.0204698
0.0309893
0.0346753
0.0351987
0.0353554
0.0355349
0.035738
0.0359619
0.0362362
0.0366196
0.0371391
0.0377639
0.0384478
0.0391081
0.0396474
0.0400145
0.0402486
0.0404402
0.0163034
0.0184717
0.023334
0.0328343
0.0350231
0.035213
0.0352966
0.0354287
0.035593
0.0357856
0.0360196
0.0363169
0.0366904
0.0371299
0.0376055
0.0380715
0.0384802
0.0388039
0.0390487
0.0392402
0.0148532
0.0189549
0.0272277
0.0343817
0.0352314
0.035233
0.0352687
0.0353533
0.0354688
0.0356118
0.0357881
0.0360063
0.0362709
0.0365762
0.0369046
0.0372301
0.0375263
0.0377759
0.0379759
0.0381335
0.0149049
0.0204422
0.0317063
0.0352198
0.0352841
0.035229
0.0352378
0.0352829
0.035352
0.035443
0.0355579
0.0356999
0.0358702
0.0360645
0.0362726
0.0364799
0.0366717
0.0368376
0.0369741
0.0370825
0.0174303
0.0259664
0.0348956
0.0353428
0.0352338
0.0351959
0.0351947
0.0352118
0.0352419
0.0352839
0.0353386
0.0354068