/*--------------------------------*- C++ -*----------------------------------*\
| =========                 |                                                 |
| \\      /  F ield         | OpenFOAM: The Open Source CFD Toolbox           |
|  \\    /   O peration     | Version:  v1912                                 |
|   \\  /    A nd           | Website:  www.openfoam.com                      |
|    \\/     M anipulation  |                                                 |
\*---------------------------------------------------------------------------*/
FoamFile
{
    version     2.0;
    format      ascii;
    class       volScalarField;
    location    "52";
    object      p;
}
// * * * * * * * * * * * * * * * * * * * * * * * * * * * * * * * * * * * * * //

dimensions      [1 -1 -2 0 0 0 0];


internalField   nonuniform List<scalar> 
20320
(
418732
428986
429012
429063
429135
429223
429325
429440
429563
429694
429827
429961
430092
430216
430332
430435
430525
430599
430654
430687
398809
408721
408756
408810
408882
408971
409074
409189
409313
409444
409578
409712
409842
409967
410082
410184
410271
410341
410391
410422
379485
389085
389121
389175
389248
389337
389440
389555
389680
389810
389943
390076
390206
390329
390443
390544
390630
390699
390749
390781
360759
370061
370096
370150
370222
370310
370413
370527
370650
370780
370912
371044
371172
371293
371404
371504
371589
371657
371708
371743
342621
351631
351665
351718
351789
351876
351977
352090
352211
352339
352469
352599
352725
352843
352952
353049
353133
353200
353252
353290
325057
333782
333815
333866
333935
334020
334119
334229
334348
334472
334600
334726
334849
334965
335071
335165
335246
335312
335363
335404
308054
316498
316530
316580
316646
316728
316823
316929
317044
317164
317287
317410
317528
317640
317742
317832
317909
317972
318023
318065
291599
299770
299800
299847
299910
299987
300077
300178
300287
300401
300517
300633
300746
300851
300947
301032
301104
301163
301211
301255
275681
283584
283612
283655
283714
283785
283868
283961
284061
284166
284274
284380
284483
284579
284667
284743
284807
284860
284905
284947
260288
267929
267954
267993
268045
268109
268183
268265
268354
268447
268541
268634
268723
268806
268879
268943
268995
269039
269078
269118
245410
252793
252815
252848
252892
252946
253009
253078
253151
253228
253304
253377
253446
253508
253562
253606
253641
253670
253699
253731
231038
238168
238185
238211
238246
238288
238336
238388
238442
238496
238548
238595
238636
238668
238691
238706
238714
238720
238732
238752
217159
224042
224054
224072
224096
224124
224154
224185
224215
224241
224260
224271
224272
224262
224241
224211
224177
224147
224132
224129
203766
210404
210410
210419
210430
210442
210452
210458
210458
210449
210427
210391
210338
210268
210183
210086
209985
209896
209836
209794
190847
197247
197247
197246
197243
197237
197224
197201
197166
197114
197042
196945
196822
196670
196491
196293
196089
195902
195764
195651
178395
184560
184554
184542
184525
184498
184460
184406
184332
184231
184099
183928
183714
183452
183143
182794
182425
182074
181794
181552
166396
172333
172320
172298
172265
172218
172154
172067
171950
171796
171596
171339
171014
170612
170127
169559
168929
168291
167744
167246
154842
160556
160536
160503
160455
160389
160298
160177
160017
159807
159535
159183
158733
158163
157450
156578
155549
154411
153321
152263
143720
149216
149191
149148
149086
149000
148885
148732
148530
148267
147922
147474
146891
146135
145157
143897
142296
140323
138095
135615
133017
138303
138272
138221
138146
138043
137905
137723
137485
137172
136762
136225
135516
134578
133326
131637
129328
126129
121672
115273
152579
154560
152912
151157
149258
146295
142691
137774
131920
125817
120919
120057
120140
120207
120437
120983
121352
122041
129210
123616
90093.4
71746.7
57474.3
47527.7
41477.4
37737
35427.7
34059.2
33286.1
32921.4
32857.7
33011.2
33363.3
33897.8
34605.8
35457.9
36447.8
37553.7
38747.4
40003.1
41277.9
42516.6
43480.4
44435.4
45576.3
46701.5
47434.6
47930.4
47960.2
47673.9
47971.8
48328.3
47598.1
48193.1
48445.1
48535.5
48415.2
47971.8
47494.2
47032.6
147605
149715
148748
147383
145666
142649
139238
134501
129631
121417
119217
119259
119450
119813
120412
120623
120929
120313
119078
107358
82941.9
69040.1
53612.7
42907.3
36600.2
32760.6
30417.8
29019.4
28228.5
27846.9
27762.7
27916.4
28279.5
28821.1
29525.1
30390.2
31398
32523.4
33733.1
34998.5
36296.5
37560.4
38942.2
40046.3
41041
41828.8
42542.2
43060.9
43164.9
43416
43707.4
43659.2
43114.2
43354.4
43436
43407
43533.4
43193.8
42696
42226.6
142442
144836
144056
143129
141501
138776
135756
131159
125919
119321
119154
119210
119367
119618
120389
117676
109892
103116
97241.5
88128
71773.8
58285.2
46292.2
36967.3
31021.9
27343.7
25103.6
23762.5
22999.8
22629.9
22547.8
22696.2
23049.2
23585.9
24292.2
25161.9
26180.6
27322.9
28557.4
29852
31188.1
32556.2
33874.4
35002.8
36065.5
36980.5
37695.4
38370.9
39306.8
39640.9
39202.2
39020.8
39491.7
38813.2
38528
38508.1
38628.1
38236.4
37646.2
37056.5
137339
139922
139417
138551
137085
134854
132018
127943
122099
118992
119056
119144
119280
119309
112501
102280
93306.3
85605.1
78496.2
70005.2
57865
46553.7
37017.2
29533.3
24487.2
21284.1
19332.7
18163.3
17498.1
17183.1
17127
17282.7
17630
18157.8
18858.2
19727.8
20754.7
21912.3
23174.4
24509.9
25888.4
27277.1
28618.8
29830.2
30933.2
31888.1
32731.9
33668.6
34403.6
34561.7
34615.7
35671.8
35674.5
34511
34732.7
34575.8
33853.6
33064.7
32722.7
32957
132257
134911
134518
133794
132621
130859
128460
124967
119723
118847
118972
119094
118870
109859
97976.8
87458.8
77358.1
68236.6
59981.6
51672.7
42181.3
33331.8
26188.9
20736.3
16981.2
14544.4
13090.6
12221.9
11730.8
11518.9
11519
11698.5
12047.7
12568
13259
14124.7
15159.6
16330.1
17619.4
19002.3
20434
21866.1
23247.8
24521.3
25673.6
26682.4
27584.6
28448.6
29123.7
29543.5
30323.6
30883.7
30693.4
30544.1
30219.7
29729.8
29639.6
30609.6
31298.6
31664.7
127356
129938
129597
129002
128150
126917
124973
122093
118584
118218
118855
118887
110491
96958.5
84631.7
72524.2
60925
50382.8
41113.6
32843.3
24983.6
18535.9
13823.3
10563.9
8519.14
7048.15
6306.79
5888.93
5659.9
5615.04
5716.17
5951.42
6323.81
6849.89
7536.41
8401.03
9448.08
10618.6
11918.5
13342.5
14833.7
16320.5
17759.2
19097.3
20309.3
21366.8
22304.7
23138.2
23814.4
24342.5
24960
25391.2
25543.3
25350.8
24975.6
24743.6
25275.9
26025.6
26318.2
26402.1
122374
124973
124552
124117
123591
122822
121365
119096
116921
116863
118277
114000
98525.8
84652.2
70675.1
56832.7
43645.6
31731
21199.1
12296.4
5637.94
1765.82
1049.75
719.373
560.913
473.765
472.998
487.795
479.767
495.767
550.812
650.413
829.863
1153.16
1647.87
2360
3376.1
4582.68
6003.42
7613.87
9175.64
10686.3
12160.4
13552.6
14840.3
15943.8
16924
17749.6
18428.1
18984.3
19480.4
19840.9
19995.7
19867.5
19596.8
19463.5
19754.6
20126.3
20301.5
20442.7
117071
119833
119337
119119
118982
118542
117728
116017
113577
114842
116712
102463
87117
71604.4
55789.5
40169.4
25286
11387
1810.82
20.0332
1.21615
-1.41208
-11.2388
-15.6318
-20.152
-24.6793
-29.423
-34.5578
-39.1257
-43.3061
-47.7737
-53.5938
-54.2668
-50.829
-49.9615
-49.4379
-39.1304
66.7277
358.494
1095.98
2684.92
4513.51
6429.16
7974.08
9329.32
10437.2
11458.3
12279.5
12957.3
13535.1
13928.3
14222.1
14410.3
14314.1
14081.1
13972.1
14068.1
14173.8
14157.6
14233.7
111750
114387
113847
113783
114272
114520
114136
113190
110908
113884
107324
91383.5
75037.9
57778
40097.3
22579.5
5928.7
5.21329
-0.377266
-7.06773
-13.7926
-16.0327
-22.6198
-26.7869
-30.5029
-34.1766
-38.0099
-42.0214
-45.9966
-49.7421
-53.427
-57.3764
-59.9486
-60.7085
-61.513
-62.7524
-66.0063
-64.0552
-63.8681
-64.3241
-48.19
-11.8046
349.204
1519.59
3312.04
4663.45
5991.47
6782.75
7438.92
8050.89
8296
8514.52
8804.72
8702.73
8434.33
8327.61
8269.57
8114.24
7801.25
7695.17
106501
108956
108959
108471
108990
109741
110113
110849
104344
109450
95747.4
80060.3
62390.5
43391.1
23761.1
4670.43
14.3043
-11.7791
-16.9512
-22.2404
-27.4542
-30.0386
-33.6044
-36.5829
-39.4079
-42.4129
-45.7008
-49.2633
-52.8779
-56.3666
-59.7436
-63.1699
-65.8932
-67.1495
-67.8492
-68.6238
-70.1819
-69.4454
-68.3632
-69.6897
-67.9789
-70.0927
-68.1382
-63.4337
-52.7687
42.9768
508.107
1087.31
1695.99
2608.21
2524.14
2661.53
3330.08
3106.22
2623.8
2653.18
2549.89
2178.22
1528.22
1152.95
101324
103427
103387
103619
103495
104528
105732
105247
106619
98603.6
85322.8
68557.9
49415.9
28642.2
6487.87
7.2098
-17.9965
-24.6751
-32.051
-36.4849
-39.8048
-41.8315
-43.8398
-45.8614
-48.0286
-50.5472
-53.4427
-56.6386
-59.9501
-63.2052
-66.3409
-69.4046
-72.0754
-73.7365
-74.6335
-75.3072
-76.2324
-76.0956
-75.3035
-75.2247
-73.7903
-73.6529
-71.9928
-72.4673
-72.6707
-71.367
-71.8173
-69.866
-59.0393
-61.792
-62.2363
-56.3305
-10.2354
-32.6708
-55.6431
-55.9453
-57.6609
-60.1697
-61.7556
-50.6969
96249
97935.2
97556.2
97966.5
98319.8
99280.7
100798
102837
99570.1
90800.3
75188
57022.3
36283.1
13058.3
112.815
-21.9117
-31.113
-39.5521
-45.158
-48.4837
-50.6387
-51.98
-53.1713
-54.5738
-56.3123
-58.5042
-61.1278
-64.0661
-67.1465
-70.2029
-73.1382
-75.9439
-78.4517
-80.2355
-81.2761
-81.9255
-82.5326
-82.5745
-82.0109
-81.6028
-80.6478
-79.9659
-78.7757
-78.1176
-77.169
-76.2726
-75.2686
-74.5254
-71.1809
-70.7816
-72.3609
-75.7315
-69.9512
-64.6698
-62.6503
-65.9371
-62.7854
-59.5846
-61.4331
-60.572
91341.5
92452.3
91809.5
91646.8
92415.1
93107.7
93857
106675
99923.7
82199.1
65328.8
45504.5
22909.9
1100.58
-31.7896
-37.8714
-46.6167
-52.6442
-56.5686
-58.8636
-60.1658
-60.9416
-61.6922
-62.7587
-64.2754
-66.2901
-68.7443
-71.5066
-74.4139
-77.3031
-80.0682
-82.6708
-84.9972
-86.7659
-87.8794
-88.5353
-88.9728
-89.0169
-88.5969
-88.0807
-87.2809
-86.4685
-85.4667
-84.6268
-83.6638
-82.6833
-81.4533
-80.4169
-78.2
-77.3757
-77.8703
-79.1515
-76.4424
-72.5923
-70.4935
-71.1653
-69.7233
-67.843
-67.8573
-67.1668
86673.3
87452.2
86528.1
85624.4
85724.4
86032.7
88516.7
104658
90233.4
73938.9
55554.7
34117.9
8834.79
25.7021
-44.5848
-53.2629
-60.0332
-64.2161
-66.7541
-68.0803
-68.7182
-69.1029
-69.6267
-70.5551
-71.9926
-73.9312
-76.2868
-78.9271
-81.6968
-84.4428
-87.0601
-89.4933
-91.6491
-93.341
-94.4682
-95.129
-95.4821
-95.5053
-95.1693
-94.6484
-93.9176
-93.0695
-92.1102
-91.1819
-90.2033
-89.1847
-87.9681
-86.8359
-85.2874
-84.2815
-84.1337
-84.3473
-82.5838
-79.7533
-77.8415
-77.4667
-76.3795
-75.0077
-74.4515
-73.6891
82294.2
82776.4
81092.3
79618.9
77957.3
79670.8
83398.7
94154.5
82128
65257.8
45690.3
22689.4
628.497
-52.0859
-58.3215
-66.7316
-71.7025
-74.5815
-75.9675
-76.5015
-76.6591
-76.796
-77.2218
-78.1238
-79.552
-81.4606
-83.7518
-86.2964
-88.9488
-91.57
-94.0562
-96.342
-98.3465
-99.9429
-101.05
-101.71
-102.028
-102.042
-101.76
-101.265
-100.571
-99.7339
-98.7999
-97.8496
-96.8545
-95.7988
-94.6178
-93.471
-92.1987
-91.1616
-90.5979
-90.2266
-88.8873
-86.7627
-85.0487
-84.2167
-83.2319
-82.0948
-81.2701
-80.3617
78066
78349.3
75557.8
74488
74623.4
76286.9
81811.7
78668.6
72113.8
55945.3
35796
10828.4
22.1688
-64.5799
-72.1257
-78.4028
-82.1339
-83.9175
-84.4673
-84.4672
-84.3027
-84.2949
-84.6929
-85.6025
-87.0295
-88.9101
-91.1415
-93.5979
-96.1439
-98.6507
-101.017
-103.175
-105.05
-106.553
-107.626
-108.28
-108.591
-108.61
-108.363
-107.899
-107.245
-106.444
-105.544
-104.595
-103.589
-102.53
-101.392
-100.265
-99.1043
-98.0495
-97.2569
-96.5757
-95.3905
-93.7076
-92.2074
-91.1986
-90.2193
-89.1805
-88.2413
-87.2316
73798.4
73829.8
71384.6
74103.4
74286
74605.4
74599.9
69816.5
61476.5
46486.8
26187.7
1422.75
-75.9192
-76.3564
-84.2188
-88.9171
-91.5402
-92.4878
-92.5542
-92.233
-91.8772
-91.8043
-92.1922
-93.0921
-94.4913
-96.3202
-98.4756
-100.837
-103.275
-105.67
-107.925
-109.968
-111.734
-113.155
-114.189
-114.84
-115.16
-115.196
-114.983
-114.559
-113.949
-113.189
-112.322
-111.386
-110.395
-109.357
-108.263
-107.159
-106.046
-104.983
-104.071
-103.211
-102.084
-100.685
-99.3665
-98.3081
-97.3289
-96.3398
-95.3549
-94.291
69544.3
69462.3
67700.3
73203
74132.3
68690.3
68930.7
62579.9
52810.4
37731.2
16680.3
51.8717
-79.6257
-89.2995
-95.0771
-98.5441
-100.192
-100.64
-100.44
-99.9479
-99.5249
-99.4464
-99.8176
-100.674
-102.003
-103.74
-105.787
-108.031
-110.351
-112.63
-114.774
-116.714
-118.388
-119.742
-120.743
-121.395
-121.734
-121.797
-121.621
-121.24
-120.675
-119.961
-119.136
-118.234
-117.274
-116.264
-115.205
-114.124
-113.042
-111.986
-111.002
-110.039
-108.95
-107.735
-106.553
-105.513
-104.556
-103.604
-102.613
-101.533
64829.2
64820.1
63406.1
65254.7
72681.8
57992.8
73018.2
57511.1
46073.9
30068.3
7752.16
-46.0056
-94.4909
-100.566
-105.141
-107.488
-108.455
-108.591
-108.231
-107.684
-107.303
-107.265
-107.619
-108.401
-109.612
-111.208
-113.107
-115.205
-117.385
-119.538
-121.571
-123.414
-125.009
-126.308
-127.286
-127.945
-128.31
-128.407
-128.274
-127.939
-127.425
-126.764
-125.989
-125.134
-124.213
-123.235
-122.21
-121.16
-120.106
-119.056
-118.033
-117.023
-115.969
-114.872
-113.798
-112.812
-111.898
-110.986
-110.021
-108.96
59191.2
59751
58472.6
57808.9
55696.5
70344
68403
54522.4
40536
23578.4
1255.39
-112.177
-105.2
-111.475
-114.556
-116.043
-116.547
-116.441
-115.971
-115.46
-115.19
-115.209
-115.551
-116.251
-117.322
-118.743
-120.458
-122.379
-124.398
-126.41
-128.325
-130.072
-131.596
-132.85
-133.812
-134.483
-134.877
-135.014
-134.93
-134.649
-134.194
-133.594
-132.88
-132.076
-131.2
-130.262
-129.275
-128.259
-127.23
-126.19
-125.157
-124.14
-123.122
-122.105
-121.118
-120.199
-119.342
-118.487
-117.578
-116.566
53202
54126.9
53290.2
53052.9
48646.3
63606.1
59851
49292.8
35209.9
17481
147.05
-107.816
-117.209
-121.51
-123.566
-124.431
-124.576
-124.255
-123.728
-123.336
-123.147
-123.191
-123.514
-124.146
-125.093
-126.344
-127.861
-129.582
-131.418
-133.272
-135.059
-136.708
-138.162
-139.374
-140.324
-141.008
-141.432
-141.614
-141.583
-141.364
-140.975
-140.443
-139.793
-139.048
-138.225
-137.336
-136.393
-135.414
-134.412
-133.392
-132.37
-131.371
-130.39
-129.434
-128.523
-127.675
-126.885
-126.1
-125.268
-124.325
46908.6
48123.7
47567.8
47744.7
46492.1
50117.9
55065
43489.5
29971.9
11775.2
-80.3522
-122.85
-128.492
-131.138
-132.37
-132.756
-132.595
-132.115
-131.655
-131.344
-131.186
-131.226
-131.512
-132.073
-132.905
-133.996
-135.323
-136.842
-138.483
-140.164
-141.808
-143.347
-144.726
-145.896
-146.832
-147.526
-147.982
-148.21
-148.235
-148.08
-147.76
-147.298
-146.718
-146.038
-145.276
-144.444
-143.552
-142.616
-141.65
-140.663
-139.671
-138.701
-137.76
-136.861
-136.021
-135.244
-134.525
-133.822
-133.076
-132.216
40262.6
41859.5
41234.9
41136
44070.2
43684.5
45025.9
37147.7
24553.1
6764.99
-103.905
-134.737
-138.121
-140.348
-141.019
-141.046
-140.654
-140.117
-139.72
-139.434
-139.289
-139.319
-139.562
-140.042
-140.764
-141.722
-142.884
-144.206
-145.643
-147.137
-148.625
-150.043
-151.334
-152.45
-153.364
-154.062
-154.545
-154.818
-154.898
-154.806
-154.554
-154.163
-153.656
-153.046
-152.349
-151.58
-150.747
-149.865
-148.948
-148.007
-147.058
-146.128
-145.235
-144.393
-143.619
-142.915
-142.272
-141.654
-140.999
-140.232
33169.6
35377.6
34473.5
33319.8
34967.3
38978.3
34034.8
30161.3
19216
2363
-134.326
-143.717
-147.824
-149.256
-149.546
-149.318
-148.765
-148.264
-147.879
-147.606
-147.466
-147.484
-147.689
-148.098
-148.716
-149.534
-150.534
-151.688
-152.956
-154.273
-155.59
-156.861
-158.044
-159.089
-159.965
-160.657
-161.156
-161.465
-161.593
-161.56
-161.373
-161.052
-160.618
-160.078
-159.45
-158.749
-157.983
-157.166
-156.309
-155.426
-154.533
-153.656
-152.818
-152.036
-151.327
-150.692
-150.125
-149.591
-149.03
-148.369
25392.4
28176
27769.2
27212.1
24513.7
34313.7
28845.2
24058
14587.5
573.907
-163.819
-154.514
-157.303
-157.994
-158.005
-157.609
-157
-156.511
-156.128
-155.86
-155.72
-155.724
-155.894
-156.24
-156.767
-157.467
-158.328
-159.323
-160.421
-161.575
-162.748
-163.89
-164.957
-165.908
-166.719
-167.377
-167.871
-168.199
-168.363
-168.377
-168.249
-167.992
-167.626
-167.156
-166.598
-165.968
-165.275
-164.53
-163.745
-162.933
-162.107
-161.294
-160.518
-159.798
-159.152
-158.581
-158.08
-157.622
-157.157
-156.617
17100.6
20777.7
20592.7
22408.6
21901.9
23330.6
24080.4
18824.6
10622.6
151.429
-163.826
-164.874
-166.443
-166.755
-166.508
-165.954
-165.351
-164.855
-164.471
-164.204
-164.059
-164.047
-164.181
-164.471
-164.919
-165.518
-166.258
-167.115
-168.068
-169.077
-170.111
-171.126
-172.085
-172.953
-173.703
-174.323
-174.795
-175.116
-175.289
-175.328
-175.242
-175.035
-174.724
-174.317
-173.825
-173.264
-172.644
-171.976
-171.271
-170.54
-169.792
-169.051
-168.342
-167.684
-167.096
-166.581
-166.132
-165.733
-165.356
-164.954
11057.3
13771.9
13411.7
13311.4
11765.7
16247.6
17987
14249.6
7232.57
-49.686
-167.107
-174.683
-175.741
-175.661
-175.122
-174.398
-173.798
-173.298
-172.911
-172.64
-172.486
-172.455
-172.556
-172.796
-173.175
-173.685
-174.319
-175.058
-175.887
-176.77
-177.679
-178.579
-179.437
-180.224
-180.912
-181.49
-181.939
-182.258
-182.442
-182.504
-182.448
-182.276
-182.004
-181.642
-181.2
-180.694
-180.135
-179.536
-178.908
-178.26
-177.597
-176.934
-176.294
-175.696
-175.16
-174.688
-174.275
-173.915
-173.599
-173.355
4404.77
7370.12
7605.47
8160.68
10690
9801.01
12529.1
10016.3
4487.53
-162.219
-176.335
-184.193
-184.779
-184.467
-183.757
-182.968
-182.345
-181.836
-181.446
-181.17
-181.006
-180.955
-181.025
-181.221
-181.539
-181.972
-182.514
-183.152
-183.873
-184.643
-185.442
-186.238
-187.005
-187.716
-188.343
-188.877
-189.3
-189.609
-189.8
-189.88
-189.853
-189.718
-189.49
-189.178
-188.786
-188.331
-187.824
-187.276
-186.703
-186.117
-185.526
-184.941
-184.371
-183.831
-183.339
-182.901
-182.511
-182.166
-181.864
-181.664
-1878.56
1393.54
1456.46
2628.19
6718.35
3746.19
7232.1
6349.77
2383.12
-192.519
-191.044
-192.937
-193.137
-192.955
-192.315
-191.586
-190.967
-190.465
-190.076
-189.796
-189.622
-189.553
-189.596
-189.751
-190.015
-190.38
-190.844
-191.394
-192.019
-192.691
-193.39
-194.094
-194.777
-195.417
-195.986
-196.477
-196.872
-197.167
-197.36
-197.452
-197.447
-197.344
-197.155
-196.887
-196.544
-196.14
-195.69
-195.2
-194.682
-194.147
-193.607
-193.074
-192.561
-192.076
-191.626
-191.217
-190.845
-190.505
-190.184
-189.851
-7137.11
-4905.1
-6234.07
-6652.72
-343.688
1631.87
3143.73
3504.98
963.293
-203.076
-202.796
-201.026
-201.256
-201.317
-200.853
-200.24
-199.665
-199.183
-198.801
-198.52
-198.338
-198.254
-198.273
-198.391
-198.607
-198.914
-199.309
-199.782
-200.322
-200.906
-201.518
-202.14
-202.747
-203.32
-203.835
-204.283
-204.649
-204.93
-205.12
-205.219
-205.231
-205.154
-204.999
-204.77
-204.469
-204.114
-203.715
-203.277
-202.812
-202.331
-201.842
-201.356
-200.884
-200.437
-200.022
-199.639
-199.287
-198.96
-198.649
-198.345
-14826.1
-12063.1
-13486.7
-12633.4
-7835.08
-1283.2
-96.9371
1081.76
18.9553
-212.063
-210.36
-209.794
-209.906
-209.894
-209.502
-208.971
-208.443
-207.987
-207.619
-207.344
-207.159
-207.064
-207.061
-207.146
-207.32
-207.575
-207.91
-208.315
-208.78
-209.287
-209.822
-210.37
-210.908
-211.42
-211.884
-212.291
-212.629
-212.894
-213.078
-213.18
-213.204
-213.151
-213.024
-212.827
-212.567
-212.255
-211.9
-211.508
-211.092
-210.66
-210.22
-209.778
-209.349
-208.938
-208.552
-208.191
-207.857
-207.554
-207.284
-207.067
-22849.9
-19521
-18814.2
-19465.1
-14941.2
-7172.42
-3224.57
-1111.8
-464.746
-219.675
-219.53
-219.299
-219.073
-218.742
-218.298
-217.797
-217.307
-216.883
-216.538
-216.274
-216.09
-215.986
-215.964
-216.021
-216.158
-216.368
-216.65
-216.995
-217.394
-217.834
-218.302
-218.783
-219.259
-219.714
-220.13
-220.499
-220.81
-221.056
-221.232
-221.335
-221.369
-221.334
-221.23
-221.063
-220.838
-220.565
-220.25
-219.899
-219.527
-219.14
-218.743
-218.344
-217.954
-217.579
-217.225
-216.893
-216.585
-216.31
-216.074
-215.89
-30447.4
-27815.6
-27244.2
-26761.4
-18887.2
-13730.5
-6106.39
-2742.84
-376.694
-236.02
-229.908
-228.7
-228.219
-227.694
-227.205
-226.716
-226.264
-225.878
-225.561
-225.313
-225.133
-225.023
-224.985
-225.019
-225.124
-225.295
-225.531
-225.823
-226.165
-226.546
-226.954
-227.376
-227.794
-228.199
-228.571
-228.905
-229.189
-229.416
-229.581
-229.683
-229.724
-229.703
-229.62
-229.479
-229.285
-229.046
-228.766
-228.454
-228.12
-227.773
-227.416
-227.057
-226.703
-226.361
-226.037
-225.735
-225.457
-225.211
-225.003
-224.846
-31456.7
-31458.6
-31349.9
-30584.4
-24250.6
-14594.1
-8524.01
-3933.42
-68.7833
-251.161
-239.001
-237.683
-237.197
-236.686
-236.206
-235.743
-235.331
-234.983
-234.696
-234.465
-234.293
-234.18
-234.13
-234.145
-234.223
-234.362
-234.557
-234.802
-235.094
-235.423
-235.778
-236.147
-236.516
-236.874
-237.207
-237.508
-237.767
-237.974
-238.128
-238.228
-238.272
-238.26
-238.195
-238.076
-237.909
-237.699
-237.452
-237.175
-236.877
-236.564
-236.243
-235.921
-235.6
-235.289
-234.994
-234.721
-234.471
-234.25
-234.067
-233.932
-31500.3
-31491.4
-31441.1
-31091.8
-29923.9
-16613.3
-9671.54
-4737.33
-90.3111
-248.54
-247.391
-246.684
-246.261
-245.775
-245.318
-244.89
-244.521
-244.211
-243.951
-243.739
-243.574
-243.461
-243.404
-243.404
-243.46
-243.57
-243.73
-243.936
-244.185
-244.468
-244.776
-245.099
-245.423
-245.739
-246.037
-246.308
-246.54
-246.73
-246.873
-246.968
-247.012
-247.008
-246.956
-246.856
-246.712
-246.527
-246.309
-246.065
-245.799
-245.518
-245.231
-244.94
-244.65
-244.367
-244.101
-243.855
-243.631
-243.433
-243.27
-243.153
-31538.9
-31530.4
-31522.2
-31620.6
-27877.1
-17900.1
-9989.06
-4666.79
-222.453
-251.281
-256.37
-255.962
-255.495
-254.99
-254.55
-254.165
-253.842
-253.569
-253.336
-253.14
-252.985
-252.873
-252.811
-252.799
-252.837
-252.922
-253.053
-253.226
-253.439
-253.682
-253.95
-254.231
-254.514
-254.793
-255.058
-255.3
-255.509
-255.681
-255.812
-255.901
-255.945
-255.946
-255.904
-255.819
-255.694
-255.533
-255.341
-255.125
-254.888
-254.638
-254.381
-254.119
-253.857
-253.601
-253.36
-253.137
-252.937
-252.761
-252.616
-252.513
-31555.1
-31552
-31526.2
-32145.8
-25507.6
-17124.4
-9745.2
-3964.92
-285.168
-266.038
-265.766
-265.156
-264.759
-264.318
-263.922
-263.585
-263.303
-263.063
-262.853
-262.675
-262.529
-262.421
-262.355
-262.334
-262.357
-262.422
-262.529
-262.675
-262.856
-263.065
-263.297
-263.54
-263.787
-264.032
-264.266
-264.481
-264.668
-264.824
-264.943
-265.025
-265.068
-265.073
-265.038
-264.965
-264.857
-264.717
-264.549
-264.357
-264.147
-263.925
-263.695
-263.459
-263.224
-262.994
-262.773
-262.571
-262.391
-262.235
-262.108
-262.017
-31569
-31564.7
-31636
-29862.2
-22523.6
-15228.2
-8655.41
-2949.46
-280.954
-277.36
-274.949
-274.459
-274.12
-273.787
-273.45
-273.156
-272.91
-272.698
-272.511
-272.349
-272.213
-272.11
-272.043
-272.016
-272.027
-272.077
-272.165
-272.286
-272.44
-272.619
-272.817
-273.028
-273.243
-273.457
-273.663
-273.852
-274.02
-274.16
-274.268
-274.343
-274.385
-274.391
-274.363
-274.299
-274.206
-274.084
-273.936
-273.767
-273.581
-273.384
-273.177
-272.966
-272.757
-272.55
-272.35
-272.166
-272.002
-271.862
-271.752
-271.674
-31630.3
-31547.6
-31938.8
-25748.5
-19191.7
-12730.2
-7127.83
-759.848
-299.514
-285.319
-284.39
-284.009
-283.692
-283.405
-283.119
-282.868
-282.659
-282.477
-282.312
-282.166
-282.042
-281.945
-281.879
-281.848
-281.85
-281.888
-281.959
-282.06
-282.19
-282.342
-282.511
-282.692
-282.88
-283.069
-283.248
-283.414
-283.562
-283.688
-283.785
-283.855
-283.893
-283.9
-283.876
-283.822
-283.742
-283.635
-283.505
-283.356
-283.191
-283.015
-282.831
-282.643
-282.456
-282.27
-282.091
-281.925
-281.774
-281.648
-281.552
-281.483
-35350.4
-32310.8
-26247
-20843.2
-15075.5
-9680.88
-5189
-178.566
-292.394
-294.256
-293.937
-293.653
-293.382
-293.147
-292.919
-292.722
-292.556
-292.406
-292.264
-292.134
-292.022
-291.932
-291.869
-291.836
-291.831
-291.858
-291.915
-292.001
-292.11
-292.237
-292.38
-292.536
-292.701
-292.865
-293.021
-293.166
-293.297
-293.408
-293.495
-293.558
-293.592
-293.599
-293.58
-293.535
-293.467
-293.372
-293.258
-293.127
-292.981
-292.824
-292.66
-292.493
-292.326
-292.158
-291.998
-291.849
-291.712
-291.598
-291.512
-291.45
122725
127805
127769
127710
127624
127506
127350
127143
126873
126520
126056
125446
124635
123547
122064
119998
117022
112499
104949
90947.4
112554
117619
117579
117513
117419
117289
117117
116891
116597
116213
115711
115050
114171
112987
111365
109085
105760
100623
92100.3
76822.4
102412
107461
107417
107347
107245
107106
106922
106682
106371
105967
105442
104754
103844
102628
100977
98691.3
95447.7
90703.2
83564.8
72520.4
92300.3
97332.7
97286.7
97212
97104.7
96959.1
96767.4
96518.7
96198
95785
95252
94560.4
93656.7
92465.5
90879.1
88742.3
85828.8
81804.8
76189.4
68399.2
82220.7
87236.3
87188.6
87111.2
87000.4
86850.8
86654.8
86402
86078.6
85665.6
85138.1
84462
83591.4
82464.6
80997.8
79079
76559.3
73243.5
68894.6
63329
72174.3
77172.8
77124.1
77045.3
76932.9
76781.6
76584.4
76331.9
76011.2
75605.6
75093.3
74445.4
73624.4
72581.8
71255.5
69567.7
67423.9
64714.2
61326.2
57192.9
62161.4
67143
67094.1
67015
66902.3
66751.4
66555.8
66306.8
65993
65599.9
65108.8
64495.9
63731.3
62777.9
61590.9
60117.4
58298
56070.6
53379.7
50199.1
52182.1
57147.1
57098.6
57020.1
56908.6
56759.7
56567.6
56324.5
56020.5
55642.9
55176
54600.3
53892.1
53023.4
51962.3
50673.5
49119.8
47265.4
45080.9
42554.9
42235.9
47184.9
47137.4
47060.4
46951
46805.4
46618.2
46382.6
46090
45729.4
45287.4
44748
44092
43298.2
42344.3
41207.6
39865.8
38298.1
36486.9
34423.4
32321.9
37255.8
37210
37135.4
37028.8
36887.2
36705.7
36478.6
36198.1
35855
35437.6
34931.9
34321.7
33590.3
32722.6
31706.5
30531.7
29186.8
27658.2
25932.4
22437.8
27358.9
27316.3
27244.6
27141.2
27003.8
26828.4
26609.9
26341.9
26016.5
25623.2
25148.8
24577.2
23893.4
23089.4
22165.2
21122.6
19959.1
18659.7
17201.1
12576.8
17493.8
17456.2
17387.1
17286.4
17153.1
16983.7
16773.7
16518.2
16210.7
15842.7
15400.4
14862.2
14210.7
13448.6
12596.4
11676
10690.7
9619.48
8411.36
2706.64
7660.4
7629.2
7562.16
7464.6
7335.39
7171.65
6969.94
6726.4
6437.16
6100.92
5706.44
5202.4
4562.13
3820.83
3066.11
2379.49
1780.82
1273.38
736.084
-430.004
-52.3643
-68.6413
-97.9728
-132.653
-172.135
-215.959
-263.474
-313.563
-364.348
-407.289
-426.051
-426.691
-425.6
-425.658
-425.725
-425.753
-424.439
-423.558
-423.449
-439.547
-434.289
-434.345
-434.338
-434.324
-434.309
-434.299
-434.298
-434.337
-434.426
-434.491
-434.146
-434.395
-434.512
-434.57
-434.59
-434.537
-434.407
-434.351
-434.307
-449.191
-444.1
-444.147
-444.148
-444.133
-444.118
-444.107
-444.1
-444.111
-444.146
-444.153
-444.051
-444.076
-444.112
-444.149
-444.179
-444.198
-444.213
-444.201
-444.211
-458.914
-453.96
-453.955
-453.952
-453.941
-453.929
-453.917
-453.906
-453.898
-453.903
-453.904
-453.881
-453.881
-453.906
-453.933
-453.959
-453.984
-454.006
-454.015
-454.031
-468.683
-463.769
-463.761
-463.753
-463.744
-463.733
-463.722
-463.712
-463.703
-463.695
-463.689
-463.683
-463.687
-463.701
-463.719
-463.741
-463.765
-463.789
-463.812
-463.837
-478.462
-473.562
-473.556
-473.549
-473.541
-473.532
-473.523
-473.515
-473.507
-473.5
-473.495
-473.492
-473.495
-473.504
-473.517
-473.535
-473.556
-473.58
-473.604
-473.631
-488.245
-483.35
-483.345
-483.34
-483.334
-483.327
-483.32
-483.314
-483.309
-483.304
-483.3
-483.299
-483.302
-483.309
-483.32
-483.335
-483.353
-483.374
-483.398
-483.423
-498.027
-493.134
-493.13
-493.127
-493.123
-493.119
-493.114
-493.11
-493.107
-493.104
-493.102
-493.103
-493.106
-493.112
-493.122
-493.135
-493.151
-493.17
-493.192
-493.215
-507.805
-502.914
-502.912
-502.911
-502.909
-502.908
-502.906
-502.903
-502.902
-502.9
-502.901
-502.903
-502.907
-502.913
-502.922
-502.934
-502.949
-502.966
-502.985
-503.006
-517.573
-512.69
-512.691
-512.693
-512.693
-512.694
-512.694
-512.694
-512.694
-512.694
-512.696
-512.7
-512.705
-512.711
-512.72
-512.732
-512.745
-512.761
-512.778
-512.797
-527.322
-522.462
-522.469
-522.474
-522.476
-522.478
-522.48
-522.482
-522.484
-522.486
-522.49
-522.495
-522.501
-522.508
-522.517
-522.528
-522.541
-522.555
-522.571
-522.589
37065.2
35920.3
35052.4
35696.4
39611.2
45822.5
53148.2
60250.7
65919.9
69269
69727.4
66941.5
60344.8
48336
25726
46584.2
30132
25335.5
25513.6
28874.1
34420.4
41154.6
47762.7
53042
56112.2
56430.6
53675.3
47459.4
37065.1
21921
56422.5
37111.5
25954
22053.7
23125.9
27312
32929.6
38538.5
42937.3
45342.6
45354
42811.5
37648.1
29906.2
20087.9
58598.6
46261.7
36049.7
29758.2
27409
28093.5
30673.1
33654.3
35963.5
36946.9
36272.1
33825.8
29643
23936.2
17234.3
56474.5
48377.9
40939.7
35258.4
31722.5
30146.8
29986.1
30389.5
30630.7
30208.2
28817.9
26330.7
22774.1
18350.7
13471.8
52230.1
46417.2
40793.7
35975.4
32274.3
29722.5
28050.6
26861.6
25723.4
24288.3
22325.2
19728.8
16523.4
12856.9
8970.56
46465
42077
37662.2
33571.5
30035
27121.5
24729.5
22667.4
20697.6
18608.2
16249.8
13540.2
10465.8
7113.11
3713.98
39630.6
36182.5
32611.1
29114.8
25861.9
22902.8
20223.3
17740.3
15335.4
12877.4
10236.1
7327.12
4193.74
1378.11
-315.83
32051.9
29244.5
26275.4
23268.2
20315.9
17484.3
14790.3
12183.8
9563.97
6822.8
3929.77
1350.98
-317.866
-375.444
-375.348
23951.5
21592.9
19080.2
16482.9
13859.2
11245.2
8613.71
5937.12
3145.34
1088.22
-385.669
-382.343
-385.556
-387.578
-386.933
15525.7
13536
11402.3
9109.53
6729.93
4176.02
1894.52
314.515
-409.508
-389.327
-395.716
-396.738
-396.117
-396.482
-396.708
6945.19
5134.97
3270.82
1607.29
368.775
-405.38
-406.921
-403.221
-406.567
-406.064
-405.92
-406.021
-406.112
-406.273
-406.442
53.9169
-404.145
-426.541
-411.003
-413.378
-415.264
-415.944
-415.333
-415.546
-415.644
-415.731
-415.808
-415.898
-416.031
-416.177
-423.673
-424.774
-425.581
-424.869
-424.777
-425.028
-425.15
-425.229
-425.324
-425.397
-425.48
-425.567
-425.664
-425.779
-425.906
-434.388
-434.521
-434.616
-434.634
-434.705
-434.813
-434.899
-434.984
-435.067
-435.148
-435.23
-435.317
-435.412
-435.517
-435.631
-444.262
-444.331
-444.385
-444.443
-444.507
-444.578
-444.662
-444.741
-444.82
-444.898
-444.979
-445.063
-445.154
-445.251
-445.353
-454.064
-454.12
-454.174
-454.228
-454.29
-454.356
-454.427
-454.5
-454.575
-454.65