/*--------------------------------*- C++ -*----------------------------------*\
| =========                 |                                                 |
| \\      /  F ield         | OpenFOAM: The Open Source CFD Toolbox           |
|  \\    /   O peration     | Version:  v1912                                 |
|   \\  /    A nd           | Website:  www.openfoam.com                      |
|    \\/     M anipulation  |                                                 |
\*---------------------------------------------------------------------------*/
FoamFile
{
    version     2.0;
    format      ascii;
    class       volScalarField;
    location    "52";
    object      p_rgh;
}
// * * * * * * * * * * * * * * * * * * * * * * * * * * * * * * * * * * * * * //

dimensions      [1 -1 -2 0 0 0 0];


internalField   nonuniform List<scalar> 
20320
(
434000
434075
434101
434153
434224
434312
434414
434529
434653
434783
434916
435050
435181
435305
435421
435525
435614
435688
435743
435776
433887
433985
434020
434073
434145
434234
434337
434453
434577
434708
434841
434975
435106
435230
435345
435448
435535
435605
435655
435686
433662
433801
433836
433890
433963
434052
434155
434271
434395
434525
434659
434792
434921
435045
435158
435260
435346
435414
435464
435496
433353
433532
433566
433620
433692
433780
433883
433997
434121
434250
434382
434514
434642
434763
434875
434974
435059
435127
435178
435213
432971
433184
433218
433271
433342
433429
433530
433643
433765
433892
434022
434152
434278
434397
434506
434603
434686
434753
434805
434843
432527
432770
432803
432854
432923
433008
433107
433217
433336
433460
433588
433715
433837
433953
434059
434153
434234
434300
434351
434392
432030
432298
432329
432379
432445
432527
432622
432728
432843
432963
433086
433209
433327
433439
433541
433631
433708
433771
433822
433865
431491
431778
431808
431855
431918
431995
432085
432185
432294
432408
432525
432641
432753
432859
432954
433039
433111
433170
433219
433262
430918
431219
431247
431291
431349
431420
431503
431596
431696
431801
431909
432015
432118
432215
432302
432378
432442
432495
432540
432582
430321
430632
430657
430696
430748
430811
430886
430968
431057
431150
431244
431337
431426
431508
431582
431645
431698
431742
431781
431820
429709
430025
430046
430079
430123
430178
430240
430309
430383
430459
430535
430609
430678
430740
430793
430837
430872
430901
430930
430963
429090
429407
429423
429450
429485
429527
429575
429627
429681
429735
429787
429834
429874
429907
429930
429945
429953
429959
429971
429990
428473
428786
428798
428816
428840
428868
428898
428929
428959
428985
429004
429015
429016
429006
428985
428955
428921
428891
428876
428873
427867
428171
428177
428186
428197
428209
428219
428225
428225
428215
428194
428158
428105
428035
427949
427852
427752
427663
427603
427560
427277
427569
427569
427568
427565
427559
427546
427523
427488
427436
427364
427267
427144
426992
426813
426615
426411
426224
426086
425973
426711
426988
426981
426970
426952
426926
426888
426834
426759
426659
426526
426356
426141
425880
425571
425222
424853
424501
424222
423979
426174
426433
426420
426398
426365
426318
426254
426166
426049
425895
425695
425438
425114
424712
424226
423658
423029
422391
421844
421345
425670
425909
425889
425857
425809
425742
425652
425531
425371
425161
424889
424537
424086
423516
422804
421932
420902
419765
418675
417616
425202
425420
425395
425352
425290
425204
425089
424936
424734
424471
424126
423678
423095
422339
421361
420101
418500
416527
414299
411819
424773
424969
424938
424887
424812
424709
424571
424389
424150
423838
423428
422890
422182
421244
419992
418303
415993
412794
408338
401939
156199
155825
154168
152401
150337
147472
143940
139044
133194
127091
122021
120811
120747
120598
120511
120985
121354
122042
129211
123701
90243.9
72024.3
58748.4
48801.8
42751.5
39011.1
36701.8
35333.3
34560.1
34195.5
34131.8
34275
34626.7
35167.7
35879.9
36732
37721.9
38827.8
40021.1
41277.1
42552.1
43790.7
44629
45405.6
46696.5
47975.7
48706.4
49204.4
49234.4
48948
49245.9
49602.4
48791.7
49467.2
49719.3
49809.6
49608.6
49165.2
48768.1
48306.7
156588
155561
154584
152466
151207
148849
144649
140893
136023
124653
119223
119266
119457
119819
120419
120629
121416
124306
125470
113749
89333.5
75431.7
60004.3
49298.9
42991.8
39152.2
36809.4
35411.1
34620.1
34238.5
34154.3
34308
34671.1
35212.7
35916.8
36781.8
37789.5
38915
40124.7
41390
42688.1
43676
45163.2
46437.8
47432.7
47920.6
48595.1
49452.5
49298.6
47082.4
49064.2
50050.9
48538.5
49723.9
49827.4
49798.5
49924.9
49585.4
49087.7
48596
156679
156231
155180
154248
153102
150375
147024
142585
137520
120729
119166
119222
119378
119630
120401
126164
121492
114717
108842
99728.9
83374.8
69886.1
57893.1
48568.2
42622.8
38944.6
36704.5
35363.4
34600.7
34230.9
34148.7
34297.1
34650.2
35186.8
35893.1
36762.8
37781.5
38923.8
40158.3
41452.6
42788.3
44157.2
45475.3
46603.7
47578.4
48558.8
49296.2
47540
48168.8
51206.8
50803.2
47369.8
45067.2
50338.5
48839.7
47847
50229
49837.3
49247.1
48657.4
156921
156809
155899
155149
153989
151758
148922
144807
137466
119009
119073
119161
119297
120476
129404
119184
110210
102509
95399.8
86908.8
74768.6
63457.3
53920.8
46436.9
41390.8
38187.7
36236.3
35066.9
34401.7
34086.7
34030.6
34186.3
34533.6
35061.4
35761.8
36631.4
37658.4
38815.9
40078
41413.5
42792
44180.7
45522.1
46733.4
47836.8
48791.7
49535.4
50557.9
51307.2
51465.3
45621
45115.3
51888.1
47689.1
45821.1
50204.4
50757.2
49040.1
36102.3
34212
156560
156863
156692
156096
154923
153161
150454
147265
140484
118870
118994
119117
120588
132161
120278
109760
99659.3
90537.9
82282.9
73974
64482.6
55633
48490.2
43037.6
39282.5
36845.8
35391.9
34523.2
34032.1
33820.2
33820.3
33999.8
34349
34869.3
35560.3
36426
37460.9
38631.4
39920.6
41303.5
42735.3
44167.3
45549.1
46822.6
47974.5
48983.3
49885.9
50750
51425
51524.3
52460.8
53181.7
49448.8
50172.4
52521
52031.1
37052.3
36518.1
38250.9
43809.4
156095
157636
157367
156786
154491
153259
152334
149889
146380
120145
118883
118915
138287
124754
112428
100320
88720.8
78178.6
68909.4
60639.1
52779.4
46331.8
41619.2
38359.8
36315
34844
34102.6
33684.7
33455.8
33410.9
33512
33747.3
34119.7
34645.7
35332.2
36196.9
37243.9
38414.5
39714.4
41138.4
42629.6
44116.3
45555.1
46893.1
48105.1
49162.7
50100.6
50933.6
51608.6
52138.3
52755.8
53095.2
53326.3
53146.6
52736.6
52482.5
53071.7
53821.4
54114
54198
157092
157076
157941
157505
156980
156211
154754
152386
150310
117194
118310
142715
131915
118041
104064
90221.7
77034.5
65119.9
54588
45685.4
38126.3
30131.9
24383.2
20479
17467.4
14725.5
13736.2
13882
13193.1
13014.7
13666.7
14990
17258.7
20800.1
25046
29639.9
34270
37971.6
39392.4
41002.9
42564.6
44075.2
45549.3
46941.5
48229.2
49332.7
50312.9
51138.6
51817
52373
52868.8
53229.9
53384.6
53255.9
52985.7
52852.5
53143.6
53515.3
53690.5
53831.6
159038
158915
158419
157403
153029
152788
151811
155096
144427
114881
125809
141546
126199
110687
94871.8
79251.6
64368.3
50469.3
27832.9
59.1154
40.2985
37.6702
27.8434
23.4505
18.9303
14.403
9.65927
4.5245
-0.0433978
-4.22384
-8.69142
-14.5115
-15.1845
-11.7467
-10.8793
-10.3556
117.85
1686.54
6569.38
17577
34938.6
43595.8
45511.4
47056.4
48411.6
49519.5
50540.5
51361.7
52039.5
52617.4
53010.6
53304.3
53492.6
53396.3
53163.4
53054.3
53150.4
53256
53240
53316
159564
158749
157051
158652
159137
155409
158668
158068
114148
113929
151069
136261
119916
102656
84975.1
67457.3
47235.5
50.0911
44.5006
37.81
31.0852
28.8452
22.258
18.0909
14.3749
10.7012
6.86789
2.85635
-1.11881
-4.86432
-8.5492
-12.4986
-15.0708
-15.8306
-16.6352
-17.8746
-21.1285
-19.1773
-18.9903
-19.4463
-3.31218
400.909
6386.49
26059
48127.1
49541.2
50869.3
51660.5
52316.8
52928.7
53173.8
53392.3
53682.5
53580.6
53312.2
53205.3
53147.4
52992.1
52679
52573
160262
158798
147414
149850
159768
160518
158346
161627
105716
126239
146525
130838
113168
94168.3
74538.3
47541.2
65.0814
38.9981
33.8259
28.5368
23.3229
20.7386
17.1727
14.1942
11.3693
8.36426
5.07638
1.51384
-2.10068
-5.58942
-8.96643
-12.3927
-15.116
-16.3723
-17.0721
-17.8466
-19.4048
-18.6683
-17.5861
-18.9126
-17.2018
-19.3155
-17.361
-12.6564
-1.99152
1695.47
13782.2
28652.7
38455.2
53028
53196
52418
53805.8
53883.4
53401
53004.3
52365.2
52112.8
50989.9
48172.8
161066
160209
160170
146409
159645
155636
157135
162030
106675
152169
142105
125340
106198
85424.5
60398.3
63.9921
38.7858
32.1072
24.7313
20.2975
16.9775
14.9509
12.9425
10.921
8.7537
6.23504
3.3396
0.143719
-3.16773
-6.42294
-9.55852
-12.6222
-15.293
-16.9542
-17.8512
-18.5248
-19.4502
-19.3133
-18.5211
-18.4424
-17.0079
-16.8705
-15.2105
-15.685
-15.8884
-14.5846
-15.0349
-13.0837
-2.25697
-5.00963
-5.45397
483.509
2348.46
1160.61
44.2036
185.874
206.991
47.2909
-4.97332
6.08542
162150
160830
160451
157961
145251
160174
163693
128659
104536
153695
138083
119917
99178.2
75953.5
2174.76
40.9835
31.7822
23.3431
17.7372
14.4115
12.2565
10.9152
9.72393
8.32144
6.5829
4.39102
1.76742
-1.17091
-4.25134
-7.30779
-10.243
-13.0487
-15.5564
-17.3402
-18.3809
-19.0303
-19.6374
-19.6793
-19.1157
-18.7076
-17.7525
-17.0706
-15.8805
-15.2225
-14.2738
-13.3774
-12.3734
-11.6302
-8.28563
-7.88631
-9.46572
-12.8363
-7.05604
-1.77459
0.244875
-3.04186
0.109881
3.3106
1.46217
2.32324
163612
161187
156009
160764
161522
162225
162975
106745
159253
151317
134446
114622
92027.7
26067.2
37.3281
31.2463
22.5009
16.4735
12.5491
10.254
8.95189
8.17608
7.42547
6.35896
4.84233
2.82759
0.373454
-2.38889
-5.29619
-8.18538
-10.9504
-13.5531
-15.8794
-17.6483
-18.7617
-19.4175
-19.8551
-19.8992
-19.4793
-18.963
-18.1632
-17.3508
-16.349
-15.5092
-14.5461
-13.5656
-12.3356
-11.2992
-9.08228
-8.25798
-8.75254
-10.0338
-7.32469
-3.47453
-1.37577
-2.04761
-0.605577
1.27479
1.26046
1.95097
165310
146297
161600
161076
161176
161484
133169
104734
165685
149391
131006
109570
84286.5
101.154
30.8669
22.1889
15.4186
11.2356
8.69759
7.37139
6.73363
6.34885
5.82503
4.89663
3.45908
1.52054
-0.835018
-3.47531
-6.24511
-8.99094
-11.6084
-14.0415
-16.1974
-17.8892
-19.0165
-19.6773
-20.0303
-20.0536
-19.7175
-19.1967
-18.4659
-17.6177
-16.6584
-15.73
-14.7515
-13.7329
-12.5164
-11.3841
-9.83566
-8.82973
-8.68191
-8.89559
-7.13194
-4.30162
-2.38976
-2.01501
-0.927717
0.444093
1.00026
1.76274
166579
146650
162992
161518
135712
103951
83480.6
142864
164027
147157
127590
104589
22933.2
29.8134
23.5779
15.1678
10.1969
7.31788
5.93192
5.39786
5.24024
5.10344
4.67759
3.77563
2.34745
0.43877
-1.85243
-4.39692
-7.04945
-9.67057
-12.1568
-14.4426
-16.4471
-18.0434
-19.1511
-19.8102
-20.1285
-20.1428
-19.8604
-19.3654
-18.672
-17.8345
-16.9005
-15.9502
-14.9552
-13.8993
-12.7184
-11.5716
-10.2993
-9.26223
-8.69846
-8.32712
-6.98793
-4.86328
-3.14926
-2.31729
-1.33258
-0.195353
0.629268
1.53774
167832
163008
164020
76682.7
74711.8
76487.5
81900.2
162023
160576
144408
124259
99291.1
110.631
23.8827
16.337
10.0598
6.32879
4.54523
3.99538
3.99549
4.15996
4.16771
3.76975
2.86017
1.43313
-0.447473
-2.67883
-5.1353
-7.68128
-10.188
-12.5546
-14.7119
-16.5869
-18.0905
-19.1629
-19.8172
-20.128
-20.1472
-19.9004
-19.4362
-18.7826
-17.9815
-17.0814
-16.1319
-15.126
-14.067
-12.9296
-11.8018
-10.6416
-9.58694
-8.79423
-8.11303
-6.92788
-5.2449
-3.74473
-2.73597
-1.7567
-0.717835
0.221358
1.23112
156334
168973
165106
74198.6
74381.1
74722.1
74695
164960
156620
141630
121331
52162
19.2244
18.7873
10.9248
6.22653
3.60339
2.6558
2.58936
2.91058
3.2665
3.3393
2.95138
2.05149
0.652342
-1.17657
-3.33202
-5.69298
-8.13148
-10.5268
-12.7812
-14.8245
-16.5901
-18.0114
-19.0453
-19.6959
-20.0164
-20.0528
-19.8394
-19.4158
-18.805
-18.0453
-17.1782
-16.2422
-15.2517
-14.2134
-13.1197
-12.0157
-10.9024
-9.83913
-8.92742
-8.06776
-6.94004
-5.54156
-4.22285
-3.1645
-2.18534
-1.19612
-0.211328
0.85263
156723
171407
169645
90541.8
74236.4
126451
96762.4
164524
154755
139676
118625
7586.05
22.3187
12.6449
6.86719
3.40023
1.75189
1.30449
1.5044
1.99649
2.4195
2.49794
2.12683
1.27052
-0.0583344
-1.79535
-3.84273
-6.08713
-8.40638
-10.6853
-12.8299
-14.77
-16.4438
-17.7975
-18.7984
-19.4505
-19.7899
-19.853
-19.6769
-19.2958
-18.7308
-18.0168
-17.1913
-16.2898
-15.33
-14.3199
-13.2604
-12.1794
-11.0978
-10.0418
-9.05773
-8.09439
-7.0059
-5.79048
-4.60859
-3.56915
-2.61209
-1.65933
-0.668675
0.411643
169429
173687
172273
170252
72790.7
116205
145983
166378
154941
138936
116619
62.8616
14.3764
8.30103
3.72589
1.37937
0.412358
0.27653
0.636281
1.18326
1.56386
1.60251
1.24859
0.466512
-0.7446
-2.34076
-4.23985
-6.33798
-8.51817
-10.6702
-12.7034
-14.5464
-16.1413
-17.4407
-18.4183
-19.0778
-19.4424
-19.5396
-19.4062
-19.0722
-18.5578
-17.8963
-17.1221
-16.2666
-15.3461
-14.3681
-13.3425
-12.2929
-11.2391
-10.1886
-9.16566
-8.15596
-7.10219
-6.00507
-4.93064
-3.94441
-3.03024
-2.11865
-1.1537
-0.0929169
178675
175665
173173
173523
171610
70459.9
177072
170436
156450
139492
69910.2
3.73676
10.7142
4.43852
1.35761
-0.129168
-0.633408
-0.527652
-0.0566525
0.453443
0.723524
0.704782
0.362877
-0.33742
-1.40845
-2.82961
-4.54398
-6.46533
-8.48433
-10.4958
-12.411
-14.1585
-15.6823
-16.9366
-17.8985
-18.5695
-18.963
-19.1004
-19.0158
-18.7354
-18.2803
-17.6804
-16.9657
-16.1621
-15.2863
-14.3479
-13.3614
-12.3456
-11.3164
-10.2762
-9.24278
-8.2259
-7.20805
-6.19116
-5.20396
-4.28496
-3.4284
-2.57318
-1.66461
-0.651839
179923
175838
169175
176140
144817
63729.1
182733
172380
158297
140568
23352.5
15.2711
5.87852
1.57724
-0.478699
-1.34329
-1.48806
-1.16761
-0.640505
-0.248413
-0.0597186
-0.103891
-0.426429
-1.05841
-2.00588
-3.25636
-4.77325
-6.49447
-8.33021
-10.1848
-11.9715
-13.6201
-15.0741
-16.287
-17.2367
-17.9202
-18.3448
-18.5268
-18.4959
-18.2763
-17.8877
-17.3556
-16.7057
-15.9604
-15.1377
-14.2485
-13.306
-12.3264
-11.3248
-10.3046
-9.28308
-8.28343
-7.30223
-6.3464
-5.43557
-4.58775
-3.79716
-3.01311
-2.18061
-1.23755
180997
164431
177957
178134
102475
50248.3
185454
173878
160361
142164
1507.04
7.53894
1.89679
-0.74856
-1.98091
-2.36705
-2.206
-1.72609
-1.26622
-0.954565
-0.796666
-0.837045
-1.12301
-1.68371
-2.51646
-3.60744
-4.93395
-6.45312
-8.09427
-9.77468
-11.4186
-12.9585
-14.3374
-15.5071
-16.443
-17.1371
-17.5927
-17.8213
-17.8462
-17.6907
-17.3708
-16.9088
-16.3289
-15.6491
-14.8874
-14.0549
-13.1628
-12.2266
-11.2612
-10.2745
-9.28251
-8.31226
-7.37114
-6.47214
-5.63152
-4.85485
-4.13643
-3.43337
-2.68709
-1.82654
181717
151857
179057
178958
59122.1
43822.3
182848
174970
162375
144587
33.9171
3.08528
-0.299117
-2.52587
-3.19662
-3.22383
-2.83179
-2.2952
-1.89822
-1.61215
-1.46669
-1.49662
-1.73976
-2.21953
-2.94229
-3.90011
-5.06233
-6.38365
-7.82072
-9.31468
-10.803
-12.2204
-13.512
-14.6278
-15.5416
-16.2404
-16.7233
-16.9964
-17.0758
-16.9839
-16.7319
-16.3405
-15.8337
-15.2236
-14.5271
-13.7576
-12.9248
-12.0427
-11.1256
-10.185
-9.23584
-8.3063
-7.41283
-6.57112
-5.79725
-5.09245
-4.45034
-3.83175
-3.17666
-2.40948
177476
166403
179861
178708
58582.3
91554
179423
175549
164604
135253
11.0616
1.67069
-2.43545
-3.86849
-4.15809
-3.93038
-3.3774
-2.87589
-2.49053
-2.21812
-2.07798
-2.09598
-2.301
-2.71041
-3.32773
-4.14547
-5.14594
-6.30017
-7.56768
-8.88469
-10.2016
-11.4732
-12.6561
-13.701
-14.5773
-15.2686
-15.768
-16.077
-16.2052
-16.1721
-15.9854
-15.6638
-15.2295
-14.6903
-14.062
-13.3609
-12.5952
-11.7776
-10.9207
-10.0383
-9.14487
-8.26825
-7.43023
-6.64822
-5.93902
-5.30419
-4.73725
-4.20257
-3.64233
-2.98073
177962
181266
179992
178494
27812.6
128028
181935
177148
167677
84752.3
-10.7291
-1.42436
-4.21288
-4.90408
-4.91494
-4.51932
-3.90998
-3.42129
-3.0377
-2.77047
-2.63031
-2.63444
-2.80365
-3.15046
-3.6767
-4.37707
-5.23823
-6.23329
-7.33096
-8.48481
-9.65817
-10.8002
-11.8672
-12.8181
-13.6289
-14.2872
-14.7813
-15.1092
-15.273
-15.2872
-15.1589
-14.9019
-14.5357
-14.0663
-13.508
-12.8785
-12.1855
-11.4405
-10.6552
-9.84302
-9.01755
-8.20432
-7.42818
-6.70822
-6.06179
-5.49101
-4.99039
-4.53188
-4.06724
-3.5269
130292
181707
181522
118974
25289.3
142079
185010
179754
171552
52689.1
-2.89672
-3.94423
-5.51386
-5.82506
-5.57886
-5.02393
-4.42183
-3.92518
-3.54187
-3.27401
-3.12917
-3.11702
-3.25116
-3.54146
-3.98939
-4.58849
-5.32795
-6.18498
-7.13822
-8.14787
-9.18145
-10.1961
-11.1552
-12.0232
-12.7738
-13.3933
-13.8653
-14.1866
-14.3593
-14.3988
-14.3124
-14.1053
-13.7941
-13.387
-12.8949
-12.3342
-11.7142
-11.0466
-10.3416
-9.60998
-8.86273
-8.12154
-7.41199
-6.75444
-6.16684
-5.65098
-5.20206
-4.80363
-4.42611
-4.02482
111930
182682
126335
174081
48793.2
156462
186897
183159
176142
25255.5
1.80299
-5.77322
-6.83131
-6.75146
-6.21269
-5.48814
-4.88795
-4.38853
-4.00168
-3.73
-3.57658
-3.54542
-3.64607
-3.88608
-4.26563
-4.77579
-5.40944
-6.14873
-6.9775
-7.85999
-8.76936
-9.66907
-10.5275
-11.3147
-12.0026
-12.5801
-13.0297
-13.348
-13.5328
-13.594
-13.5382
-13.3665
-13.0944
-12.7324
-12.29
-11.7841
-11.2256
-10.6267
-9.9987
-9.35008
-8.68709
-8.02436
-7.3842
-6.78685
-6.25071
-5.77862
-5.36565
-5.00511
-4.6899
-4.445
174809
184403
96807.4
155337
28016.5
175370
189562
187050
181521
8009.33
0.69866
-7.15968
-7.74595
-7.43397
-6.72348
-5.93452
-5.31139
-4.80299
-4.41302
-4.13632
-3.97259
-3.92196
-3.99181
-4.18741
-4.50601
-4.9387
-5.48096
-6.11902
-6.83943
-7.61008
-8.40854
-9.20492
-9.97141
-10.6823
-11.3094
-11.8434
-12.2668
-12.5757
-12.7668
-12.8463
-12.8197
-12.6851
-12.4567
-12.1445
-11.7532
-11.2976
-10.7903
-10.2432
-9.6693
-9.0832
-8.49329
-7.90748
-7.33785
-6.79807
-6.30599
-5.86761
-5.47817
-5.13316
-4.83108
-4.63056
98714
114692
108761
151262
6903.65
186320
192535
191652
187686
1917.2
-5.7414
-7.63403
-7.83426
-7.65287
-7.01235
-6.28379
-5.66456
-5.16235
-4.77372
-4.49301
-4.31908
-4.25019
-4.29313
-4.44829
-4.7125
-5.07782
-5.54127
-6.09172
-6.71613
-7.38808
-8.08762
-8.79159
-9.47483
-10.1143
-10.6835
-11.1738
-11.569
-11.8648
-12.0573
-12.149
-12.1443
-12.0415
-11.8523
-11.5843
-11.2409
-10.8376
-10.387
-9.89759
-9.37908
-8.84438
-8.3043
-7.771
-7.25872
-6.77381
-6.32373
-5.91421
-5.54262
-5.20282
-4.88188
-4.54878
146629
188815
187486
74205
-149.968
195324
196864
197225
194683
33.7705
-9.07592
-7.30604
-7.53549
-7.59634
-7.13328
-6.51984
-5.94535
-5.46247
-5.08063
-4.79946
-4.61818
-4.53423
-4.55313
-4.67121
-4.88716
-5.19393
-5.58877
-6.06188
-6.60165
-7.18612
-7.79808
-8.41954
-9.02713
-9.60031
-10.1149
-10.5627
-10.9293
-11.21
-11.4001
-11.4989
-11.5104
-11.4344
-11.2791
-11.0494
-10.7493
-10.394
-9.9945
-9.55692
-9.09151
-8.61053
-8.12215
-7.63533
-7.16392
-6.71698
-6.30136
-5.91917
-5.56672
-5.23972
-4.92872
-4.62465
191796
189456
119479
70241.2
-7632.79
201005
202191
203370
202307
-9.77511
-8.07124
-7.50533
-7.61808
-7.60562
-7.2135
-6.68252
-6.15507
-5.69843
-5.33078
-5.05587
-4.87113
-4.77574
-4.77247
-4.85778
-5.03164
-5.2868
-5.62162
-6.02675
-6.49176
-6.99903
-7.53411
-8.08168
-8.62012
-9.1319
-9.59545
-10.0027
-10.3412
-10.6053
-10.7897
-10.8921
-10.9161
-10.8623
-10.7352
-10.5389
-10.2785
-9.96669
-9.61201
-9.22006
-8.80335
-8.37208
-7.93141
-7.49006
-7.06032
-6.64986
-6.2635
-5.90277
-5.56911
-5.26604
-4.99541
-4.77851
192574
188520
107738
159650
-14730.2
203838
207786
209899
210546
-8.66378
-8.51917
-8.28833
-8.06254
-7.73116
-7.28758
-6.78625
-6.29595
-5.87172
-5.52694
-5.26345
-5.07937
-4.97497
-4.9526
-5.01025
-5.14698
-5.35729
-5.6395
-5.98461
-6.38351
-6.82344
-7.29099
-7.77232
-8.24778
-8.70315
-9.11939
-9.48851
-9.79947
-10.0453
-10.2211
-10.3245
-10.3584
-10.3228
-10.2194
-10.0525
-9.82765
-9.55454
-9.23949
-8.88854
-8.51587
-8.12947
-7.7324
-7.33362
-6.94335
-6.56841
-6.21392
-5.88188
-5.57462
-5.29954
-5.06296
-4.87921
44756.1
156248
191034
35508.6
64317.1
206158
213783
217146
178287
-16.1308
-10.0187
-8.81058
-8.33031
-7.80499
-7.31612
-6.82655
-6.37479
-5.98887
-5.67199
-5.42387
-5.24393
-5.13383
-5.09612
-5.13024
-5.23499
-5.40645
-5.64257
-5.9342
-6.27563
-6.65697
-7.06464
-7.48664
-7.90549
-8.3096
-8.68219
-9.01611
-9.30057
-9.52711
-9.69232
-9.79452
-9.83519
-9.81386
-9.73091
-9.58993
-9.39622
-9.15672
-8.87729
-8.56455
-8.2312
-7.88395
-7.52677
-7.168
-6.81444
-6.47213
-6.14799
-5.84585
-5.568
-5.32184
-5.11424
-4.95741
-31223.1
-31229.7
-31121
-30355.5
143705
214332
220402
224993
129399
-22.2347
-10.0748
-8.75628
-8.27081
-7.75947
-7.28008
-6.81623
-6.40455
-6.05693
-5.76978
-5.53883
-5.36608
-5.25305
-5.20402
-5.21907
-5.29701
-5.43525
-5.63054
-5.87556
-6.16804
-6.49703
-6.85136
-7.22097
-7.58944
-7.94715
-8.28035
-8.58188
-8.84031
-9.04771
-9.20202
-9.30127
-9.3452
-9.33405
-9.26852
-9.15007
-8.98292
-8.77248
-8.52523
-8.24824
-7.95023
-7.63753
-7.31684
-6.99435
-6.67399
-6.36256
-6.06797
-5.79485
-5.54485
-5.32406
-5.14069
-5.00557
-31257.5
-31253.3
-31202.7
-30853.7
196066
221513
228455
233389
80126.6
-10.4134
-9.26465
-8.55742
-8.13496
-7.64838
-7.19159
-6.76398
-6.39427
-6.08422
-5.82503
-5.61222
-5.44821
-5.3349
-5.27771
-5.27738
-5.33353
-5.44331
-5.60332
-5.80942
-6.05909
-6.34186
-6.64973
-6.97272
-7.29647
-7.61275
-7.91053
-8.1814
-8.41407
-8.60333
-8.74668
-8.84128
-8.88596
-8.8817
-8.82999
-8.73014
-8.58561
-8.40096
-8.18281
-7.93824
-7.67231
-7.39163
-7.10437
-6.81395
-6.52344
-6.24116
-5.9746
-5.72855
-5.5045
-5.30651
-5.14363
-5.02632
-31286.6
-31282.6
-31193.9
-31373.1
219614
229591
237502
242825
32750
-3.78931
-8.87875
-8.47079
-8.00357
-7.49847
-7.05887
-6.67401
-6.35003
-6.07726
-5.84404
-5.64905
-5.49383
-5.38186
-5.31921
-5.30716
-5.3454
-5.4306
-5.56114
-5.73498
-5.94748
-6.19073
-6.45823
-6.73939
-7.0228
-7.30191
-7.56674
-7.80846
-8.01734
-8.18947
-8.32085
-8.40922
-8.45361
-8.45428
-8.41265
-8.32749
-8.20262
-8.04144
-7.84958
-7.63344
-7.39682
-7.14658
-6.88943
-6.62755
-6.36514
-6.10999
-5.86812
-5.64569
-5.44544
-5.26917
-5.12461
-5.02157
-31293.2
-31294.9
-31257.5
128351
231516
239899
247278
253058
3756.84
-9.01476
-8.74218
-8.13217
-7.73609
-7.29486
-6.89873
-6.56146
-6.27998
-6.03917
-5.8298
-5.65174
-5.50562
-5.39736
-5.33153
-5.31044
-5.33378
-5.39848
-5.50602
-5.65169
-5.8323
-6.04189
-6.27319
-6.51695
-6.7639
-7.00872
-7.24259
-7.45746
-7.64505
-7.80085
-7.9199
-8.0016
-8.04496
-8.04921
-8.01478
-7.94122
-7.83363
-7.69367
-7.52521
-7.33387
-7.12387
-6.90182
-6.67126
-6.43543
-6.20039
-5.97034
-5.75003
-5.5479
-5.36788
-5.21153
-5.08454
-4.99408
-31297.3
-31226.2
-31369.3
236865
244204
251499
258072
263778
-14.2266
-10.6328
-8.22192
-7.73154
-7.39279
-7.05932
-6.72283
-6.42822
-6.18232
-5.97038
-5.78361
-5.62117
-5.48555
-5.38237
-5.31548
-5.28842
-5.30005
-5.34933
-5.43736
-5.55862
-5.71221
-5.89148
-6.08995
-6.30025
-6.51542
-6.7299
-6.93528
-7.12461
-7.29214
-7.43259
-7.54048
-7.61599
-7.65723
-7.66371
-7.63509
-7.57133
-7.47855
-7.35687
-7.20892
-7.03973
-6.85362
-6.65641
-6.44972
-6.23849
-6.02906
-5.82208
-5.62235
-5.43869
-5.27454
-5.13457
-5.02442
-4.94607
-31348.5
-31271
184309
250857
257413
263875
269477
211660
-22.9086
-8.71425
-7.78473
-7.40334
-7.08667
-6.79935
-6.51396
-6.26258
-6.05369
-5.87169
-5.70721
-5.56095
-5.43674
-5.33979
-5.27379
-5.24273
-5.24518
-5.28245
-5.35362
-5.45498
-5.5852
-5.73696
-5.90563
-6.08679
-6.27537
-6.46362
-6.64284
-6.80837
-6.95694
-7.08255
-7.18001
-7.24944
-7.28752
-7.29475
-7.2712
-7.21688
-7.13686
-7.03013
-6.90002
-6.75113
-6.58617
-6.41025
-6.22584
-6.03799
-5.85101
-5.66489
-5.48557
-5.31947
-5.16874
-5.04229
-4.94638
-4.87825
48810
113541
260412
265816
271584
276979
281470
63964
-5.73486
-7.59652
-7.27738
-6.99345
-6.72218
-6.48737
-6.25987
-6.06216
-5.89636
-5.74616
-5.60426
-5.47453
-5.36257
-5.27293
-5.20942
-5.17606
-5.172
-5.19869
-5.25591
-5.341
-5.45045
-5.57788
-5.72069
-5.8769
-6.04136
-6.20502
-6.361
-6.50649
-6.63772
-6.74868
-6.83569
-6.89843
-6.93284
-6.93972
-6.92034
-6.87552
-6.80701
-6.71292
-6.59862
-6.468
-6.3216
-6.16419
-6.00034
-5.83381
-5.66613
-5.499
-5.33878
-5.18906
-5.05241
-4.93888
-4.85275
-4.79075
424382
424557
424521
424462
424376
424259
424102
423896
423626
423272
422809
422198
421388
420300
418817
416751
413774
409251
401702
387700
424022
424182
424141
424076
423981
423852
423680
423454
423160
422776
422274
421612
420733
419550
417927
415648
412322
407185
398663
383385
423689
423833
423790
423719
423617
423478
423295
423055
422744
422340
421815
421126
420217
419001
417349
415064
411820
407076
399937
388893
423388
423515
423469
423395
423287
423142
422950
422701
422380
421968
421434
420743
419839
418648
417062
414925
412011
407987
402372
394582
423118
423229
423181
423104
422993
422843
422647
422395
422071
421658
421131
420454
419584
418457
416990
415072
412552
409236
404887
399321
422882
422975
422927
422848
422735
422584
422387
422134
421814
421408
420896
420248
419427
418384
417058
415370
413226
410517
407129
402995
422679
422755
422707
422627
422515
422364
422168
421919
421606
421212
420721
420108
419344
418390
417203
415730
413910
411683
408992
405812
422510
422570
422521
422443
422331
422182
421990
421747
421443
421065
420598
420023
419315
418446
417385
416096
414542
412688
410503
407977
422373
422417
422370
422293
422184
422038
421851
421615
421322
420962
420520
419980
419325
418531
417577
416440
415098
413531
411719
409656
422269
422298
422253
422178
422071
421930
421748
421521
421241
420898
420480
419974
419364
418633
417765
416749
415574
414229
412701
410975
422195
422211
422169
422097
421994
421856
421681
421462
421194
420869
420476
420001
419430
418746
417942
417018
415975
414812
413512
412054
422144
422156
422119
422050
421949
421816
421646
421436
421181
420873
420505
420063
419525
418873
418111
417259
416339
415353
414282
413074
422084
422133
422102
422035
421937
421808
421644
421442
421199
420910
420573
420179
419675
418517
412747
399056
375874
340323
289302
201915
-0.816189
65064
62198
57051
51000.8
44129.6
36519.7
28284
19633.6
10917.2
2251.5
-1.76832
-2.40882
-1.31713
-1.37533
-1.44234
-1.47047
-0.156593
0.724461
0.833532
-0.549459
-0.196274
-0.252503
-0.245963
-0.231107
-0.216091
-0.206201
-0.205841
-0.244252
-0.333766
-0.398391
-0.0530614
-0.302219
-0.419078
-0.477828
-0.497557
-0.444396
-0.314658
-0.258326
-0.214209
-0.383342
-0.197959
-0.244003
-0.245589
-0.230855
-0.215736
-0.204301
-0.197431
-0.208282
-0.243441
-0.250317
-0.148389
-0.173169
-0.209518
-0.246723
-0.276815
-0.295372
-0.310626
-0.298558
-0.308885
-0.296703
-0.24766
-0.24201
-0.239007
-0.228855
-0.216126
-0.204421
-0.193959
-0.185321
-0.190211
-0.191069
-0.168224
-0.168529
-0.193484
-0.22034
-0.246889
-0.271526
-0.293915
-0.30242
-0.318586
-0.25539
-0.246523
-0.238106
-0.230161
-0.221068
-0.210382
-0.199852
-0.189858
-0.180366
-0.17293
-0.166664
-0.160904
-0.164952
-0.178533
-0.196815
-0.218327
-0.242079
-0.266436
-0.289104
-0.314281
-0.224914
-0.229896
-0.223711
-0.216484
-0.208685
-0.199835
-0.190838
-0.182293
-0.174476
-0.167571
-0.162121
-0.15959
-0.162521
-0.171113
-0.184467
-0.202374
-0.223771
-0.247165
-0.271788
-0.29859
-0.19725
-0.207422
-0.202839
-0.197441
-0.19149
-0.184851
-0.177991
-0.171573
-0.166003
-0.161299
-0.157804
-0.156777
-0.159446
-0.166262
-0.177228
-0.192085
-0.210422
-0.231752
-0.255344
-0.280953
-0.169218
-0.181111
-0.177941
-0.174479
-0.170564
-0.166349
-0.161943
-0.157759
-0.154204
-0.151461
-0.149991
-0.150506
-0.153578
-0.15979
-0.169476
-0.18239
-0.198426
-0.217563
-0.239168
-0.262739
-0.137215
-0.151195
-0.149793
-0.148558
-0.146916
-0.145056
-0.143029
-0.140961
-0.139093
-0.13799
-0.138429
-0.140599
-0.144486
-0.150646
-0.159662
-0.171638
-0.186305
-0.203311
-0.222493
-0.243868
-0.0952095
-0.117095
-0.118925
-0.120293
-0.120954
-0.121233
-0.121379
-0.121329
-0.121164
-0.121772
-0.123986
-0.127659
-0.132467
-0.138855
-0.147598
-0.159081
-0.172925
-0.188383
-0.20556
-0.224992
-0.0349461
-0.0791578
-0.086754
-0.09101
-0.0937071
-0.0957131
-0.0976118
-0.0994535
-0.101273
-0.103783
-0.107569
-0.112463
-0.118276
-0.125334
-0.134201
-0.145243
-0.158287
-0.172757
-0.188678
-0.206533
333818
332673
331805
332449
336364
342575
349901
357003
362672
366022
366480
363694
357097
345088
322478
353147
336694
331898
332076
335437
340983
347717
354325
359604
362675
362993
360238
354022
343628
328483
372795
353484
342327
338426
339498
343684
349302
354911
359310
361715
361726
359184
354021
346279
336460
384781
372444
362232
355941
353592
354276
356856
359837
362146
363129
362455
360008
355825
350119
343417
392467
384370
376932
371251
367715
366139
365979
366382
366623
366201
364810
362323
358767
354343
349464
398033
392220
386596
381778
378077
375525
373853
372664
371526
370091
368128
365531
362326
358659
354773
402077
397690
393275
389184
385647
382734
380342
378280
376310
374221
371862
369153
366078
362726
359326
405053
401605
398034
394537
391284
388325
385646
383163
380758
378300
375659
372750
369616
304334
11259.5
407284
404477
401508
398501
395548
392717
390023
387416
384796
382055
379162
305538
12537.7
-0.21128
-0.115089
408994
406635
404123
401525
398902
396288
393656
390980
387388
266403
-0.626554
2.69949
-0.513196
-2.53582
-1.89028
410378
408388
406255
403962
401582
399029
352570
146847
-14.6555
5.52567
-0.863175
-1.88597
-1.26475
-1.62972
-1.85536
411608
409797
401404
330829
149448
-0.717202
-2.25865
1.44147
-1.90494
-1.40172
-1.25735
-1.35839
-1.44916
-1.61022
-1.77993
89329.5
10.3271
-12.0689
3.46943
1.09426
-0.791244
-1.47177
-0.860692
-1.07304
-1.17155
-1.25879
-1.33562
-1.42528
-1.55839
-1.70456
0.609815
-0.491246
-1.29883
-0.586844
-0.494682
-0.745789
-0.867037
-0.946994
-1.0418
-1.11453
-1.19703
-1.28433
-1.38106
-1.49652
-1.62342
-0.295496
-0.428747
-0.523756
-0.541028
-0.612119
-0.720514
-0.806447
-0.891611
-0.974088
-1.05513
-1.13731
-1.2248
-1.3198
-1.42482
-1.53807
-0.359644
-0.428597
-0.482776
-0.540526
-0.604694
-0.675727
-0.759216
-0.838237
-0.91708
-0.99581
-1.07609
-1.16095
-1.25188
-1.34887
-1.45096
-0.351639
-0.407158
-0.46131
-0.515598
-0.577967
-0.643464
-0.71479
-0.787911
-0.86225
-0.937619
-1.01486
-1.09549
-1.18074
-1.27029
-1.36282
-0.346408
-0.390015
-0.437957
-0.489032
-0.54594
-0.607183
-0.67171
-0.73915
-0.808549
-0.87974
-0.952816
-1.02854
-1.10749
-1.18933
-1.27368
-0.329845
-0.368852
-0.412634
-0.460514
-0.512728
-0.569236
-0.628886
-0.690953
-0.755424
-0.821783
-0.889906
-0.960229
-1.03256
-1.10716
-1.18399
-0.310262
-0.346186
-0.386412
-0.430508
-0.478355
-0.530176
-0.585401
-0.642819
-0.702305