/*--------------------------------*- C++ -*----------------------------------*\
| =========                 |                                                 |
| \\      /  F ield         | OpenFOAM: The Open Source CFD Toolbox           |
|  \\    /   O peration     | Version:  v1912                                 |
|   \\  /    A nd           | Website:  www.openfoam.com                      |
|    \\/     M anipulation  |                                                 |
\*---------------------------------------------------------------------------*/
FoamFile
{
    version     2.0;
    format      ascii;
    class       surfaceScalarField;
    location    "52";
    object      phi;
}
// * * * * * * * * * * * * * * * * * * * * * * * * * * * * * * * * * * * * * //

dimensions      [0 3 -1 0 0 0 0];
oriented        oriented;


internalField   nonuniform List<scalar> 
40282
(
0.00276931
0.00264716
1.92179
-1.92838
1.92276
0.00562095
-1.91369
1.90147
0.0122259
-1.88626
1.86813
0.0181314
-1.8471
1.82317
0.0239264
-1.79644
1.767
0.0294427
-1.73495
1.70032
0.034623
-1.66317
1.62352
0.0396551
-1.58143
1.53696
0.0444691
-1.49017
1.44116
0.0490068
-1.38999
1.33674
0.053248
-1.28144
1.2242
0.0572394
-1.16509
1.10428
0.0608079
-1.04172
0.977616
0.0641084
-0.91187
0.844813
0.067057
-0.776185
0.706389
0.0697954
-0.634808
0.561928
0.0728803
-0.486635
0.410154
0.0764817
-0.329805
0.248481
0.0813237
-0.159488
0.0750295
0.084459
-0.00423899
0.00561135
1.8568
-1.85228
1.84531
-0.0141153
0.0210837
-1.83562
1.82316
-0.0256652
0.038126
-1.80792
1.78991
-0.0369743
0.0549835
-1.76916
1.74572
-0.0480343
0.0714753
-1.71964
1.69097
-0.0588648
0.0875353
-1.65975
1.62602
-0.0693639
0.103088
-1.58982
1.55118
-0.079427
0.11807
-1.51014
1.46677
-0.0890282
0.132401
-1.42113
1.37327
-0.0981794
0.146034
-1.32326
1.27116
-0.106816
0.158921
-1.21702
1.1609
-0.114901
0.17102
-1.10285
1.04293
-0.122365
0.182286
-0.981211
0.917755
-0.129178
0.192635
-0.852647
0.785948
-0.135269
0.201968
-0.717784
0.648245
-0.140655
0.210194
-0.57753
0.505747
-0.145583
0.217367
-0.433156
0.359932
-0.150573
0.223798
-0.286512
0.213166
-0.157116
0.230462
-0.140629
0.0739008
-0.169731
0.236459
-0.00702049
0.00837254
1.79025
-1.78606
1.77924
-0.0282242
0.0350468
-1.76976
1.75763
-0.050765
0.0628923
-1.74287
1.7255
-0.0730472
0.0904187
-1.70553
1.68298
-0.0949124
0.117462
-1.65787
1.63023
-0.116231
0.143875
-1.60008
1.56746
-0.136873
0.169488
-1.53244
1.49505
-0.15675
0.194135
-1.45537
1.41344
-0.175776
0.2177
-1.36934
1.32312
-0.193858
0.240082
-1.27484
1.22459
-0.210948
0.261198
-1.17244
1.11844
-0.227014
0.281009
-1.06268
1.0052
-0.24202
0.299493
-0.94608
0.885354
-0.255895
0.31662
-0.823081
0.759311
-0.268493
0.332263
-0.694102
0.627516
-0.279546
0.346132
-0.559636
0.490553
-0.288727
0.357809
-0.420404
0.349373
-0.295944
0.366974
-0.277745
0.205967
-0.301999
0.373778
-0.134592
0.065367
-0.308716
0.37794
-0.00965963
0.0109375
1.72614
-1.72227
1.71584
-0.0417748
0.0482061
-1.70685
1.69531
-0.0749431
0.0864868
-1.68123
1.66463
-0.107733
0.124333
-1.64552
1.62393
-0.139972
0.161562
-1.59988
1.57338
-0.171462
0.197957
-1.54448
1.5132
-0.202026
0.233306
-1.47958
1.44365
-0.231491
0.267418
-1.40546
1.36506
-0.259677
0.300082
-1.32249
1.27782
-0.286427
0.331096
-1.23112
1.18245
-0.311611
0.360277
-1.1319
1.07957
-0.335158
0.387495
-1.02553
0.969888
-0.357043
0.412685
-0.912733
0.854148
-0.377274
0.435859
-0.794209
0.732978
-0.395793
0.457024
-0.670504
0.606825
-0.412335
0.476014
-0.541977
0.475994
-0.426306
0.492289
-0.408919
0.34081
-0.436865
0.504974
-0.271787
0.202103
-0.44368
0.513364
-0.132125
0.0633753
-0.447747
0.516497
-0.0121588
0.0133664
1.66432
-1.66067
1.65458
-0.0545855
0.0606791
-1.64605
1.6351
-0.0979433
0.10889
-1.62174
1.60598
-0.140824
0.156587
-1.58783
1.5673
-0.183024
0.203549
-1.54442
1.5192
-0.224307
0.249528
-1.49166
1.46184
-0.264436
0.294261
-1.42975
1.39544
-0.303197
0.337512
-1.35893
1.32026
-0.340356
0.379022
-1.27948
1.23664
-0.375671
0.418515
-1.19178
1.14497
-0.408913
0.455723
-1.09627
1.04577
-0.439888
0.490395
-0.993535
0.93967
-0.468465
0.52233
-0.884275
0.827456
-0.494617
0.551436
-0.769319
0.709963
-0.518382
0.577739
-0.649473
0.587917
-0.539692
0.601247
-0.525345
0.461787
-0.558058
0.621616
-0.397266
0.331802
-0.572383
0.637846
-0.265431
0.19824
-0.581362
0.648553
-0.130297
0.0631739
-0.5847
0.651824
-0.0145142
0.0156424
1.60483
-1.60123
1.5955
-0.0667026
0.0724261
-1.5875
1.57721
-0.119712
0.129999
-1.56465
1.54981
-0.172177
0.187011
-1.53271
1.51336
-0.223871
0.243226
-1.49176
1.46792
-0.274524
0.298359
-1.44187
1.41361
-0.323854
0.352109
-1.38318
1.35058
-0.371602
0.4042
-1.31585
1.27901
-0.417482
0.454319
-1.2401
1.19916
-0.461189
0.502128
-1.15624
1.11137
-0.502415
0.547283
-1.06461
1.01603
-0.540857
0.589436
-0.965701
0.913693
-0.576247
0.628254
-0.860101
0.805026
-0.608414
0.663489
-0.748577
0.690869
-0.637336
0.695044
-0.632013
0.572109
-0.663058
0.722962
-0.51124
0.449465
-0.685342
0.747117
-0.386822
0.323332
-0.703166
0.766656
-0.259
0.193822
-0.714677
0.779855
-0.127669
0.0625324
-0.718595
0.783732
-0.0167076
0.0177466
1.54716
-1.54413
1.53882
-0.0780513
0.0833626
-1.53138
1.52182
-0.140115
0.149673
-1.51014
1.49633
-0.201612
0.215421
-1.48039
1.46233
-0.262299
0.280365
-1.44213
1.41982
-0.32188
0.344197
-1.39538
1.36883
-0.380039
0.406589
-1.34018
1.30942
-0.43648
0.467231
-1.27659
1.2417
-0.490865
0.525761
-1.20476
1.16581
-0.542825
0.581776
-1.12488
1.082
-0.591977
0.634855
-1.03722
0.990585
-0.637925
0.684557
-0.942158
0.892003
-0.680279
0.730434
-0.840197
0.786828
-0.718708
0.772077
-0.731999
0.675822
-0.753031
0.809208
-0.618418
0.55991
-0.783251
0.84176
-0.500409
0.44001
-0.809311
0.86971
-0.378786
0.316782
-0.830416
0.89242
-0.254014
0.190444
-0.844524
0.908094
-0.125723
0.0626522
-0.849602
0.912673
-0.0187194
0.0196585
1.4919
-1.48914
1.48429
-0.088543
0.0933931
-1.4775
1.46876
-0.159003
0.167747
-1.45806
1.44539
-0.228918
0.241586
-1.43074
1.41411
-0.298051
0.314684
-1.39548
1.37484
-0.366089
0.386727
-1.35219
1.32751
-0.432694
0.457371
-1.3008
1.27206
-0.497544
0.526285
-1.24129
1.20848
-0.560253
0.59306
-1.17365
1.13681
-0.620384
0.657228
-1.09797
1.05716
-0.677477
0.718288
-1.0144
0.969748
-0.731043
0.7757
-0.923231
0.874908
-0.780571
0.828895
-0.824842
0.773111
-0.825578
0.877309
-0.719805
0.665031
-0.865685
0.920459
-0.608909
0.551572
-0.900736
0.958073
-0.493157
0.43379
-0.93071
0.990076
-0.373585
0.312632
-0.955022
1.01597
-0.250977
0.188592
-0.971624
1.03401
-0.124807
0.0639401
-0.978346
1.03921
-0.0205271
0.021354
1.43852
-1.43588
1.43155
-0.0980762
0.102408
-1.42547
1.41764
-0.176199
0.184029
-1.40804
1.39666
-0.253853
0.265242
-1.38346
1.36843
-0.330829
0.345859
-1.35154
1.33278
-0.406817
0.425581
-1.31211
1.28952
-0.48147
0.504064
-1.26497
1.23846
-0.554451
0.580968
-1.20995
1.17943
-0.625332
0.655849
-1.14689
1.11233
-0.693613
0.728176
-1.07574
1.03713
-0.758749
0.79736
-0.99651
0.953902
-0.820147
0.862755
-0.909335
0.862849
-0.877173
0.92366
-0.814493
0.764331
-0.929185
0.979346
-0.712442
0.658922
-0.975591
1.02911
-0.603887
0.547474
-1.01601
1.07242
-0.489833
0.431122
-1.05031
1.10902
-0.371492
0.311081
-1.07805
1.13846
-0.249983
0.18821
-1.09729
1.15906
-0.124565
0.0660216
-1.106
1.16454
-0.0221063
0.0228084
1.38719
-1.38489
1.38114
-0.106535
0.11029
-1.37586
1.36905
-0.191499
0.198311
-1.36068
1.35072
-0.276133
0.286096
-1.33913
1.32589
-0.360281
0.373523
-1.31095
1.29428
-0.443657
0.460331
-1.27583
1.25555
-0.525926
0.546198
-1.23342
1.20937
-0.60675
0.630793
-1.18338
1.1554
-0.685674
0.713655
-1.12539
1.09334
-0.762135
0.794193
-1.0592
1.02297
-0.835501
0.871732
-0.984631
0.944188
-0.905067
0.94551
-0.901648
0.857031
-0.97006
1.01468
-0.81037
0.761711
-1.02966
1.07832
-0.711119
0.658678
-1.08305
1.1355
-0.604499
0.548719
-1.12956
1.18534
-0.4915
0.433028
-1.16882
1.22729
-0.373494
0.313094
-1.20039
1.26079
-0.251983
0.190225
-1.22243
1.28419
-0.125681
0.0695799
-1.23351
1.28961
-0.0234319
0.0239969
1.33755
-1.33563
1.33251
-0.113798
0.116916
-1.32812
1.32244
-0.204688
0.210373
-1.31542
1.30704
-0.295456
0.303834
-1.29725
1.286
-0.386022
0.397273
-1.27324
1.2589
-0.476156
0.490492
-1.24293
1.22527
-0.565555
0.583221
-1.20584
1.18458
-0.653906
0.675165
-1.16142
1.1363
-0.740744
0.765866
-1.10915
1.07991
-0.825454
0.854691
-1.04853
1.01496
-0.90732
0.940889
-0.979166
0.94111
-0.985521
1.02358
-0.900774
0.858154
-1.05913
1.10175
-0.813255
0.766102
-1.12712
1.17427
-0.716739
0.665233
-1.18842
1.23993
-0.611683
0.556225
-1.24201
1.29747
-0.499037
0.440339
-1.28719
1.34588
-0.380391
0.319497
-1.32338
1.38427
-0.25796
0.196037
-1.34884
1.41077
-0.130294
0.0770549
-1.36261
1.41585
-0.0244802
0.0248975
1.28978
-1.28808
1.28565
-0.119745
0.122169
-1.28223
1.27777
-0.215549
0.220004
-1.27225
1.26561
-0.311503
0.318146
-1.25779
1.24874
-0.407639
0.416693
-1.23838
1.22664
-0.503806
0.515546
-1.21344
1.19869
-0.599768
0.614514
-1.18231
1.16419
-0.695266
0.71338
-1.14425
1.12238
-0.789851
0.811718
-1.0985
1.07249
-0.882884
0.908889
-1.04428
1.01377
-0.97358
1.00409
-0.980895
0.945575
-1.061
1.09632
-0.907753
0.867383
-1.14405
1.18442
-0.824435
0.778897
-1.2215
1.26704
-0.730781
0.680124
-1.29196
1.34262
-0.627001
0.571536
-1.354
1.40946
-0.513908
0.454366
-1.40641
1.46596
-0.393237
0.330953
-1.44837
1.51066
-0.26802
0.205051
-1.47822
1.54119
-0.136927
0.0865932
-1.49527
1.5456
-0.0252314
0.025493
1.24387
-1.24261
1.24092
-0.124267
0.125952
-1.23853
1.23539
-0.223881
0.22702
-1.23146
1.22669
-0.323976
0.32875
-1.221
1.21433
-0.424723
0.431392
-1.2066
1.19771
-0.526085
0.534975
-1.18756
1.17606
-0.627925
0.639429
-1.16308
1.14851
-0.73008
0.744653
-1.13221
1.11406
-0.832162
0.85031
-1.09393
1.07167
-0.933543
0.9558
-1.04716
1.02025
-1.0334
1.06031
-0.990831
0.958765
-1.13072
1.16279
-0.923943
0.886262
-1.22425
1.26193
-0.845635
0.801995
-1.31251
1.35615
-0.755301
0.705539
-1.39379
1.44355
-0.652743
0.597002
-1.46613
1.52187
-0.538481
0.477446
-1.52769
1.58873
-0.414283
0.349564
-1.57706
1.64178
-0.284039
0.218815
-1.6125
1.67773
-0.146329
0.0989939
-1.63388
1.68122
-0.0256716
0.0257738
1.19926
-1.19865
1.19773
-0.127278
0.128193
-1.19641
1.19465
-0.229523
0.231285
-1.1924
1.18959
-0.332619
0.335422
-1.18617
1.18204
-0.436907
0.441032
-1.17713
1.17132
-0.54249
0.548301
-1.1645
1.15656
-0.649373
0.657316
-1.14735
1.13674
-0.757534
0.768145
-1.12457
1.11067
-0.866703
0.880601
-1.09488
1.077
-0.976326
0.994198
-1.05687
1.03429
-1.08561
1.10819
-1.00908
0.981034
-1.19352
1.22156
-0.949975
0.91572
-1.29869
1.33294
-0.878101
0.836964
-1.39943
1.44057
-0.792179
0.743649
-1.49369
1.54222
-0.691324
0.635222
-1.57891
1.63501
-0.575459
0.512288
-1.65236
1.71553
-0.446145
0.377765
-1.7117
1.78008
-0.308221
0.239335
-1.75484
1.82373
-0.160332
0.116422
-1.78238
1.82629
-0.0257959
0.0257398
1.15651
-1.15636
1.15623
-0.128729
0.128867
-1.15599
1.15563
-0.232368
0.232731
-1.15509
1.15431
-0.33725
0.33803
-1.15322
1.15174
-0.443896
0.445378
-1.14977
1.14721
-0.552581
0.55514
-1.14394
1.13983
-0.663483
0.667592
-1.13474
1.12849
-0.776778
0.783025
-1.12091
1.11182
-0.89238
0.901474
-1.101
1.08824
-1.00989
1.02266
-1.07331
1.05595
-1.12866
1.14601
-1.03591
1.01293
-1.2477
1.27069
-0.98672
0.957007
-1.36569
1.3954
-0.923505
0.885936
-1.48083
1.5184
-0.844033
0.797555
-1.59075
1.63723
-0.746304
0.690152
-1.69231
1.74846
-0.629088
0.56328
-1.78163
1.84743
-0.493162
0.419638
-1.85494
1.92847
-0.344207
0.269708
-1.90928
1.98378
-0.181805
0.141924
-1.94605
1.98594
-0.0256093
0.0254017
1.11524
-1.11536
1.11599
-0.128616
0.127993
-1.11682
1.11784
-0.232394
0.23138
-1.11899
1.12022
-0.337795
0.336563
-1.12147
1.12265
-0.445527
0.444343
-1.12368
1.12446
-0.55605
0.55527
-1.12488
1.12479
-0.669745
0.669831
-1.12406
1.12251
-0.787032
0.788582
-1.11995
1.11619
-0.908084
0.911847
-1.11099
1.1041
-1.03276
1.03965
-1.09525
1.08415
-1.16065
1.17175
-1.07048
1.05388
-1.29103
1.30762
-1.034
1.01041
-1.42278
1.44636
-0.982715
0.950455
-1.55424
1.5865
-0.913173
0.870404
-1.68297
1.72574
-0.821698
0.766657
-1.80536
1.8604
-0.704989
0.63661
-1.91628
1.98466
-0.561784
0.481462
-2.00983
2.09015
-0.397593
0.314262
-2.08103
2.16436
-0.214145
0.17814
-2.13231
2.16831
-0.0251276
0.0247805
1.07545
-1.07619
1.07753
-0.126987
0.125647
-1.07937
1.08169
-0.22967
0.227348
-1.08446
1.08762
-0.334311
0.331149
-1.09112
1.09491
-0.441799
0.438018
-1.09889
1.10298
-0.552777
0.548685
-1.10708
1.11108
-0.667838
0.663842
-1.11483
1.11818
-0.787681
0.784334
-1.12094
1.12292
-0.912799
0.910823
-1.12388
1.12356
-1.0434
1.04372
-1.12167
1.1179
-1.17945
1.18323
-1.11187
1.10319
-1.3207
1.32939
-1.0914
1.07599
-1.46651
1.48192
-1.05639
1.03199
-1.61574
1.64015
-1.00207
0.965888
-1.76642
1.80261
-0.922608
0.871384
-1.91504
1.96626
-0.811397
0.741982
-2.05556
2.12498
-0.66284
0.57456
-2.17943
2.26771
-0.479199
0.382136
-2.27766
2.37472
-0.265126
0.230809
-2.3534
2.38771
-0.0243771
0.023907
1.03693
-1.03807
1.04006
-0.123942
0.121953
-1.04282
1.04633
-0.224359
0.220846
-1.05057
1.05551
-0.327
0.32206
-1.06111
1.06732
-0.432904
0.426697
-1.07408
1.08132
-0.542881
0.535635
-1.08898
1.09695
-0.657723
0.649751
-1.10513
1.11338
-0.778413
0.770162
-1.12155
1.12947
-0.905796
0.897882
-1.13691
1.14366
-1.04049
1.03374
-1.14943
1.15391
-1.18297
1.17849
-1.15675
1.15751
-1.3336
1.33284
-1.15573
1.15083
-1.49257
1.49747
-1.14216
1.12895
-1.65977
1.67297
-1.11031
1.08517
-1.83452
1.85966
-1.05228
1.0102
-2.01468
2.05676
-0.95731
0.891885
-2.19488
2.26031
-0.812335
0.717844
-2.36476
2.45925
-0.609293
0.492389
-2.50914
2.62604
-0.351972
0.311435
-2.62995
2.67048
-0.023392
0.0228185
0.999889
-1.00155
1.0041
-0.119631
0.11708
-1.00766
1.01221
-0.216718
0.212166
-1.01775
1.02425
-0.316202
0.309697
-1.0317
1.04008
-0.419235
0.410863
-1.04934
1.05945
-0.526753
0.516642
-1.07036
1.08203
-0.639706
0.628044
-1.09436
1.10729
-0.759334
0.74641
-1.12069
1.13444
-0.886818
0.873067
-1.14838
1.16234
-1.02319
1.00924
-1.17609
1.18937
-1.16947
1.15619
-1.2019
1.2133
-1.32676
1.31536
-1.22315
1.23094
-1.49624
1.48845
-1.23604
1.2377
-1.67931
1.67766
-1.23495
1.22663
-1.8775
1.88582
-1.21122
1.18684
-2.0919
2.11629
-1.15107
1.10091
-2.32125
2.3714
-1.03278
0.942806
-2.55831
2.64829
-0.827777
0.689013
-2.78468
2.92345
-0.518942
0.450132
-2.99859
3.0674
-0.0222124
0.0215568
0.964307
-0.966069
0.969079
-0.114236
0.111225
-0.973289
0.978698
-0.207071
0.201662
-0.985307
0.993117
-0.302374
0.294565
-1.00212
1.01232
-0.401361
0.391161
-1.02371
1.03628
-0.505037
0.49247
-1.05002
1.06491
-0.614456
0.599565
-1.08093
1.09804
-0.731041
0.71393
-1.11619
1.13532
-0.856246
0.837114
-1.15535
1.17618
-0.991455
0.97063
-1.19767
1.21969
-1.13816
1.11614
-1.24205
1.26452
-1.2981
1.27563
-1.28683
1.30864
-1.47347
1.45166
-1.32953
1.34896
-1.6672
1.64776
-1.36624
1.38048
-1.88345
1.86921
-1.39044
1.39444
-2.12803
2.12403
-1.39012
1.37416
-2.40791
2.42386
-1.34192
1.2869
-2.72914
2.78415
-1.20069
1.07104
-3.09268
3.22233
-0.898807
0.817754
-3.51925
3.6003
0.134289
-0.247965
0.113676
-0.241312
0.32525
-0.0839379
-0.368789
0.385225
-0.0164366
-0.377632
0.356947
0.0206848
-0.313416
0.288149
0.0252673
-0.309028
0.302604
0.00642313
-0.25642
0.245756
0.0106639
-0.2478
0.22223
0.0255701
-0.141854
-0.0140441
0.155898
0.26809
-0.602853
0.334763
0.817066
-0.896588
0.0795221
0.907356
-0.876964
-0.0303918
0.852714
-0.842387
-0.0103271
0.835056
-0.792523
-0.0425327
0.779268
-1.18646
0.407191
2.20464
-2.75119
0.546546
2.67069
-2.07187
-0.598823
-0.189563
2.44169
-2.25213
-4.34137
5.76073
-1.41936
-6.66819
7.22247
-0.554276
-7.54256
7.6236
-0.0810319
-7.38912
6.99778
0.391343
-6.73945
6.61963
0.119811
-6.57037
6.55086
0.019516
-6.54149
6.53389
0.00759797
-6.52526
6.51506
0.0101912
-6.50353
6.4911
0.0124344
-6.47802
6.46446
0.0135538
-6.45056
6.43644
0.0141232
-6.42211
6.40762
0.0144863
-6.39306
6.37857
0.0144945
-6.36383
6.34835
0.0154742
-6.3317
6.31357
0.0181313
-6.29373
6.27242
0.0213055
-6.24974
6.22577
0.0239731
-6.20037
6.1736
0.0267761
-6.14532
6.1156
0.0297221
-6.08447
6.05221
0.0322628
-6.01948
5.98679
0.0326904
-5.95509
5.92419
0.0308975
-5.89387
5.86232
0.0315498
-5.82836
5.79219
0.0361722
-5.75703
5.72398
0.0330546
-5.69282
5.66198
0.0308375
-5.62788
5.59697
0.0309041
-5.57174
5.54984
0.0218977
-5.532
5.5154
0.0166003
-5.49697
5.4715
0.0254686
-5.43525
5.38987
0.0453839
-5.3398
5.29723
0.0425718
-5.2692
5.24823
0.020968
-5.21528
5.16023
0.0550554
-5.09901
5.05665
0.0423648
-5.04216
5.04321
-0.00105081
-5.04502
5.04917
-0.00414431
-5.05681
5.06412
-0.00731289
-5.07113
5.07114
-9.21702e-06
-5.05875
5.04297
0.0157783
-5.02367
4.98814
0.0355316
-4.97465
4.9205
0.0541563
0.344784
-0.428774
0.0839891
-0.16598
0.216384
0.14171
-0.192115
-0.25969
0.290582
0.0447474
-0.0756397
-0.308849
0.314001
-0.0277938
0.0226424
-0.317134
0.31489
-0.0348713
0.0371152
-0.304388
0.311624
0.00200662
-0.00924203
-0.332281
0.33567
-0.0220455
0.0186566
-0.337181
0.34289
-0.0310875
0.0253788
-0.341502
0.324379
-0.224086
0.241209
-0.304658
0.30245
-0.526099
0.528308
-0.24323
-0.817232
-0.554073
1.61454
1.64786
-2.02015
-0.0084148
0.380698
2.099
-2.07677
-0.0293222
0.00708284
1.97835
-1.74514
0.105267
-0.338477
0.985869
0.136541
-0.137662
-0.984749
-2.78678
5.25385
0.766449
-3.23352
-5.55518
5.60949
2.67838
-2.73268
-5.70769
5.77377
2.16777
-2.23386
-5.83557
5.935
1.55749
-1.65692
-6.08092
6.23862
0.814315
-0.972013
-6.38192
6.52314
0.247892
-0.38911
-6.68909
6.83768
-0.305464
0.156874
-6.90916
6.9261
-0.147303
0.130361
-6.92234
6.91319
-0.0374343
0.0465792
-6.90336
6.8934
-0.0181282
0.0280899
-6.8831
6.87234
-0.0205813
0.0313421
-6.86102
6.84913
-0.0242997
0.0361867
-6.83676
6.824
-0.0263284
0.0390863
-6.81098
6.79775
-0.0274326
0.0406653
-6.78437
6.77086
-0.0280217
0.0415284
-6.75713
6.74303
-0.0285363
0.0426367
-6.72848
6.71335
-0.0306208
0.0457535
-6.69749
6.68072
-0.03519
0.0519626
-6.66287
6.64371
-0.0408969
0.0600528
-6.62313
6.60104
-0.0465245
0.0686134
-6.57748
6.55235
-0.0523246
0.0774474
-6.52569
6.49751
-0.0582579
0.0864299
-6.46787
6.43688
-0.0633833
0.0943701
-6.40475
6.3717
-0.0653447
0.0983899
-6.33796
6.30396
-0.0637057
0.0977007
-6.26978
6.23557
-0.0631919
0.0974008
-6.20109
6.16664
-0.069732
0.104191
-6.13256
6.09794
-0.0699471
0.104567
-6.06314
6.02901
-0.0624777
0.0966097
-5.99674
5.96466
-0.06027
0.092348
-5.93298
5.90335
-0.0495009
0.0791252
-5.87614
5.85075
-0.038448
0.0638406
-5.82505
5.79694
-0.0510102
0.0791162
-5.76497
5.73158
-0.084004
0.1174
-5.70222
5.68337
-0.0752821
0.0941257
-5.66676
5.64391
-0.0393928
0.0622427
-5.61388
5.57369
-0.0998267
0.140014
-5.52593
5.48767
-0.0848054
0.123069
-5.46751
5.45527
-0.00677861
0.0190164
-5.44624
5.43704
0.000162779
0.00903118
-5.43034
5.42953
0.00944874
-0.00863704
-5.4295
5.42542
-0.00227003
0.0063565
-5.41579
5.39899
-0.0311324
0.0479228
-5.3773
5.35456
-0.0615258
0.0842697
-5.32842
5.30188
-0.0894548
0.115995
0.492157
-0.543436
0.0512794
-0.124057
0.171886
0.23888
-0.286709
-0.211045
0.24309
0.106916
-0.138961
-0.269938
0.290076
-0.00840491
-0.0117327
-0.30452
0.309608
-0.0354918
0.0304032
-0.305485
0.30724
0.0126736
-0.0144287
-0.326806
0.352584
0.000381126
-0.0261589
-0.375609
0.400414
-0.0105139
-0.0142908
-0.427808
0.452362
-0.229147
0.204593
-0.487817
0.521343
-0.476565
0.443039
-0.230735
-0.337271
-2.51216
3.08016
0.868242
-0.963468
-0.73128
0.826506
0.596455
0.127106
0.297906
-1.02147
-1.24824
3.20279
1.08169
-3.03624
-4.88444
5.24628
3.42727
-3.78911
-5.3069
5.41029
3.27269
-3.37608
-5.51367
5.61425
2.82397
-2.92454
-5.71477
5.81761
2.32466
-2.4275
-5.91888
6.02714
1.75799
-1.86625
-6.15216
6.28303
1.10633
-1.2372
-6.40774
6.53766
0.521326
-0.651245
-6.68458
6.82788
-0.00614799
-0.13715
-6.93304
6.99356
-0.0856315
0.0251116
-7.02223
7.03237
-0.0457334
0.0355931
-7.0325
7.02738
-0.0361856
0.0413049
-7.01939
7.00975
-0.0417883
0.0514255
-6.99912
6.98781
-0.0478682
0.0591809
-6.97601
6.96381
-0.0515993
0.0637943
-6.9513
6.93857
-0.0536583
0.0663896
-6.92567
6.91258
-0.0548203
0.0679071
-6.89928
6.88562
-0.0564954
0.0701588
-6.87148
6.85679
-0.0606246
0.075321
-6.8414
6.82517
-0.0683472
0.0845829
-6.80795
6.78955
-0.0786798
0.0970778
-6.76983
6.74866
-0.0900285
0.111201
-6.72598
6.70172
-0.101876
0.126139
-6.67588
6.64841
-0.114005
0.141474
-6.6193
6.58867
-0.12486
0.15549
-6.55664
6.52329
-0.131232
0.164578
-6.48881
6.45333
-0.132246
0.167732
-6.41696
6.3802
-0.132895
0.169655
-6.34368
6.3078
-0.138767
0.17465
-6.27253
6.23702
-0.138984
0.17449
-6.20111
6.16534
-0.131525
0.167296
-6.13058
6.09712
-0.125157
0.158616
-6.06484
6.03365
-0.108962
0.140152
-6.00265
5.97086
-0.0919842
0.123773
-5.93772
5.90483
-0.110779
0.143667
-5.87923
5.86298
-0.142904
0.159152
-5.85229
5.83842
-0.106562
0.120427
-5.81695
5.78806
-0.0884378
0.117321
-5.75571
5.72566
-0.174452
0.204504
-5.70726
5.69345
-0.153315
0.167122
-5.67251
5.6515
-0.0341188
0.0551268
-5.63408
5.62135
-0.0217109
0.0344449
-5.61288
5.60997
0.00659455
-0.00369015
-5.60692
5.59834
-0.012102
0.0206886
-5.58449
5.56447
-0.0660823
0.0861011
-5.53894
5.51486
-0.106535
0.130623
-5.48839
5.46573
-0.139106
0.161767
0.589057
-0.630569
0.0415115
-0.0937034
0.13955
0.333987
-0.379834
-0.179737
0.213678
0.171941
-0.205882
-0.242903
0.26597
0.033721
-0.0567878
-0.281237
0.289122
-0.0229655
0.0150799
-0.289595
0.290016
0.0156417
-0.0160624
-0.300198
0.320769
0.0508273
-0.0713981
-0.348646
0.385073
0.0473555
-0.0837823
-0.431767
0.475623
-0.174316
0.13046
-0.475207
0.344221
-0.378819
0.509804
0.248975
-0.163666
-3.38407
3.29876
-0.201706
0.925981
-0.539433
-0.184842
-2.10102
3.79715
2.15855
-3.85468
-4.86475
4.94033
4.28251
-4.35809
-5.03868
5.14347
3.89837
-4.00315
-5.25734
5.37677
3.48013
-3.59957
-5.49838
5.62237
3.03488
-3.15887
-5.74518
5.86741
2.53995
-2.66218
-5.98795
6.10902
1.98045
-2.10152
-6.23333
6.35894
1.3646
-1.49021
-6.48074
6.60202
0.776458
-0.897739
-6.72649
6.84603
0.267789
-0.387321
-6.94439
7.0137
0.0419938
-0.111306
-7.05653
7.07969
-0.017956
-0.00519659
-7.08976
7.09158
-0.0429367
0.0411146
-7.08842
7.08231
-0.0595016
0.0656138
-7.07458
7.06593
-0.0693944
0.0780432
-7.05672
7.04703
-0.0749708
0.0846577
-7.03694
7.02647
-0.07819
0.088662
-7.01572
7.00464
-0.0801396
0.0912253
-6.9932
6.98128
-0.0830493
0.0949765
-6.96878
6.95556
-0.089312
0.102536
-6.94152
6.92651
-0.100162
0.115177
-6.91042
6.89305
-0.114848
0.132215
-6.87433
6.85411
-0.131761
0.151979
-6.83235
6.80894
-0.149746
0.173153
-6.78389
6.75703
-0.168381
0.195242
-6.72836
6.6978
-0.185773
0.216337
-6.66554
6.6317
-0.197811
0.231643
-6.59652
6.55999
-0.203421
0.239949
-6.52248
6.48422
-0.206829
0.245083
-6.44586
6.4077
-0.211317
0.249471
-6.37004
6.33264
-0.210608
0.248008
-6.2956
6.25913
-0.203098
0.239568
-6.22381
6.18962
-0.19211
0.226295
-6.15624
6.12292
-0.172273
0.205586
-6.0892
6.05566
-0.157243
0.190777
-6.02469
5.99896
-0.171758
0.197479
-5.97933
5.96341
-0.173673
0.189588
-5.94758
5.92792
-0.136629
0.156293
-5.9012
5.86883
-0.148551
0.18093
-5.84584
5.84097
-0.223328
0.228201
-5.8443
5.83824
-0.173098
0.179164
-5.81932
5.79749
-0.0789759
0.100805
-5.78285
5.77689
-0.0441
0.0500631
-5.77388
5.76748
-0.000364947
0.00676812
-5.75613
5.73908
-0.0334218
0.0504683
-5.71865
5.69966
-0.106948
0.125941
-5.67615
5.64599
-0.157952
0.188102
-5.61246
5.62214
-0.184929
0.175248
0.671604
-0.716447
0.0448431
-0.0838753
0.124704
0.422538
-0.463367
-0.161538
0.193516
0.239284
-0.271262
-0.221106
0.242779
0.0793678
-0.101042
-0.256342
0.261951
-0.00797531
0.00236571
-0.260822
0.256813
0.0147645
-0.0107559
-0.256237
0.262322
0.0852732
-0.0913589
-0.274903
0.295144
0.115286
-0.135527
-0.328594
0.378888
-0.0678096
0.0175151
-0.412142
0.267421
-0.728938
0.873659
-0.0205605
0.518285
-2.99302
2.4953
-1.68961
3.52349
1.36566
-3.19954
-4.57173
4.63499
4.82461
-4.88787
-4.73197
4.84123
4.45918
-4.56845
-4.96237
5.09521
4.11714
-4.24998
-5.23717
5.38562
3.7313
-3.87975
-5.53543
5.68279
3.29368
-3.44105
-5.82641
5.96394
2.79198
-2.9295
-6.09601
6.22114
2.22459
-2.34971
-6.34161
6.4567
1.61015
-1.72523
-6.56661
6.6711
1.01058
-1.11507
-6.7716
6.86483
0.492965
-0.586194
-6.94472
7.00632
0.177491
-0.23909
-7.04957
7.07743
0.0312791
-0.0591371
-7.09387
7.1025
-0.0359899
0.0273551
-7.10588
7.10593
-0.0690085
0.0689624
-7.10418
7.1015
-0.0841158
0.0867941
-7.09826
7.09441
-0.0918032
0.0956519
-7.08987
7.08455
-0.0968419
0.102158
-7.07852
7.07178
-0.100324
0.107065
-7.06428
7.05588
-0.105229
0.113636
-7.04649
7.03597
-0.1144
0.124923
-7.02425
7.01119
-0.129122
0.142187
-6.99674
6.98076
-0.148724
0.164703
-6.96318
6.94394
-0.171509
0.190746
-6.92293
6.90031
-0.195907
0.21853
-6.87587
6.84957
-0.221538
0.247842
-6.8211
6.79041
-0.246631
0.277321
-6.75752
6.72291
-0.265482
0.300088
-6.68673
6.64917
-0.276614
0.314173
-6.61034
6.57069
-0.28359
0.32324
-6.53051
6.49029
-0.288309
0.328535
-6.4504
6.41122
-0.28592
0.325099
-6.373
6.33586
-0.275992
0.313126
-6.3001
6.26543
-0.260433
0.295105
-6.23158
6.19814
-0.238852
0.272289
-6.16534
6.13417
-0.222886
0.254056
-6.1062
6.08225
-0.221718
0.245664
-6.06186
6.04264
-0.207091
0.226313
-6.0218
5.99803
-0.179198
0.202974
-5.97496
5.95808
-0.204176
0.221064
-5.94996
5.94817
-0.229095
0.23088
-5.94652
5.94046
-0.185909
0.191966
-5.93055
5.92123
-0.115971
0.125292
-5.91406
5.90789
-0.0551754
0.0613451
-5.90143
5.89187
-0.0148072
0.0243728
-5.87966
5.87006
-0.0673544
0.0769523
-5.87133
5.87525
-0.140831
0.136909
-5.8809
5.89198
-0.174256
0.163176
-5.90206
5.91739
-0.151655
0.136323
0.771131
-0.835346
0.0642155
-0.0930177
0.128037
0.501406
-0.536425
-0.159126
0.185353
0.300505
-0.326732
-0.207013
0.223597
0.12063
-0.137214
-0.232443
0.232396
0.000640112
-0.000592996
-0.224505
0.212301
0.00307768
0.00912593
-0.200305
0.191303
0.0896565
-0.0806546
-0.18424
0.177178
0.141475
-0.134413
-0.171548
0.176857
0.0114925
-0.0168012
-0.216504
0.31547
-0.838466
0.7395
-0.0683789
1.30145
-1.81397
0.580901
-3.66912
4.35538
4.69218
-5.37844
-4.40362
4.50598
4.96814
-5.07049
-4.63262
4.77846
4.69394
-4.83978
-4.93965
5.11012
4.3995
-4.56997
-5.28562
5.46136
4.04061
-4.21634
-5.63257
5.79574
3.59705
-3.76022
-5.9477
6.0891
3.06996
-3.21136
-6.21861
6.33734
2.47247
-2.59119
-6.44508
6.54277
1.83208
-1.92977
-6.63311
6.71517
1.20838
-1.29045
-6.79056
6.85919
0.665698
-0.734328
-6.92008
6.97114
0.294184
-0.345245
-7.01205
7.04378
0.0879009
-0.119626
-7.06785
7.08681
-0.0145101
-0.00444947
-7.10078
7.11099
-0.0644174
0.0542085
-7.11903
7.12577
-0.0850708
0.0783275
-7.13155
7.13633
-0.0953555
0.0905727
-7.13975
7.14158
-0.103929
0.102103
-7.14189
7.14073
-0.110938
0.112092
-7.13806
7.13378
-0.119825
0.124102
-7.12783
7.12008
-0.13384
0.141594
-7.1105
7.09907
-0.154158
0.165584
-7.08583
7.07077
-0.179925
0.194978
-7.05384
7.03499
-0.209586
0.228437
-7.01417
6.99153
-0.24085
0.263491
-6.96711
6.94069
-0.273888
0.300313
-6.912
6.88059
-0.308055
0.339463
-6.84656
6.81042
-0.335086
0.371223
-6.77279
6.73365
-0.35215
0.391288
-6.6933
6.65219
-0.363264
0.40437
-6.6104
6.56802
-0.36951
0.411891
-6.52602
6.48511
-0.364728
0.405632
-6.4456
6.40779
-0.350213
0.388024
-6.37171
6.33709
-0.329543
0.364166
-6.30348
6.27099
-0.304964
0.337462
-6.23998
6.21107
-0.283729
0.312642
-6.18485
6.16153
-0.269036
0.292358
-6.14059
6.12062
-0.246068
0.266038
-6.10051
6.0807
-0.224783
0.244594
-6.06382
6.05219
-0.234421
0.246053
-6.04587
6.04319
-0.233514
0.236202
-6.04201
6.04089
-0.195061
0.196178
-6.03849
6.03458
-0.131225
0.135133
-6.02936
6.02275
-0.0679254
0.0745437
-6.01431
6.00478
-0.0349462
0.0444765
-5.99808
5.99812
-0.079101
0.0790613
-6.00412
6.0125
-0.130468
0.122086
-6.02279
6.03579
-0.1515
0.138499
-6.04947
6.06348
-0.122553
0.108544
0.906505
-0.977137
0.0706317
-0.114077
0.145476
0.568209
-0.599608
-0.169491
0.187733
0.348987
-0.36723
-0.202121
0.212411
0.150494
-0.160784
-0.215957
0.209791
-0.00275169
0.00891841
-0.193816
0.171659
-0.0260711
0.0482283
-0.14809
0.127022
0.0651726
-0.0441045
-0.108437
0.0872328
0.117848
-0.0966437
-0.0572626
0.0272897
0.00167887
0.028294
-0.0263962
-0.230486
-0.661454
0.918336
-1.33061
4.11719
1.99037
-4.77695
-4.05996
4.15559
5.40102
-5.49665
-4.27819
4.43001
5.19673
-5.34855
-4.60364
4.792
5.00649
-5.19486
-4.99011
5.1901
4.75594
-4.95593
-5.38777
5.5776
4.3989
-4.58873
-5.75357
5.9139
3.92334
-4.08368
-6.0573
6.18464
3.34628
-3.47362
-6.29586
6.39448
2.70076
-2.79939
-6.47765
6.54706
2.01524
-2.08465
-6.61364
6.67693
1.36093
-1.42422
-6.73981
6.79875
0.794403
-0.853345
-6.86188
6.92206
0.396286
-0.456467
-6.97725
7.02597
0.15759
-0.206307
-7.06763
7.10284
0.0300838
-0.0652911
-7.1316
7.15456
-0.0374611
0.014504
-7.17322
7.18854
-0.0667419
0.051422
-7.20147
7.21255
-0.0819264
0.0708428
-7.22173
7.22841
-0.0972555
0.0905762
-7.23278
7.23486
-0.111118
0.109036
-7.23471
7.23234
-0.127003
0.12937
-7.22766
7.22062
-0.148633
0.155675
-7.21134
7.19991
-0.176736
0.188166
-7.18663
7.17159
-0.209956
0.224998
-7.15474
7.13581
-0.247294
0.266221
-7.11481
7.09168
-0.28633
0.309461
-7.06653
7.03935
-0.326967
0.354149
-7.00997
6.97775
-0.371088
0.403311
-6.94216
6.90378
-0.40809
0.446466
-6.86415
6.82293
-0.430977
0.472204
-6.78059
6.73808
-0.445843
0.488348
-6.69497
6.65059
-0.454926
0.499304
-6.60632
6.56369
-0.447044
0.489677
-6.52285
6.48437
-0.425841
0.464322
-6.44844
6.41402
-0.398342
0.432757
-6.38094
6.34941
-0.369167
0.400703
-6.32
6.29295
-0.340343
0.367396
-6.26817
6.24554
-0.315155
0.337791
-6.22494
6.20617
-0.285361
0.304125
-6.18893
6.17329
-0.262012
0.277657
-6.16035
6.15093
-0.25634
0.265761
-6.14534
6.14311
-0.23859
0.240822
-6.14337
6.14464
-0.195933
0.194667
-6.14522
6.14401
-0.137514
0.138729
-6.14077
6.13586
-0.0804482
0.0853623
-6.12992
6.12463
-0.05203
0.0573209
-6.12282
6.12629
-0.0771733
0.073707
-6.13433
6.14504
-0.11243
0.101727
-6.15748
6.17136
-0.124996
0.111115
-6.18521
6.19858
-0.0948418
0.0814697
1.04379
-1.0982
0.0544175
-0.119653
0.158039
0.633003
-0.671389
-0.183222
0.196968
0.382009
-0.395755
-0.203328
0.206296
0.167865
-0.170834
-0.205219
0.195796
-0.0171819
0.0266053
-0.173674
0.141906
-0.0746592
0.106427
-0.107449
0.0782728
0.0183916
0.0107842
-0.059633
0.046785
0.0775703
-0.0647223
-0.0300629
-0.0205281
-0.0812305
0.131822
0.502908
0.407057
-1.79736
0.887393