/*--------------------------------*- C++ -*----------------------------------*\
| =========                 |                                                 |
| \\      /  F ield         | OpenFOAM: The Open Source CFD Toolbox           |
|  \\    /   O peration     | Version:  v1912                                 |
|   \\  /    A nd           | Website:  www.openfoam.com                      |
|    \\/     M anipulation  |                                                 |
\*---------------------------------------------------------------------------*/
FoamFile
{
    version     2.0;
    format      ascii;
    class       volVectorField;
    location    "52";
    object      U;
}
// * * * * * * * * * * * * * * * * * * * * * * * * * * * * * * * * * * * * * //

dimensions      [0 1 -1 0 0 0 0];


internalField   nonuniform List<vector> 
20320
(
(1.85728 0.00630453 0)
(1.85587 -0.00528387 0)
(1.84047 0.00438157 0)
(1.81109 0.0120335 0)
(1.7699 0.0194395 0)
(1.71849 0.0262392 0)
(1.65678 0.032234 0)
(1.5852 0.0383461 0)
(1.50405 0.044437 0)
(1.41384 0.0499433 0)
(1.3152 0.0549602 0)
(1.20858 0.0598049 0)
(1.09462 0.0639429 0)
(0.974015 0.0679893 0)
(0.847302 0.0716424 0)
(0.715109 0.0751708 0)
(0.577393 0.0794063 0)
(0.432891 0.0845794 0)
(0.279309 0.0912904 0)
(0.109783 0.0800249 0)
(1.85741 0.0112872 0)
(1.84881 0.03572 0)
(1.82943 0.0667885 0)
(1.79911 0.0979905 0)
(1.75776 0.128573 0)
(1.70562 0.158489 0)
(1.64324 0.187627 0)
(1.57088 0.215661 0)
(1.48886 0.242444 0)
(1.39761 0.268012 0)
(1.29763 0.292226 0)
(1.18938 0.314949 0)
(1.07332 0.336083 0)
(0.9499 0.35544 0)
(0.819694 0.372836 0)
(0.683354 0.38816 0)
(0.541875 0.401716 0)
(0.396624 0.414526 0)
(0.249813 0.429611 0)
(0.105391 0.460113 0)
(1.8574 0.0170789 0)
(1.8489 0.070003 0)
(1.82937 0.125709 0)
(1.79882 0.180881 0)
(1.75744 0.235142 0)
(1.70542 0.28821 0)
(1.64293 0.339683 0)
(1.57031 0.389173 0)
(1.48803 0.436512 0)
(1.39656 0.481541 0)
(1.29645 0.524104 0)
(1.18828 0.564109 0)
(1.07263 0.601481 0)
(0.950019 0.636096 0)
(0.820881 0.667633 0)
(0.685643 0.695445 0)
(0.544846 0.718645 0)
(0.399307 0.736622 0)
(0.250337 0.75081 0)
(0.10128 0.784706 0)
(1.8574 0.0228732 0)
(1.84915 0.0999469 0)
(1.82997 0.17938 0)
(1.79977 0.257911 0)
(1.75871 0.335129 0)
(1.70701 0.410582 0)
(1.64487 0.483836 0)
(1.57258 0.554484 0)
(1.49045 0.622091 0)
(1.39889 0.68625 0)
(1.29842 0.746613 0)
(1.18969 0.802961 0)
(1.07344 0.855215 0)
(0.950495 0.903419 0)
(0.821573 0.947534 0)
(0.687205 0.987071 0)
(0.54772 1.02073 0)
(0.403378 1.04657 0)
(0.254482 1.06396 0)
(0.10311 1.09863 0)
(1.8574 0.0283451 0)
(1.84929 0.128023 0)
(1.83043 0.229788 0)
(1.8007 0.330447 0)
(1.76024 0.429537 0)
(1.70922 0.526519 0)
(1.64783 0.620835 0)
(1.57628 0.711977 0)
(1.49484 0.799399 0)
(1.40388 0.882525 0)
(1.30381 0.960796 0)
(1.19516 1.03372 0)
(1.07861 1.10091 0)
(0.955011 1.16227 0)
(0.825305 1.21787 0)
(0.690367 1.26768 0)
(0.550789 1.31076 0)
(0.406801 1.34474 0)
(0.25829 1.36743 0)
(0.105716 1.40435 0)
(1.8574 0.033486 0)
(1.8495 0.154523 0)
(1.83112 0.27742 0)
(1.80211 0.3991 0)
(1.76258 0.519038 0)
(1.71263 0.636612 0)
(1.65238 0.751178 0)
(1.58198 0.862133 0)
(1.50163 0.968814 0)
(1.41162 1.0705 0)
(1.31229 1.16647 0)
(1.2041 1.256 0)
(1.08761 1.33841 0)
(0.963583 1.41325 0)
(0.832948 1.48039 0)
(0.696761 1.53995 0)
(0.55593 1.59154 0)
(0.410936 1.63306 0)
(0.261649 1.66142 0)
(0.10714 1.70129 0)
(1.8574 0.0382558 0)
(1.8498 0.179272 0)
(1.83209 0.321949 0)
(1.80412 0.46338 0)
(1.7659 0.60302 0)
(1.71748 0.740192 0)
(1.65887 0.874177 0)
(1.59013 1.0043 0)
(1.51136 1.12978 0)
(1.42273 1.24976 0)
(1.32451 1.36334 0)
(1.21705 1.46959 0)
(1.10083 1.56758 0)
(0.976483 1.65648 0)
(0.844883 1.73581 0)
(0.707121 1.80549 0)
(0.564344 1.86545 0)
(0.417373 1.91412 0)
(0.266297 1.94805 0)
(0.108847 1.9904 0)
(1.8574 0.0426097 0)
(1.8502 0.202062 0)
(1.83342 0.363017 0)
(1.80684 0.522806 0)
(1.77042 0.680903 0)
(1.72408 0.836607 0)
(1.66774 0.989156 0)
(1.6013 1.13782 0)
(1.52473 1.28171 0)
(1.43806 1.41983 0)
(1.34141 1.5511 0)
(1.23501 1.67437 0)
(1.11924 1.78845 0)
(0.994622 1.89218 0)
(0.861933 1.9846 0)
(0.722246 2.06525 0)
(0.576868 2.13403 0)
(0.426977 2.18973 0)
(0.273066 2.22883 0)
(0.110963 2.27289 0)
(1.8574 0.0464962 0)
(1.85074 0.222661 0)
(1.83517 0.400218 0)
(1.81044 0.576814 0)
(1.77638 0.751994 0)
(1.73282 0.925077 0)
(1.6795 1.09529 0)
(1.61616 1.26187 0)
(1.54258 1.42386 0)
(1.4586 1.58009 0)
(1.36416 1.72932 0)
(1.2593 1.87016 0)
(1.14425 2.00113 0)
(1.0194 2.12071 0)
(0.885425 2.22746 0)
(0.74333 2.32037 0)
(0.594524 2.39904 0)
(0.440518 2.46246 0)
(0.282229 2.50715 0)
(0.112309 2.55161 0)
(1.8574 0.0498613 0)
(1.85142 0.240809 0)
(1.83741 0.433091 0)
(1.81503 0.624762 0)
(1.78403 0.815494 0)
(1.74407 1.00467 0)
(1.69469 1.19156 0)
(1.63545 1.37542 0)
(1.56587 1.55521 0)
(1.48556 1.72966 0)
(1.39418 1.89732 0)
(1.29155 2.05654 0)
(1.17766 2.20553 0)
(1.05273 2.34237 0)
(0.917256 2.46509 0)
(0.77218 2.572 0)
(0.618981 2.66208 0)
(0.459518 2.73416 0)
(0.295094 2.78457 0)
(0.113973 2.82892 0)
(1.85741 0.0526496 0)
(1.85227 0.256235 0)
(1.84018 0.461157 0)
(1.82074 0.665965 0)
(1.79357 0.870525 0)
(1.75814 1.07435 0)
(1.71382 1.2768 0)
(1.65989 1.4772 0)
(1.5956 1.6745 0)
(1.52022 1.86733 0)
(1.43309 2.05405 0)
(1.33369 2.23277 0)
(1.22169 2.40132 0)
(1.097 2.55733 0)
(0.959904 2.69824 0)
(0.811178 2.82154 0)
(0.652361 2.92533 0)
(0.48581 3.00792 0)
(0.313747 3.06523 0)
(0.119841 3.10796 0)
(1.85741 0.0548106 0)
(1.85329 0.268675 0)
(1.84352 0.483936 0)
(1.82763 0.699723 0)
(1.80513 0.916165 0)
(1.77531 1.13297 0)
(1.7373 1.34966 0)
(1.69013 1.5657 0)
(1.6327 1.78011 0)
(1.56389 1.99147 0)
(1.48263 2.19801 0)
(1.38792 2.39758 0)
(1.27898 2.58766 0)
(1.15526 2.76536 0)
(1.01664 2.92744 0)
(0.863594 3.0704 0)
(0.697586 3.19118 0)
(0.521425 3.28712 0)
(0.338411 3.35349 0)
(0.126552 3.39239 0)
(1.85741 0.0563036 0)
(1.85447 0.277899 0)
(1.84741 0.501 0)
(1.8357 0.725389 0)
(1.81873 0.951521 0)
(1.79565 1.17937 0)
(1.76536 1.40871 0)
(1.7266 1.63923 0)
(1.67793 1.87012 0)
(1.61778 2.10001 0)
(1.54455 2.32709 0)
(1.45664 2.54904 0)
(1.35261 2.76302 0)
(1.23123 2.96562 0)
(1.09171 3.15281 0)
(0.933968 3.31994 0)
(0.759141 3.4623 0)
(0.570385 3.57563 0)
(0.372098 3.6537 0)
(0.13398 3.68755 0)
(1.85742 0.057103 0)
(1.85581 0.283736 0)
(1.8518 0.512015 0)
(1.84485 0.742428 0)
(1.83426 0.975806 0)
(1.81904 1.21246 0)
(1.79794 1.45249 0)
(1.76943 1.69593 0)
(1.73172 1.94228 0)
(1.68277 2.19036 0)
(1.62039 2.43847 0)
(1.54224 2.6843 0)
(1.44597 2.92481 0)
(1.32938 3.15617 0)
(1.19056 3.37358 0)
(1.02839 3.57103 0)
(0.843198 3.7417 0)
(0.638195 3.87879 0)
(0.41906 3.97349 0)
(0.144506 4.00258 0)
(1.85742 0.0572031 0)
(1.85726 0.286098 0)
(1.8566 0.516791 0)
(1.85489 0.750487 0)
(1.85141 0.988428 0)
(1.84511 1.23132 0)
(1.83463 1.47965 0)
(1.81826 1.73395 0)
(1.79392 1.99413 0)
(1.75915 2.25945 0)
(1.71113 2.52852 0)
(1.64671 2.79932 0)
(1.56244 3.06891 0)
(1.45471 3.33334 0)
(1.31997 3.58724 0)
(1.15517 3.82325 0)
(0.958864 4.03194 0)
(0.733468 4.20273 0)
(0.485955 4.32241 0)
(0.162066 4.34948 0)
(1.85742 0.0566215 0)
(1.85879 0.285005 0)
(1.86166 0.515324 0)
(1.86553 0.74947 0)
(1.86971 0.989105 0)
(1.87318 1.23535 0)
(1.87458 1.48915 0)
(1.87215 1.7516 0)
(1.86365 2.02323 0)
(1.84631 2.30391 0)
(1.8168 2.59289 0)
(1.77117 2.88879 0)
(1.7048 3.18931 0)
(1.61236 3.49094 0)
(1.48792 3.78841 0)
(1.32535 4.07354 0)
(1.11957 4.33416 0)
(0.869955 4.5544 0)
(0.583585 4.71337 0)
(0.191796 4.74622 0)
(1.85743 0.0553993 0)
(1.86034 0.280593 0)
(1.86681 0.507818 0)
(1.8764 0.739584 0)
(1.88855 0.977938 0)
(1.90235 1.2244 0)
(1.91657 1.48041 0)
(1.92956 1.74766 0)
(1.93913 2.02744 0)
(1.94245 2.32042 0)
(1.93593 2.6268 0)
(1.91507 2.94628 0)
(1.87424 3.27785 0)
(1.80638 3.61942 0)
(1.70274 3.96713 0)
(1.55277 4.31359 0)
(1.34492 4.64522 0)
(1.07077 4.94018 0)
(0.732865 5.1652 0)
(0.246255 5.22352 0)
(1.85743 0.0535991 0)
(1.86185 0.273113 0)
(1.87185 0.494692 0)
(1.88711 0.721352 0)
(1.90722 0.955463 0)
(1.93151 1.1989 0)
(1.959 1.45351 0)
(1.98836 1.72164 0)
(2.01769 2.00535 0)
(2.04443 2.30624 0)
(2.06515 2.62567 0)
(2.07532 2.96481 0)
(2.06889 3.32461 0)
(2.03773 3.70554 0)
(1.97069 4.10711 0)
(1.8523 4.52592 0)
(1.6618 4.95133 0)
(1.37507 5.35931 0)
(0.976493 5.70151 0)
(0.355494 5.8336 0)
(1.85744 0.0513006 0)
(1.86327 0.262916 0)
(1.8766 0.476554 0)
(1.89724 0.695602 0)
(1.925 0.922655 0)
(1.95949 1.15984 0)
(2.00013 1.40935 0)
(2.04606 1.67404 0)
(2.09595 1.95671 0)
(2.14786 2.25988 0)
(2.19904 2.58607 0)
(2.24568 2.93811 0)
(2.28239 3.31921 0)
(2.30143 3.73332 0)
(2.29123 4.18524 0)
(2.23374 4.67972 0)
(2.09996 5.21749 0)
(1.8442 5.78626 0)
(1.40509 6.33856 0)
(0.603238 6.67086 0)
(1.85744 0.0485944 0)
(1.86455 0.250426 0)
(1.8809 0.45416 0)
(1.90645 0.663403 0)
(1.94125 0.880865 0)
(1.98523 1.1088 0)
(2.03828 1.34958 0)
(2.10013 1.60645 0)
(2.17022 1.88274 0)
(2.24755 2.1817 0)
(2.33057 2.50684 0)
(2.41693 2.86232 0)
(2.50316 3.25344 0)
(2.58398 3.68743 0)
(2.651 4.17482 0)
(2.68987 4.73101 0)
(2.67372 5.37646 0)
(2.54973 6.13377 0)
(2.20506 7.01756 0)
(1.33821 7.85843 0)
(0.462441 -0.382587 0)
(1.15995 -0.12256 0)
(1.48192 -0.0107138 0)
(1.40926 0.0361077 9.53665e-21)
(1.11827 0.0477269 0)
(1.20945 0.0256896 0)
(0.905193 0.0115754 0)
(0.916522 0.0518729 0)
(0.205713 0.266402 0)
(-1.94467 0.576786 1.52077e-20)
(-3.27982 -0.132994 0)
(-3.34582 -0.153074 0)
(-3.23064 -0.0576609 -1.88063e-21)
(-3.26601 0.22876 -1.91633e-21)
(-3.55876 1.22653 0)
(-14.7644 1.97951 -2.95737e-19)
(-8.75938 1.78842 1.13491e-18)
(9.00374 -4.36426 -9.48048e-18)
(21.1162 -2.83196 0)
(26.1817 -0.976821 6.8198e-19)
(29.5967 -0.0733298 -5.29868e-19)
(27.2007 1.21771 -1.97831e-19)
(25.5971 0.220594 3.38368e-20)
(25.2641 -0.00715724 -1.83585e-20)
(25.191 -0.0169365 0)
(25.1196 -0.00905996 -7.20378e-21)
(25.028 -0.00375382 0)
(24.9241 -0.00066881 2.55467e-21)
(24.8158 0.0015163 2.74787e-21)
(24.7043 0.00333012 0)
(24.592 0.00237936 -9.72111e-23)
(24.4781 0.00404641 5.75629e-22)
(24.348 0.0105973 -5.35583e-22)
(24.1939 0.0164522 7.61348e-22)
(24.0186 0.0188797 0)
(23.8219 0.0232601 0)
(23.6029 0.0278509 1.27019e-21)
(23.3621 0.0314776 0)
(23.1099 0.0314891 -1.4876e-21)
(22.8662 0.0289701 0)
(22.632 0.0331927 0)
(22.3722 0.0152966 -1.33033e-21)
(22.1081 -0.0299778 0)
(21.8551 0.0435944 0)
(21.5901 0.0735681 1.77169e-21)
(21.3999 0.0243615 1.09197e-21)
(21.2639 0.0138099 0)
(21.1196 0.0295204 -1.81423e-22)
(20.8374 0.0584066 -9.5844e-23)
(20.4522 0.0510253 1.43866e-22)
(20.2376 0.0240961 0)
(19.9746 0.0617583 -2.1652e-22)
(19.5233 0.0539832 0)
(19.4022 -0.00572287 -1.71415e-22)
(19.4106 -0.0101931 0)
(19.46 -0.0184156 0)
(19.5054 -0.00203721 2.62358e-26)
(19.3918 0.0290006 -1.88077e-25)
(19.2169 0.0591834 0)
(19.1112 0.0870917 0)
(0.583522 -0.777956 0)
(0.891251 -0.332758 0)
(1.10887 -0.119836 -5.28309e-21)
(1.16187 0.053931 0)
(1.16851 0.073021 0)
(1.1574 -0.0125131 1.02998e-20)
(1.24603 0.0476794 -1.91208e-20)
(1.26 0.0603624 0)
(1.08405 0.474378 2.71577e-23)
(0.466286 1.03398 3.69185e-20)
(-0.0422266 1.89492 -5.8244e-22)
(-7.35384 0.226093 -4.09362e-19)
(-8.02919 0.181134 4.2294e-19)
(-7.4461 -0.177866 0)
(-2.01368 0.27609 0)
(21.2957 -5.9826 2.37909e-19)
(22.9975 -5.44685 0)
(23.3334 -4.48802 0)
(23.397 -3.31478 2.19388e-22)
(23.8389 -1.75232 0)
(24.6256 -0.61571 0)
(25.473 0.465006 0)
(26.1208 0.293838 3.38486e-20)
(26.1516 0.0839958 -1.83518e-20)
(26.0879 0.0421195 1.10071e-20)
(26.0078 0.0491534 6.68635e-21)
(25.9193 0.0589326 0)
(25.8244 0.0644093 0)
(25.7253 0.0673326 1.1926e-21)
(25.6242 0.0689634 1.21483e-24)
(25.5203 0.0706012 0)
(25.4095 0.0758203 -1.05829e-24)
(25.2875 0.0868084 1.07903e-21)
(25.1499 0.100903 0)
(24.9919 0.115074 0)
(24.8114 0.129611 2.18193e-21)
(24.6077 0.144497 0)
(24.3821 0.157511 0)
(24.1392 0.163366 0)
(23.8861 0.160734 1.50553e-21)
(23.6291 0.160439 1.51925e-21)
(23.3679 0.174934 -3.30293e-21)
(23.1104 0.16978 1.49959e-21)
(22.8504 0.154928 0)
(22.6052 0.15425 -1.02781e-21)
(22.3713 0.12903 0)
(22.17 0.101128 8.34757e-22)
(21.9734 0.128669 -2.43493e-22)
(21.7265 0.196868 -1.29772e-23)
(21.5135 0.174689 4.89306e-22)
(21.3896 0.101622 -8.89929e-23)
(21.1508 0.242747 1.53331e-22)
(20.8052 0.207828 -2.77118e-22)
(20.6558 0.025086 0)
(20.5829 0.00785341 0)
(20.5365 -0.0193553 0)
(20.5323 0.00704944 0)
(20.4499 0.0781433 7.58268e-23)
(20.2862 0.145883 -1.44804e-22)
(20.1328 0.207519 0)
(0.608875 -1.02477 0)
(0.810321 -0.520253 -1.9011e-21)
(0.96614 -0.242452 0)
(1.04826 -0.00163504 -4.35441e-21)
(1.11962 0.0668445 -8.01128e-21)
(1.13834 -0.027215 -8.52874e-21)
(1.27352 -0.0251599 0)
(1.43708 0.000693949 -1.67492e-20)
(1.46991 0.433164 0)
(1.35949 0.922616 0)
(-2.17093 5.75476 0)
(-4.57366 1.67186 0)
(-0.696402 -1.13468 0)
(7.99564 -3.52183 0)
(22.3131 -7.61287 0)
(22.3861 -6.65864 0)
(22.7581 -5.71068 0)
(23.1065 -4.69927 -2.86222e-20)
(23.439 -3.57408 0)
(23.8857 -2.31874 0)
(24.4268 -1.16701 0)
(25.1741 -0.135597 0)
(25.8819 0.113343 0)
(26.1065 0.0846112 0)
(26.1093 0.078497 0)
(26.0458 0.0929788 0)
(25.9634 0.106373 0)
(25.8741 0.114566 0)
(25.7807 0.119134 1.31168e-21)
(25.685 0.12176 0)
(25.586 0.125613 1.41021e-23)
(25.4799 0.134798 0)
(25.3627 0.151603 0)
(25.2309 0.174172 0)
(25.0803 0.199399 0)
(24.9079 0.22594 0)
(24.7122 0.253073 1.14519e-21)
(24.4935 0.277611 0)
(24.2547 0.292845 0)
(24.0002 0.296806 0)
(23.7323 0.299049 -1.48419e-21)
(23.4617 0.30943 1.49879e-21)
(23.201 0.310263 -1.33925e-21)
(22.939 0.296035 0)
(22.6849 0.281056 -1.13753e-21)
(22.4516 0.246364 0)
(22.2272 0.21218 0)
(21.9796 0.251786 0)
(21.7822 0.304377 0)
(21.7094 0.223555 -1.04193e-22)
(21.5547 0.203166 0)
(21.3089 0.372005 3.42143e-22)
(21.1662 0.328493 0)
(21.0378 0.0882766 0)
(20.9093 0.0542366 -3.5097e-23)
(20.8534 -0.010829 -6.73396e-23)
(20.8257 0.0312892 -8.31894e-23)
(20.7188 0.152337 7.07665e-23)
(20.5337 0.239047 0)
(20.3489 0.297974 3.12761e-23)
(0.678783 -1.19967 0)
(0.774083 -0.704972 0)
(0.902181 -0.372874 0)
(0.97766 -0.0892468 0)
(1.03163 0.0374731 5.38253e-21)
(1.06759 -0.0318664 0)
(1.1815 -0.123047 0)
(1.38958 -0.13011 5.51104e-23)
(1.51908 0.300987 0)
(1.43746 0.648555 6.06728e-22)
(-4.13224 6.71681 3.40196e-19)
(1.4635 0.546514 0)
(12.2667 -5.38802 0)
(21.1116 -8.59196 -2.22014e-22)
(21.546 -7.81951 1.10189e-22)
(22.007 -6.96821 -1.25667e-22)
(22.5229 -6.09671 -2.94234e-20)
(23.0251 -5.12253 0)
(23.4835 -4.02168 3.10193e-20)
(23.9414 -2.81625 0)
(24.4247 -1.65481 -1.32491e-22)
(24.9996 -0.652876 1.00049e-22)
(25.5557 -0.152547 -6.69798e-23)
(25.8179 0.0141607 1.62705e-20)
(25.8704 0.0842723 -1.04126e-20)
(25.836 0.12442 0)
(25.7741 0.146338 0)
(25.7046 0.158357 -6.24547e-24)
(25.6302 0.165399 4.24777e-24)
(25.5518 0.169739 0)
(25.468 0.176189 4.21251e-23)
(25.3749 0.189697 0)
(25.2686 0.212743 0)
(25.1458 0.243938 0)
(25.0033 0.280021 3.01897e-21)
(24.8386 0.318632 0)
(24.6503 0.358733 0)
(24.4367 0.396539 1.21777e-21)
(24.1995 0.423356 -2.64814e-21)
(23.9435 0.436984 1.39849e-21)
(23.6715 0.445333 2.8864e-21)
(23.3936 0.453944 0)
(23.1224 0.451818 2.69899e-21)
(22.8577 0.43635 0)
(22.6063 0.412439 1.11444e-21)
(22.3706 0.372409 -9.68241e-22)
(22.1309 0.343893 0)
(21.9057 0.36493 -4.91189e-22)
(21.7648 0.356951 0)
(21.6575 0.287387 1.41126e-24)
(21.4654 0.323291 5.4998e-22)
(21.2871 0.451933 -7.65046e-22)
(21.3131 0.346826 -6.00078e-22)
(21.1981 0.178628 -1.8072e-22)
(21.0929 0.094729 0)
(21.0722 0.0065948 1.46817e-22)
(20.9866 0.0844682 2.01548e-22)
(20.8374 0.224479 -8.01229e-23)
(20.6694 0.325775 0)
(20.4131 0.375529 0)
(0.774989 -1.3543 1.52888e-21)
(0.802191 -0.870937 -7.85579e-22)
(0.882037 -0.502057 0)
(0.922376 -0.17789 -2.13671e-21)
(0.932423 0.00924323 3.51316e-21)
(0.94008 -0.0263678 0)
(1.00362 -0.176807 0)
(1.12603 -0.252604 6.10179e-23)
(1.18413 0.0816855 -9.65191e-23)
(1.04309 1.69185 -3.1041e-19)
(-2.19688 5.54299 -1.74913e-19)
(10.8784 -3.6564 1.39618e-21)
(20.1444 -9.58247 -7.57033e-20)
(20.597 -8.86642 0)
(21.1559 -8.19799 9.62114e-23)
(21.8302 -7.46157 -6.41487e-20)
(22.5292 -6.60504 0)
(23.1501 -5.61301 -3.22661e-20)
(23.656 -4.48965 -3.23093e-20)
(24.068 -3.27701 0)
(24.4338 -2.09183 3.21264e-20)
(24.8087 -1.06641 -1.04816e-22)
(25.1665 -0.41215 0)
(25.3752 -0.0882165 0)
(25.4471 0.0638787 9.02388e-21)
(25.4504 0.137471 2.29185e-23)
(25.4297 0.169871 0)
(25.4031 0.186039 0)
(25.369 0.197082 6.53807e-24)
(25.3254 0.204963 0)
(25.2705 0.21588 -7.02588e-23)
(25.2001 0.235613 -3.09227e-24)
(25.1107 0.266704 -7.1636e-22)
(25 0.307828 2.1375e-21)
(24.8662 0.355632 -2.83146e-21)
(24.7083 0.406774 -3.54917e-21)
(24.5259 0.460694 0)
(24.3154 0.514175 -1.45993e-24)
(24.0766 0.55495 0)
(23.8175 0.579746 -1.38681e-21)
(23.5415 0.595522 -1.43661e-21)
(23.2569 0.605128 -1.42297e-21)
(22.9768 0.599418 -1.3533e-21)
(22.7103 0.578157 1.24769e-21)
(22.4625 0.545304 -1.12257e-21)
(22.2293 0.501943 -9.92894e-22)
(22.0023 0.468727 1.8608e-21)
(21.8064 0.458992 -1.32345e-24)
(21.6664 0.425039 -2.74305e-22)
(21.5248 0.37549 2.82008e-22)
(21.3596 0.420071 -4.19582e-22)
(21.3009 0.450918 0)
(21.2996 0.372274 9.53417e-23)
(21.2398 0.23955 -9.34493e-23)
(21.1954 0.114141 0)
(21.1498 0.0375395 1.14254e-22)
(21.062 0.143541 -4.59476e-22)
(21.0573 0.284416 1.38327e-24)
(21.1071 0.33078 0)
(21.1873 0.280901 4.46892e-24)
(0.943628 -1.56221 1.36112e-21)
(0.887889 -1.01525 0)
(0.905919 -0.614557 1.2671e-23)
(0.884014 -0.253444 0)
(0.828524 -0.00309192 0)
(0.770399 0.00335361 -2.72964e-21)
(0.762736 -0.169946 0)
(0.757796 -0.275064 6.20547e-21)
(0.602002 -0.0391341 1.39443e-22)
(0.271249 1.5545 -6.96592e-20)
(-0.925945 2.41056 1.01308e-18)
(19.4673 -10.6526 -3.7964e-19)
(19.5558 -9.81037 1.45416e-19)
(20.1918 -9.29912 3.36152e-20)
(21.0372 -8.75386 0)
(21.941 -8.06115 7.29398e-20)
(22.7608 -7.18613 0)
(23.4033 -6.13823 0)
(23.8519 -4.9491 6.79827e-20)
(24.1384 -3.67673 0)
(24.3305 -2.44247 0)
(24.4976 -1.36868 -2.25942e-20)
(24.6809 -0.627285 -3.29545e-20)
(24.8348 -0.203282 0)
(24.9392 0.0143299 -7.3015e-21)
(25.0083 0.117256 0)
(25.0536 0.160192 2.56401e-21)
(25.0895 0.182049 0)
(25.1098 0.201891 1.76988e-21)
(25.1094 0.218827 0)
(25.0872 0.239674 -1.13727e-23)
(25.0396 0.270957 -2.94928e-22)
(24.9642 0.314637 0)
(24.8615 0.368684 9.30115e-22)
(24.7321 0.430229 -1.27603e-21)
(24.5758 0.494665 1.67952e-21)
(24.3942 0.562214 -3.42975e-24)
(24.1832 0.633027 -1.14376e-21)
(23.9381 0.689598 1.29537e-21)
(23.6723 0.725546 1.06263e-24)
(23.3903 0.749419 0)
(23.0994 0.762958 1.42029e-21)
(22.8114 0.752414 1.36621e-21)
(22.5438 0.721301 0)
(22.3012 0.677908 8.4801e-25)
(22.0762 0.628064 1.00458e-21)
(21.8682 0.583275 -9.02546e-22)
(21.692 0.548751 -7.75161e-22)
(21.5532 0.50055 5.98034e-22)
(21.4195 0.459654 2.8142e-22)
(21.3037 0.47011 -2.86429e-22)
(21.2637 0.458906 -1.28671e-22)
(21.2644 0.382949 3.5389e-24)
(21.2575 0.260958 0)
(21.2288 0.139451 1.46314e-22)
(21.1722 0.0786669 0)
(21.1255 0.155636 -2.07997e-22)
(21.164 0.247174 0)
(21.2399 0.284241 0)
(21.3387 0.226526 0)
(1.07048 -1.83209 -1.38883e-21)
(1.00933 -1.13507 0)
(0.957869 -0.698305 0)
(0.865549 -0.304101 1.25611e-22)
(0.740984 0.0106971 0)
(0.603866 0.0710036 0)
(0.521428 -0.107915 0)
(0.4345 -0.209177 0)
(0.135195 0.0226259 0)
(-0.503327 1.35777 0)
(17.296 -8.85008 0)
(18.4407 -10.6265 -7.26823e-20)
(19.1333 -10.2396 0)
(20.1099 -9.91106 0)
(21.2185 -9.44013 8.05237e-20)
(22.2471 -8.74104 0)
(23.0463 -7.78999 1.47523e-22)
(23.5645 -6.63525 0)
(23.8365 -5.35906 -1.85694e-22)
(23.9228 -4.03274 0)
(23.9251 -2.8013 0)
(23.9899 -1.71088 -1.38782e-20)
(24.1362 -0.877854 -7.75834e-21)
(24.3554 -0.367168 4.42181e-21)
(24.5586 -0.0911297 -2.3921e-21)
(24.7156 0.0531469 0)
(24.8262 0.117539 9.03152e-24)
(24.9074 0.151376 5.18697e-24)
(24.9632 0.184175 0)
(24.9875 0.212706 6.46666e-22)
(24.9804 0.244459 0)
(24.9397 0.287425 2.90202e-22)
(24.8644 0.344048 1.50814e-23)
(24.7602 0.412257 2.47256e-22)
(24.6301 0.490262 0)
(24.4716 0.572929 -6.45266e-22)
(24.2849 0.660211 1.06161e-21)
(24.0692 0.754797 1.41184e-21)
(23.8143 0.836305 1.12877e-21)
(23.5373 0.88495 1.31574e-21)
(23.2479 0.911734 0)
(22.9534 0.928594 -1.39923e-21)
(22.6581 0.910262 -1.37918e-21)
(22.3896 0.865203 4.54447e-25)
(22.1545 0.808358 0)
(21.9396 0.748919 -1.01641e-21)
(21.7491 0.68875 8.9011e-22)
(21.5889 0.635228 -7.37987e-22)
(21.4577 0.573706 0)
(21.3473 0.525817 -2.55671e-22)
(21.2633 0.508161 0)
(21.2318 0.466351 0)
(21.2431 0.380226 0)
(21.2562 0.269138 0)
(21.2414 0.161812 0)
(21.2038 0.107399 0)
(21.1913 0.147383 0)
(21.2461 0.20864 4.9511e-23)
(21.3341 0.229606 1.62617e-23)
(21.4318 0.171083 -1.26473e-23)
(1.13274 -2.07608 0)
(1.09638 -1.26026 -9.48915e-24)
(1.01588 -0.75219 5.9785e-22)
(0.854952 -0.329783 -1.44692e-21)
(0.67267 0.0413722 0)
(0.464128 0.171909 0)
(0.312954 -0.0103314 0)
(0.239833 -0.134876 2.11182e-21)
(-0.0406285 0.20556 0)
(-8.40556 4.58507 0)
(17.1204 -11.1419 0)
(18.0071 -10.9832 -7.88561e-20)
(19.0523 -10.8683 0)
(20.316 -10.6588 0)
(21.5447 -10.2033 -9.07709e-20)
(22.5069 -9.41971 0)
(23.1036 -8.33341 0)
(23.353 -7.0919 0)
(23.3563 -5.77301 -2.88402e-20)
(23.2659 -4.28871 -6.73907e-20)
(23.1072 -2.94162 0)
(22.5545 -1.71526 6.04428e-21)
(22.6009 -1.11847 -1.40699e-20)
(22.7175 -0.646326 -8.67303e-21)
(22.9345 -0.323916 -8.37421e-21)
(23.1543 -0.112039 0)
(23.3499 0.0114759 0)
(23.506 0.0714039 0)
(23.6235 0.133507 0)
(23.7177 0.199234 0)
(23.8036 0.264821 0)
(24.0267 0.325213 1.0281e-20)
(24.4408 0.401569 0)
(24.5683 0.470081 0)
(24.4957 0.538779 1.10493e-20)
(24.3585 0.618701 1.22788e-20)
(24.1652 0.707734 -2.04989e-22)
(23.9409 0.824188 0)
(23.6982 0.933606 0)
(23.413 1.00405 0)
(23.1231 1.05629 0)
(22.8372 1.09738 0)
(22.5347 1.08132 0)
(22.2678 1.01617 0)
(22.0439 0.937105 0)
(21.838 0.866026 0)
(21.6613 0.786358 0)
(21.5154 0.717997 0)
(21.3923 0.640231 0)
(21.3057 0.57628 -4.63012e-22)
(21.2442 0.53928 0)
(21.2169 0.472034 0)
(21.235 0.370447 0)
(21.2598 0.268785 0)
(21.2566 0.175544 7.6169e-23)
(21.2422 0.118612 0)
(21.2581 0.127743 0)
(21.3248 0.163456 0)
(21.417 0.175046 0)
(21.5074 0.121098 -8.34049e-24)
(1.12674 -2.21684 6.03904e-22)
(1.08206 -1.42585 0)
(1.0383 -0.81173 4.79677e-21)
(0.855388 -0.328817 0)
(0.629482 0.0830203 0)
(0.369584 0.310351 0)
(0.181249 0.112723 1.98506e-21)
(0.180922 -0.107714 0)
(-0.150039 0.287286 1.13881e-19)
(16.7267 -11.2748 0)
(16.8391 -11.5436 -7.54607e-20)
(17.8818 -11.5849 7.91157e-20)
(19.226 -11.6378 0)
(20.6295 -11.4816 0)
(21.7799 -10.9468 2.00004e-19)
(22.471 -10.0038 -1.03092e-19)
(22.7124 -8.82773 1.69415e-19)
(22.7048 -7.45312 -2.73153e-19)
(21.6614 -5.40613 -2.78838e-20)
(20.8556 -4.03944 0)
(20.2653 -2.99484 1.58788e-20)
(19.9312 -1.83614 -1.9129e-20)
(19.9141 -1.1385 0)
(19.9551 -0.69724 1.17129e-20)
(20.1179 -0.405926 0)
(20.3468 -0.216378 -9.53092e-21)
(20.5989 -0.0954224 9.0667e-21)
(20.8376 -0.0158142 0)
(21.0494 0.0494774 0)
(21.2406 0.107798 0)
(21.4239 0.144549 7.1883e-21)
(21.6109 0.111978 6.2197e-21)
(21.7908 0.181606 -4.80099e-21)
(21.9645 0.393139 0)
(22.0905 0.558732 1.65684e-21)
(22.192 0.649953 -6.87572e-21)
(22.3843 0.66326 -1.18269e-21)
(22.5556 0.984145 5.09398e-22)
(22.6366 1.22423 -1.26994e-20)
(23.0096 1.22785 6.97569e-21)
(23.0267 1.1536 -1.34208e-21)
(22.7291 1.18718 -1.38563e-22)
(22.4485 1.18651 2.95988e-21)
(22.1789 1.13669 2.17802e-21)
(21.9815 1.05515 9.25911e-22)
(21.7817 0.985191 -9.83121e-22)
(21.6137 0.881649 0)
(21.4824 0.800987 -6.13167e-22)
(21.3622 0.703472 1.41255e-24)
(21.2951 0.613549 0)
(21.2516 0.566371 0)
(21.224 0.478443 0)
(21.2454 0.355429 0)
(21.2784 0.262797 -1.98618e-22)
(21.2807 0.182063 0)
(21.2809 0.115664 0)
(21.3147 0.0984905 -3.68717e-23)
(21.3901 0.113405 -5.39268e-23)
(21.4849 0.120964 -3.00821e-23)
(21.57 0.0755305 1.23312e-23)
(1.1242 -2.26294 0)
(0.99351 -1.60184 0)
(0.999852 -0.948375 0)
(0.881808 -0.320481 0)
(0.625596 0.12685 0)
(0.336992 0.444178 0)
(0.150076 0.2479 0)
(0.27326 -0.152304 0)
(-0.0333708 0.528587 0)
(15.3578 -11.6533 0)
(16.6063 -12.0827 0)
(17.9694 -12.3353 0)
(19.4955 -12.4884 0)
(20.8598 -12.2898 0)
(21.7273 -11.5747 0)
(22.0042 -10.5103 0)
(22.0791 -9.20204 0)
(20.4834 -6.90209 0)
(19.1464 -5.39657 0)
(18.1851 -3.95621 0)
(17.5432 -2.8401 0)
(17.121 -1.91307 0)
(17.0655 -1.24758 0)
(17.1636 -0.835859 0)
(17.3655 -0.573655 0)
(17.6323 -0.397983 0)
(17.931 -0.273887 7.96041e-21)
(18.231 -0.180186 0)
(18.5143 -0.100084 0)
(18.7787 -0.0295044 0)
(19.0283 0.0191624 0)
(19.2471 0.0178282 0)
(19.3983 0.0774705 0)
(19.5556 0.263767 0)
(19.7388 0.443507 0)
(19.9279 0.537685 0)
(20.085 0.545754 0)
(20.2171 0.744644 0)
(20.4481 0.909039 0)
(20.69 0.95068 0)
(20.9062 1.16119 0)
(21.2317 1.20506 0)
(21.4547 1.47668 0)
(22.0589 1.26693 0)
(21.9607 1.11598 0)
(21.7545 1.05533 0)
(21.6022 0.942532 0)
(21.4863 0.864182 0)
(21.3669 0.760342 9.49916e-22)
(21.312 0.641953 1.74322e-22)
(21.2834 0.589152 0)
(21.2592 0.488521 0)
(21.2783 0.338846 0)
(21.3123 0.253923 0)
(21.3148 0.1867 -9.72136e-23)
(21.3158 0.107559 -3.31265e-25)
(21.3528 0.0654748 -5.73421e-23)
(21.4282 0.0606077 0)
(21.5254 0.0666548 -6.74165e-23)
(21.6163 0.032519 0)
(1.1277 -2.26674 4.12044e-22)
(0.920428 -1.7209 0)
(0.875368 -1.15001 3.12274e-21)
(0.870442 -0.386163 2.48727e-21)
(0.655507 0.173112 0)
(0.340595 0.568901 0)
(0.170525 0.36226 0)
(0.592456 -0.281778 2.1457e-20)
(6.52268 -4.90688 6.25305e-19)
(15.3306 -12.3485 0)
(16.632 -12.7774 -7.44423e-20)
(18.1687 -13.1761 0)
(19.7195 -13.3497 0)
(20.8453 -12.9873 1.14321e-19)
(21.2667 -12.1203 9.70669e-20)
(21.4428 -10.9466 -4.83466e-19)
(19.5198 -8.37161 -1.75798e-22)
(17.9345 -6.52164 0)
(16.57 -4.98398 -3.89479e-20)
(15.4913 -3.69701 2.93897e-20)
(14.786 -2.68774 1.24046e-22)
(14.3791 -1.91923 -1.66173e-20)
(14.2957 -1.35817 7.4574e-21)
(14.4268 -0.997033 6.59241e-21)
(14.6812 -0.76478 0)
(15.0029 -0.605398 2.09749e-23)
(15.3556 -0.484721 7.10049e-21)
(15.7119 -0.383639 0)
(16.0548 -0.29135 6.93291e-21)
(16.3774 -0.207065 6.50676e-21)
(16.6765 -0.140438 -6.10677e-21)
(16.9327 -0.102578 5.61396e-21)
(17.1183 -0.0280317 0)
(17.2916 0.134313 0)
(17.4972 0.307043 0)
(17.7194 0.41532 0)
(17.8993 0.465617 1.06803e-21)
(18.0549 0.615306 1.00417e-21)
(18.2979 0.756349 1.03905e-23)
(18.5268 0.822238 1.0424e-21)
(18.7829 0.955311 1.14791e-21)
(19.0709 0.971463 0)
(19.3931 1.03679 -2.88869e-22)
(19.7416 1.04571 0)
(20.0491 1.0487 0)
(20.4169 1.07533 0)
(20.628 1.07734 0)
(21.1784 0.946108 0)
(21.3703 0.810625 0)
(21.3321 0.652209 -2.86297e-21)
(21.3042 0.598555 0)
(21.3115 0.496477 -1.56886e-21)
(21.3265 0.333039 -6.92842e-22)
(21.3366 0.248848 4.69478e-22)
(21.3481 0.190369 8.08107e-22)
(21.3417 0.104241 0)
(21.3619 0.0504606 2.8817e-22)
(21.4244 0.032995 2.48621e-22)
(21.5193 0.0307852 0)
(21.565 0.00442624 8.74995e-23)
(1.14271 -2.26637 -8.59125e-22)
(0.86918 -1.76465 0)
(0.747968 -1.31062 0)
(0.728906 -0.59158 1.80056e-21)
(0.637383 0.182203 0)
(0.358033 0.687138 -6.31461e-21)
(0.156944 0.494882 -9.82289e-21)
(0.683103 -0.824375 0)
(14.0444 -12.6643 5.8968e-19)
(15.3402 -12.9054 -6.50003e-20)
(16.7492 -13.5265 1.58873e-19)
(18.3628 -14.0419 0)
(19.7694 -14.1286 0)
(20.4534 -13.5621 0)
(20.6925 -12.6164 -3.08691e-19)
(19.5994 -9.98059 -1.47235e-22)
(17.1638 -7.79798 0)
(15.3484 -5.94684 0)
(13.9164 -4.51503 2.95896e-20)
(12.8361 -3.38255 0)
(12.1304 -2.52046 -1.47097e-20)
(11.757 -1.89752 0)
(11.6878 -1.46055 5.00823e-21)
(11.8463 -1.17504 5.02169e-21)
(12.1436 -0.984851 5.44513e-21)
(12.5146 -0.845785 6.03368e-21)
(12.916 -0.730145 0)
(13.3196 -0.623083 0)
(13.7085 -0.51844 -6.50377e-21)
(14.0739 -0.417787 0)
(14.4093 -0.328467 5.70262e-21)
(14.6994 -0.253595 5.19274e-21)
(14.9291 -0.157019 0)
(15.1368 -0.00759033 2.59529e-21)
(15.3636 0.153389 1.58238e-21)
(15.6038 0.272819 -4.42661e-24)
(15.815 0.35416 8.4027e-22)
(16.0079 0.476068 -4.35129e-22)
(16.2498 0.595856 0)
(16.4919 0.678396 -9.44806e-22)
(16.7586 0.776691 1.3435e-21)
(17.0417 0.811205 -1.58577e-21)
(17.346 0.843564 5.10934e-22)
(17.6367 0.856445 -9.78567e-22)
(17.9545 0.83933 6.75002e-23)
(18.2129 0.831823 1.72865e-21)
(18.5115 0.79126 0)
(18.7514 0.679434 2.68043e-21)
(18.9928 0.726642 -1.38054e-21)
(19.1676 0.637624 3.22952e-22)
(19.3631 0.468273 0)
(19.6879 0.245008 0)
(19.8298 0.311396 0)
(19.7502 0.401418 0)
(19.6192 0.254899 0)
(19.6131 0.0597809 1.83829e-22)
(19.5549 0.0841012 7.49666e-22)
(19.4219 0.109359 0)
(19.304 0.0443302 1.6638e-24)
(19.1914 0.164138 1.71859e-23)
(1.14278 -2.27318 0)
(0.824562 -1.74171 0)
(0.632543 -1.40055 4.6641e-22)
(0.552463 -0.802691 0)
(0.483094 0.0615203 0)
(0.283848 0.758217 1.54326e-21)
(-0.0134415 0.687129 -6.41027e-20)
(0.721044 -0.389086 0)
(14.0374 -12.7326 0)
(15.2744 -13.517 3.9326e-23)
(16.8297 -14.322 0)
(18.4534 -14.8797 0)
(19.5375 -14.7622 -1.22507e-19)
(19.8739 -14.0885 -1.34671e-19)
(19.8332 -11.6496 -3.27889e-19)
(16.67 -9.28663 -4.11666e-20)
(14.543 -7.00479 -4.78119e-20)
(12.7635 -5.30723 -1.26011e-22)
(11.3583 -4.01601 -2.14633e-20)
(10.3204 -3.04323 0)
(9.65373 -2.34198 0)
(9.32823 -1.86849 -6.97414e-21)
(9.29797 -1.56104 -6.90993e-21)
(9.49016 -1.36437 7.94346e-21)
(9.82162 -1.22644 4.74369e-21)
(10.2266 -1.1123 0)
(10.6597 -1.003 -6.01441e-21)
(11.0926 -0.890217 6.23759e-21)
(11.509 -0.772535 -6.13461e-21)
(11.9001 -0.653752 0)
(12.2589 -0.540235 5.34409e-21)
(12.5751 -0.433211 -4.79951e-21)
(12.843 -0.314155 0)
(13.0866 -0.166783 2.68335e-21)
(13.3361 -0.012856 -1.69264e-21)
(13.592 0.114805 -1.16328e-21)
(13.8305 0.21591 1.43652e-21)
(14.0566 0.326763 0)
(14.3053 0.433321 -5.83085e-22)
(14.5604 0.518592 0)
(14.8312 0.598581 1.29781e-21)
(15.1116 0.640404 -2.63628e-24)
(15.3944 0.665974 6.64403e-22)
(15.6659 0.68407 -8.10295e-22)
(15.9493 0.679683 0)
(16.1918 0.67536 -1.15367e-21)
(16.4625 0.646297 -5.5365e-22)
(16.6609 0.567085 -3.08581e-25)
(16.8583 0.584995 1.1738e-21)
(17.065 0.524517 0)
(17.2479 0.348949 0)
(17.3216 0.20648 0)
(17.339 0.303879 1.26646e-21)
(17.3596 0.396923 -1.54642e-21)
(17.4317 0.26188 -1.36308e-22)
(17.3879 0.107156 -7.31742e-23)
(17.318 0.132006 3.89241e-22)
(17.2831 0.145455 0)
(17.2175 0.105624 -1.20022e-23)
(17.1476 0.178135 0)
(1.10267 -2.24759 0)
(0.735604 -1.67187 0)
(0.525995 -1.41989 2.84624e-21)
(0.36625 -0.944332 0)
(0.181592 -0.0916472 1.04593e-21)