/*--------------------------------*- C++ -*----------------------------------*\
| =========                 |                                                 |
| \\      /  F ield         | OpenFOAM: The Open Source CFD Toolbox           |
|  \\    /   O peration     | Version:  v1912                                 |
|   \\  /    A nd           | Website:  www.openfoam.com                      |
|    \\/     M anipulation  |                                                 |
\*---------------------------------------------------------------------------*/
FoamFile
{
    version     2.0;
    format      ascii;
    class       volScalarField;
    location    "16";
    object      alpha.water;
}
// * * * * * * * * * * * * * * * * * * * * * * * * * * * * * * * * * * * * * //

dimensions      [0 0 0 0 0 0 0];


internalField   nonuniform List<scalar> 
20320
(
1
1
1
1
1
1
1
1
1
1
1
1
1
1
1
1
1
1
1
1
1
1
1
1
1
1
1
1
1
1
1
1
1
1
1
1
1
1
1
1
1
1
1
1
1
1
1
1
1
1
1
1
1
1
1
1
1
1
1
1
1
1
1
1
1
1
1
1
1
1
1
1
1
1
1
1
0.999999
1
1
1
1
1
1
1
1
1
1
1
1
1
1
1
1
1
1
1
1
1
1
1
1
1
1
1
1
1
1
1
1
1
1
1
1
1
1
1
1
1
1
1
1
1
1
1
1
1
1
1
1
1
1
1
1
1
1
1
1
1
1
1
1
1
1
1
1
1
1
1
1
1
1
1
1
1
1
1
1
1
1
1
1
1
1
1
1
1
1
1
1
1
1
1
1
1
1
1
1
1
1
1
1
1
1
1
1
1
1
1
1
1
1
1
1
1
1
1
1
1
1
1
1
1
1
1
1
1
1
1
1
1
1
1
1
1
1
1
0.999999
1
1
1
1
1
1
1
1
1
1
1
1
1
1
1
1
1
1
1
0.999999
1
1
1
1
1
1
1
1
1
1
1
1
1
1
1
1
1
1
1
1
1
1
1
1
1
1
1
1
1
1
1
1
1
1
1
1
1
1
1
1
1
1
1
1
1
1
1
1
1
1
1
1
1
1
1
1
1
1
1
1
1
1
1
1
1
1
1
1
1
1
1
1
1
1
1
1
1
1
1
1
1
1
1
1
1
1
1
1
1
1
1
1
1
1
1
1
1
1
1
1
1
1
1
1
1
1
1
1
1
1
1
1
1
1
1
1
1
1
1
1
1
1
1
1
1
1
1
1
1
1
1
1
1
1
1
1
1
1
1
1
1
1
1
1
1
1
1
1
1
1
1
1
1
1
1
1
1
1
1
1
1
1
1
0.999617
0.99931
0.991209
0.811953
0.999952
1
1
0.999625
0.999925
0.999999
0.999988
1
1
1
1
1
0.999996
1
1
1
1
1
1
1
1
1
1
1
1
1
1
1
1
1
1
1
1
1
1
1
1
1
1
1
1
1
1
1
1
1
1
1
1
1
1
1
1
1
1
1
0.999945
0.999581
0.980426
0.841756
1
0.727334
0.895854
0.998804
0.999893
0.999989
0.999994
1
1
1
1
0.98653
1
1
1
1
1
1
1
1
1
1
1
1
1
1
1
1
1
1
1
1
1
1
1
1
1
1
1
1
1
1
1
1
1
1
1
1
1
1
1
1
1
1
1
1
0.998663
0.999995
0.99606
0.918535
0.99996
1
0.85573
0.999877
0.999986
0.999996
1
1
1
0.572564
0.0291351
0.0328744
0.704448
1
1
1
1
1
1
1
1
1
1
1
1
1
1
1
1
1
1
1
1
1
1
1
1
1
1
1
1
1
1
1
1
1
1
1
1
1
1
1
1
1
1
1
0.998663
0.999895
1
0.493927
1
0.999662
0.997615
0.759154
0.998966
0.998637
1
1
0.992268
5.91816e-21
-3.17645e-21
1.29584e-20
0.472674
1
1
1
1
1
1
1
1
1
1
1
1
1
1
1
1
1
1
1
1
1
1
1
1
1
1
1
1
1
1
1
1
1
1
1
1
1
1
1
1
1
1
1
1
1
1
0.0440093
1
0.999578
0.999976
0.970271
0.996573
0.999898
1
1
0.998349
0.00350367
-5.00106e-21
5.33869e-20
0.268762
1
1
1
1
1
1
1
1
1
1
1
1
1
1
1
1
1
1
1
1
1
1
1
1
1
1
1
1
1
1
1
1
1
1
1
1
1
1
1
1
1
1
1
1
0.663534
0.268761
0.143178
1
0.999999
0.999999
0.999999
0.872871
0.999431
1
1
1
0.0597379
-4.19984e-21
3.0902e-19
0.384001
1
1
1
1
1
1
1
1
0.997727
0.993647
0.993016
0.994627
0.997307
1
1
1
1
1
1
1
1
1
1
1
1
1
1
1
1
1
1
1
1
1
1
1
1
1
1
1
1
1
1
0.994448
1.32853e-20
-7.1305e-22
0.336288
1
0.999999
0.999225
0.999488
0.958962
0.986315
1
1
1
0.154885
7.12455e-19
2.58959e-21
0.581473
1
1
1
1
1
0.738178
0.116997
-9.87159e-20
-2.76377e-20
-2.01191e-20
-2.46631e-20
-3.11238e-20
4.31409e-05
0.000437406
0.00146268
0.00344256
0.00698158
0.0133475
0.0240437
0.040601
0.0655654
0.0981384
0.130795
0.161067
0.191953
0.222174
0.251606
0.299228
0.325572
0.369541
0.443981
0.410292
0.39363
0.527389
0.495737
0.301728
0.314462
0.329841
0.303417
0.105625
0.00244452
-3.08888e-22
-2.19504e-23
1
0.0026627
-2.73645e-33
0.999999
0.999798
0.999999
0.997939
0.997719
0.983131
0.778043
1
1
1
0.283238
7.10648e-16
1.48679e-20
0.832178
1
1
1
1
0.231859
-5.48999e-20
-2.63593e-20
-1.59373e-20
-1.69524e-20
-1.88598e-20
-1.9893e-20
-1.92636e-20
-1.76373e-20
-1.63037e-20
-1.59202e-20
-1.62901e-20
-1.69016e-20
-1.73389e-20
-1.74774e-20
-1.7401e-20
-1.72434e-20
-1.69974e-20
-1.66625e-20
-1.6233e-20
-1.58531e-20
-1.54667e-20
-1.51363e-20
-1.46172e-20
-1.08648e-20
9.36278e-25
-1.02127e-23
1.36901e-24
7.12974e-24
3.53179e-24
-8.2678e-25
-1.33178e-21
-3.58553e-21
-4.75387e-21
-4.91476e-21
-4.27392e-21
-3.18342e-21
-1.86199e-21
-4.5913e-22
1
0.96024
0.631367
0.999181
0.999994
0.999532
0.999996
1
0.998196
0.866705
0.937663
0.999658
1
0.242814
4.40017e-15
1.33198e-30
0.974911
1
1
1
0.589872
3.56749e-20
-1.29626e-20
-1.51714e-20
-1.28849e-20
-1.14707e-20
-1.13028e-20
-1.12196e-20
-1.09195e-20
-1.05452e-20
-1.02059e-20
-9.93819e-21
-9.76738e-21
-9.71333e-21
-9.77322e-21
-9.90508e-21
-1.00382e-20
-1.01128e-20
-1.01201e-20
-1.01098e-20
-1.01572e-20
-1.03151e-20
-1.05796e-20
-1.0882e-20
-1.11091e-20
-1.11344e-20
-1.08566e-20
-1.02652e-20
-9.37223e-21
-8.27748e-21
-7.10412e-21
-5.79583e-21
-4.27839e-21
-2.61017e-21
-8.74973e-22
2.51267e-21
1.69258e-20
5.31112e-20
1.46717e-19
3.29456e-19
0.997702
0.999982
0.999932
0.999803
0.999469
0.999355
1
1
1
1
0.802616
0.97813
1
0.253007
1.6379e-14
8.94407e-31
1
1
1
1
0.00520332
-9.01848e-21
-1.0435e-20
-8.82211e-21
-7.21608e-21
-6.10992e-21
-5.80638e-21
-5.90121e-21
-6.01467e-21
-6.02981e-21
-5.98821e-21
-5.96381e-21
-5.99428e-21
-6.07535e-21
-6.17954e-21
-6.26768e-21
-6.29481e-21
-6.22054e-21
-6.02596e-21
-5.72453e-21
-5.35498e-21
-4.95915e-21
-4.55925e-21
-4.14771e-21
-3.69371e-21
-3.15966e-21
-2.51889e-21
-1.77516e-21
-9.49857e-22
-1.00186e-22
3.27896e-21
1.40064e-20
3.81343e-20
9.0745e-20
1.97418e-19
3.83844e-19
6.80597e-19
1.24175e-18
2.41596e-18
4.44469e-18
0.997702
0.999982
0.999487
0.999901
0.99886
1
0.999999
1
1
1
0.995411
1
1
0.0703083
1.95725e-14
0.26028
1
1
1
0.774213
-3.24496e-20
-1.15786e-20
-7.30535e-21
-5.58321e-21
-4.50523e-21
-3.89869e-21
-3.6311e-21
-3.5316e-21
-3.47926e-21
-3.42178e-21
-3.35104e-21
-3.27618e-21
-3.20697e-21
-3.13772e-21
-3.0565e-21
-2.94542e-21
-2.78326e-21
-2.55079e-21
-2.23942e-21
-1.85799e-21
-1.42954e-21
-9.78321e-22
-5.16856e-22
-3.84659e-23
1.82219e-21
6.10621e-21
1.38631e-20
2.92502e-20
5.88721e-20
1.11797e-19
2.02732e-19
3.6769e-19
6.83807e-19
1.27928e-18
2.32545e-18
4.01537e-18
6.74147e-18
1.1662e-17
2.07145e-17
3.50413e-17
1
0.999893
0.99953
0.999262
1
1
1
0.98241
0.996991
1
1
1
0.409236
8.83565e-15
2.0831e-14
0.71891
1
1
1
0.169398
-1.18857e-20
-4.92828e-21
-4.48209e-21
-3.73203e-21
-3.09184e-21
-2.66451e-21
-2.40629e-21
-2.23459e-21
-2.09389e-21
-1.9564e-21
-1.80835e-21
-1.64091e-21
-1.44781e-21
-1.21995e-21
-9.55248e-22
-6.6725e-22
-3.73784e-22
-7.59122e-23
8.54095e-22
3.53487e-21
8.30883e-21
1.61368e-20
2.8036e-20
4.59186e-20
7.35577e-20
1.18338e-19
1.94153e-19
3.25918e-19
5.56821e-19
9.58761e-19
1.65937e-18
2.89731e-18
5.06403e-18
8.6855e-18
1.43798e-17
2.29694e-17
3.61276e-17
5.72556e-17
9.09025e-17
1.39731e-16
0.801986
1
1
1
1
0.824795
0.137552
0.0418668
1
1
0.713828
0.0110577
3.31629e-12
6.98045e-12
9.76132e-30
0.977267
1
1
1
0.00179112
-5.84879e-21
-4.84082e-21
-3.53542e-21
-2.77872e-21
-2.20323e-21
-1.80886e-21
-1.54157e-21
-1.33635e-21
-1.14947e-21
-9.55177e-22
-7.37229e-22
-4.87322e-22
-2.18881e-22
2.67804e-23
1.08811e-21
3.72694e-21
8.29381e-21
1.52806e-20
2.57107e-20
4.13379e-20
6.49583e-20
1.00931e-19
1.56162e-19
2.42149e-19
3.79222e-19
6.03366e-19
9.76848e-19
1.60266e-18
2.64265e-18
4.34263e-18
7.09283e-18
1.15176e-17
1.84642e-17
2.87989e-17
4.3291e-17
6.29974e-17
8.96619e-17
1.25232e-16
1.71626e-16
2.29015e-16
5.40008e-21
0.0924111
0.198646
0.13225
0.00137617
-1.49801e-22
1.53432e-22
0.345465
1
1
0.494698
9.21072e-13
3.95966e-12
6.97046e-09
3.9853e-19
1
1
1
0.918547
-9.46528e-20
-5.25914e-21
-3.7512e-21
-2.83435e-21
-2.1033e-21
-1.56145e-21
-1.19281e-21
-9.34377e-22
-7.26907e-22
-5.30869e-22
-3.23321e-22
-9.70794e-23
2.8235e-22
1.70884e-21
4.28501e-21
8.23807e-21
1.44222e-20
2.42724e-20
3.99992e-20
6.50161e-20
1.04595e-19
1.66892e-19
2.64774e-19
4.19735e-19
6.68584e-19
1.07128e-18
1.71582e-18
2.71857e-18
4.22424e-18
6.40967e-18
9.48192e-18
1.36705e-17
1.92371e-17
2.64616e-17
3.56501e-17
4.678e-17
5.94453e-17
7.28671e-17
8.57058e-17
9.67058e-17
1.04802e-16
1.92253e-06
5.82153e-38
-5.13878e-29
5.90069e-20
0.436265
0.451062
0.0257055
0.478114
1
0.677477
2.31388e-20
7.1959e-12
6.5716e-12
5.67525e-09
0.419045
1
1
1
0.346422
-3.4617e-21
-5.4112e-21
-3.49357e-21
-2.32727e-21
-1.58305e-21
-1.08612e-21
-7.5994e-22
-5.33911e-22
-3.55112e-22
-1.91492e-22
-3.05395e-23
3.83458e-22
1.38779e-21
2.99223e-21
5.44011e-21
9.39055e-21
1.61402e-20
2.78279e-20
4.78924e-20
8.18334e-20
1.38242e-19
2.30317e-19
3.77007e-19
6.03514e-19
9.42554e-19
1.43689e-18
2.13982e-18
3.09572e-18
4.30394e-18
5.70321e-18
7.15239e-18
8.40305e-18
9.11326e-18
9.22718e-18
9.01702e-18
8.06791e-18
6.65601e-18
5.19627e-18
3.80846e-18
2.63188e-18
1.80892e-18
6.52457e-07
1.41105e-07
2.06352e-07
0.0491591
0.0133804
8.70245e-22
9.91906e-05
0.00620064
0.0482849
0.025084
2.78562e-09
9.29755e-13
7.7021e-08
8.77462e-09
0.850178
1
1
1
0.0470808
-6.35481e-21
-4.61597e-21
-2.95703e-21
-1.85524e-21
-1.16585e-21
-7.34766e-22
-4.65881e-22
-2.88862e-22
-1.59032e-22
-5.33662e-23
7.99735e-23
3.75095e-22
6.79199e-22
1.15238e-21
2.03032e-21
3.68341e-21
6.79671e-21
1.26428e-20
2.34894e-20
4.30741e-20
7.70017e-20
1.32812e-19
2.1903e-19
3.42032e-19
5.00459e-19
6.79107e-19
8.33163e-19
8.72248e-19
8.43907e-19
6.90498e-19
4.5958e-19
2.59215e-19
1.21779e-19
5.06996e-20
2.11468e-20
1.22507e-20
1.17068e-20
1.41749e-20
1.568e-20
1.49558e-20
1.11643e-20
1.97169e-07
3.90421e-06
0.00111065
-2.21305e-21
1.55426e-08
1.75344e-06
1.41397e-06
4.22191e-06
3.44333e-05
0.000630725
2.12333e-25
2.10342e-08
5.02047e-07
5.38753e-26
0.997136
1
1
1
-9.50657e-19
-6.23893e-21
-3.99422e-21
-2.41135e-21
-1.44243e-21
-8.40438e-22
-4.83312e-22
-2.74836e-22
-1.49177e-22
-6.87252e-23
-1.57979e-23
3.7349e-23
8.11771e-23
1.09391e-22
1.58027e-22
2.55767e-22
4.51086e-22
8.36469e-22
1.59064e-21
3.01875e-21
5.5556e-21
9.62553e-21
1.53007e-20
2.17779e-20
2.58616e-20
2.55693e-20
2.04094e-20
1.18201e-20
4.76125e-21
1.2355e-21
2.44659e-22
1.04516e-22
1.21731e-22
2.91957e-22
7.48664e-22
1.62142e-21
2.67047e-21
2.86835e-21
2.53936e-21
1.48994e-21
7.34857e-22
7.40092e-22
7.03477e-11
3.27479e-05
0.000214757
4.14438e-07
1.03971e-06
3.63651e-07
7.23067e-06
1.80536e-05
2.27979e-06
4.45876e-06
3.40028e-06
3.65891e-07
-6.1769e-26
0.0666093
1
1
1
0.66173
-2.7112e-20
-5.53384e-21
-3.19925e-21
-1.92719e-21
-1.09786e-21
-5.92225e-22
-3.08746e-22
-1.5603e-22
-7.38554e-23
-2.9555e-23
-7.10485e-24
3.28437e-24
6.05337e-24
4.61563e-24
5.12829e-24
7.58741e-24
1.26967e-23
2.18885e-23
3.71668e-23
6.01005e-23
8.92482e-23
1.20357e-22
1.33701e-22
1.29532e-22
1.06241e-22
5.89904e-23
1.36334e-23
3.32032e-24
3.39094e-24
5.46463e-24
1.38647e-23
3.61497e-23
7.9329e-23
1.17592e-22
1.18475e-22
8.65871e-23
4.2524e-23
3.45434e-23
3.87699e-23
5.70295e-23
7.78111e-23
1.15252e-22
8.89252e-06
0.000134271
1.14605e-24
7.76144e-07
2.96099e-44
5.51136e-08
1.21703e-06
2.31454e-25
1.79338e-07
3.46784e-08
-6.00234e-25
2.5267e-08
5.40559e-09
0.671521
1
1
1
0.200591
-1.36061e-22
-4.19669e-21
-2.56129e-21
-1.52634e-21
-8.20769e-22
-4.07281e-22
-1.91091e-22
-8.50792e-23
-3.49229e-23
-1.22883e-23
-3.18713e-24
-3.76935e-25
1.26083e-25
1.2458e-25
1.73202e-25
3.24419e-25
6.17393e-25
1.1713e-24
2.14033e-24
3.5516e-24
4.87098e-24
5.12302e-24
4.36392e-24
2.15143e-24
4.5114e-25
8.46914e-26
9.52496e-26
2.16656e-25
5.3616e-25
1.05467e-24
1.24805e-24
1.06088e-24
5.13047e-25
2.72719e-25
2.55977e-25
2.93668e-25
5.85351e-25
3.25869e-24
3.08219e-23
3.26558e-22
3.31856e-21
2.83122e-20
5.38903e-05
1.92791e-05
-3.0204e-26
-1.12491e-25
6.31763e-08
2.12646e-07
4.45826e-12
3.56021e-10
8.53324e-10
1.85623e-06
1.66935e-08
2.26747e-06
-1.29889e-19
0.978798
1
1
1
0.00673005
-5.63371e-21
-3.72707e-21
-2.15767e-21
-1.20683e-21
-6.02377e-22
-2.72737e-22
-1.14269e-22
-4.44025e-23
-1.56476e-23
-4.76944e-24
-1.17186e-24
-2.10893e-25
-2.12673e-26
6.95271e-27
1.21328e-26
1.70171e-26
2.43473e-26
3.14471e-26
3.18894e-26
2.08084e-26
4.4374e-27
7.31767e-28
2.11752e-28
2.15851e-28
5.89295e-28
1.57087e-27
2.92925e-27
3.20204e-27
2.28834e-27
8.55493e-28
4.31591e-28
4.7423e-28
2.0777e-27
2.87339e-26
4.57389e-25
6.927e-24
9.57391e-23
1.19849e-21
1.3554e-20
1.3804e-19
1.25238e-18
9.29762e-18
0.000166312
4.00292e-06
-2.67074e-32
8.64053e-13
6.31839e-09
7.49363e-11
2.20623e-08
-1.95635e-23
0.000215852
8.24586e-06
0.00010604
-2.08292e-24
-6.53702e-19
1
1
1
0.98644
2.99675e-20
-5.21067e-21
-3.23477e-21
-1.79435e-21
-9.37288e-22
-4.31548e-22
-1.77186e-22
-6.57776e-23
-2.20765e-23
-6.59052e-24
-1.69809e-24
-3.63565e-25
-6.21429e-26
-8.02148e-27
-6.16108e-28
8.45333e-29
8.1424e-29
3.66368e-29
4.38388e-30
3.78258e-32
3.06514e-32
8.05818e-32
3.35381e-31
1.01623e-30
1.89502e-30
2.02377e-30
1.2843e-30
6.76538e-31
9.8514e-31
4.1574e-30
2.40854e-29
2.92614e-28
5.36194e-27
9.77264e-26
1.62422e-24
2.44124e-23
3.3283e-22
4.12842e-21
4.66575e-20
4.79506e-19
4.45695e-18
3.69168e-17
2.50208e-16
0.000835396
9.31749e-06
1.3277e-13
6.9558e-14
0.00154291
0.00070301
-1.09413e-24
0.00055839
0.000382187
0.000100021
3.10157e-05
-3.83446e-21
0.599406
1
1
1
0.407228
-2.45188e-20
-5.45133e-21
-2.77304e-21
-1.46683e-21
-7.09656e-22
-3.00361e-22
-1.11296e-22
-3.63125e-23
-1.04044e-23
-2.58908e-24
-5.50003e-25
-9.77493e-26
-1.42718e-26
-1.68897e-27
-1.60316e-28
-1.20905e-29
-7.19229e-31
-3.368e-32
-1.24612e-33
-2.16566e-35
1.01563e-34
2.53993e-34
2.77834e-34
2.96464e-34
7.3176e-34
4.78247e-33
3.02489e-32
1.60915e-31
7.27888e-31
3.94659e-30
4.66266e-29
8.57015e-28
1.62814e-26
2.91073e-25
4.83062e-24
7.41786e-23
1.05077e-21
1.36634e-20
1.61989e-19
1.7371e-18
1.66655e-17
1.40443e-16
9.54386e-16
0.000832631
1.22679e-05
1.36361e-13
0.000352879
0.00201807
-2.37991e-22
4.47706e-06
0.000322227
-4.82542e-26
0.000106077
7.80274e-06
-3.68928e-20
0.963656
1
1
1
0.0646261
1.76321e-37
-3.54686e-21
-2.26039e-21
-1.15614e-21
-5.21424e-22
-2.02597e-22
-6.73777e-23
-1.91397e-23
-4.61841e-24
-9.40471e-25
-1.60385e-25
-2.27384e-26
-2.66324e-27
-2.57222e-28
-2.05311e-29
-1.363e-30
-7.59288e-32
-3.58876e-33
-1.45581e-34
-5.1128e-36
-1.36809e-37
1.64187e-37
2.75535e-36
4.33839e-35
6.01024e-34
6.99969e-33
6.29343e-32
4.16019e-31
1.84764e-30
4.95475e-30
1.55731e-29
1.73616e-28
3.27866e-27
6.24158e-26
1.12915e-24
1.9193e-23
3.03742e-22
4.42575e-21
5.86893e-20
6.99025e-19
7.36987e-18
6.7227e-17
4.83042e-16
0.000829914
1.23487e-06
-1.53132e-23
0.00201523
0.000518445
3.28705e-05
0.000156653
3.79415e-33
3.21329e-06
0.00010606
-3.35683e-23
-3.0992e-18
1
1
1
1
3.43802e-19
-3.62277e-21
-2.82286e-21
-1.77005e-21
-8.81983e-22
-3.71957e-22
-1.32212e-22
-3.91904e-23
-9.58352e-24
-1.9169e-24
-3.12598e-25
-4.15599e-26
-4.5143e-27
-4.01667e-28
-2.94187e-29
-1.78725e-30
-9.10483e-32
-3.9382e-33
-1.46605e-34
-4.76409e-36
-1.36883e-37
-1.46629e-39
1.23724e-37
2.70029e-36
3.69201e-35
3.30062e-34
1.97268e-33
7.96227e-33
1.6083e-32
1.67997e-32
2.04225e-32
1.20241e-31
2.24245e-30
4.55807e-29
9.06749e-28
1.73074e-26
3.12938e-25
5.30777e-24
8.34576e-23
1.19841e-21
1.54512e-20
1.75467e-19
1.7031e-18
1.28344e-17
1.56915e-13
7.04586e-15
1.35929e-06
1.76594e-05
2.27698e-24
0.00126781
0.000848359
6.11154e-09
1.41555e-07
6.84247e-05
2.71251e-23
0.662389
1
1
1
0.613773
3.40682e-21
-4.06892e-21
-2.55184e-21
-1.40927e-21
-6.5893e-22
-2.57855e-22
-8.33539e-23
-2.18191e-23
-4.53133e-24
-7.37269e-25
-9.38609e-26
-9.39934e-27
-7.46789e-28
-4.75278e-29
-2.44924e-30
-1.03538e-31
-3.64706e-33
-1.08986e-34
-2.81571e-36
-6.40893e-38
-1.30169e-39
2.39728e-40
7.45614e-39
1.02136e-37
7.57154e-37
2.79551e-36
3.86598e-36
3.37052e-36
1.24219e-36
1.26225e-36
1.16041e-35
1.95518e-34
3.29188e-33
5.46351e-32
8.87953e-31
1.40241e-29
2.1296e-28
3.06548e-27
4.11063e-26
5.0283e-25
5.47646e-24
5.15537e-23
4.03019e-22
2.35128e-21
2.42573e-12
7.6815e-15
2.51599e-07
9.41679e-11
-6.07237e-25
0.00126535
0.00163111
2.49115e-06
7.81143e-05
1.63254e-05
2.99152e-26
0.994046
1
1
1
0.136801
-2.60915e-38
-4.45905e-21
-2.25342e-21
-1.12049e-21
-4.82759e-22
-1.7364e-22
-5.06572e-23
-1.15814e-23
-2.01053e-24
-2.60266e-25
-2.50691e-26
-1.81109e-27
-9.93258e-29
-4.19247e-30
-1.38304e-31
-3.62907e-33
-7.75034e-35
-1.38325e-36
-2.12336e-38
-2.88549e-40
-3.51925e-42
1.05691e-42
1.2312e-41
6.56507e-41
1.611e-40
1.78771e-40
1.35111e-40
3.21756e-41
3.19333e-41
3.04904e-40
4.48263e-39
6.22902e-38
8.18173e-37
1.02066e-35
1.21205e-34
1.36422e-33
1.4445e-32
1.4172e-31
1.25873e-30
9.89399e-30
6.6811e-29
3.6999e-28
1.62994e-27
5.52442e-27
4.3244e-11
1.4355e-11
1.63487e-11
5.01896e-12
2.05185e-07
0.000945993
0.00149562
1.59029e-23
9.30589e-05
-2.4739e-23
0.185374
1
1
1
1
-4.84101e-19
-6.5195e-21
-3.41997e-21
-1.87355e-21
-8.7145e-22
-3.44925e-22
-1.13286e-22
-2.95715e-23
-5.83048e-24
-8.30407e-25
-8.32129e-26
-5.83101e-27
-2.87462e-28
-1.00675e-29
-2.53571e-31
-4.66371e-33
-6.3908e-35
-6.72723e-37
-5.6698e-39
-4.01503e-41
-2.51134e-43
-1.40116e-45
3.48511e-45
4.74451e-44
1.43476e-43
1.35835e-43
4.16412e-44
6.93694e-46
2.08666e-46
1.98614e-45
2.74925e-44
3.35353e-43
3.66789e-42
3.6697e-41
3.3855e-40
2.85596e-39
2.19169e-38
1.52358e-37
9.35558e-37
4.96842e-36
2.21436e-35
7.90153e-35
2.15325e-34
3.311e-34
3.20532e-34
2.04772e-10
2.34859e-10
5.3331e-12
1.0211e-06
4.58302e-09
5.34866e-05
5.12252e-24
1.00018e-23
1.73951e-05
-4.33102e-20
0.880547
1
1
1
0.698046
2.5093e-22
-4.2398e-21
-2.93961e-21
-1.5318e-21
-6.58856e-22
-2.39181e-22
-7.13559e-23
-1.65168e-23
-2.76572e-24
-3.15774e-25
-2.36933e-26
-1.1478e-27
-3.57483e-29
-7.13314e-31
-9.07408e-33
-7.34399e-35
-3.80375e-37
-1.29744e-39
-3.10616e-42
-5.73561e-45
-9.10728e-48
7.8071e-50
2.8565e-48
1.09017e-47
9.43923e-48
1.56815e-48
4.73916e-51
2.79393e-52
2.70134e-51
3.80602e-50
4.34928e-49
4.34906e-48
3.835e-47
2.85114e-46
1.86519e-45
1.06539e-44
5.20963e-44
2.19076e-43
7.77794e-43
2.19396e-42
4.62261e-42
6.11035e-42
5.70706e-42
3.31577e-42
7.1492e-43
2.31092e-10
1.90283e-09
3.9019e-12
6.91598e-07
8.53306e-25
3.26338e-06
4.64488e-09
6.69086e-05
7.0781e-06
-2.44667e-18
1
1
1
1
0.149489
3.32313e-37
-4.1716e-21
-2.57546e-21
-1.22396e-21
-4.8331e-22
-1.60482e-22
-4.32403e-23
-8.77773e-24
-1.22667e-24
-1.09164e-25
-5.86502e-27
-1.8337e-28
-3.22323e-30
-3.03584e-32
-1.42737e-34
-2.99715e-37
-2.37515e-40
-5.67981e-44
-3.19732e-48
-4.05587e-53
1.31387e-56
1.29429e-53
1.08016e-52
1.26766e-52
2.51014e-53
1.03415e-55
5.70769e-59
5.98811e-58
8.34735e-57
9.31822e-56
9.55966e-55
7.66949e-54
5.12728e-53
2.75402e-52
1.25528e-51
4.81196e-51
1.47294e-50
3.49263e-50
6.47917e-50
8.41337e-50
8.03849e-50
5.07951e-50
1.51868e-50
1.30459e-51
-8.08145e-53
2.33231e-10
2.5232e-09
2.37851e-10
5.64511e-09
6.19532e-06
1.8106e-06
4.9729e-09
8.62424e-05
1.06316e-23
0.781403
1
1
1
1
-4.69421e-19
-4.63773e-21
-3.49794e-21
-2.10195e-21
-9.39101e-22
-3.42491e-22
-1.03802e-22
-2.5107e-23
-4.41429e-24
-5.03489e-25
-3.3715e-26
-1.22362e-27
-2.22812e-29
-1.82973e-31
-5.58425e-34
-4.05594e-37
-6.34739e-42
-6.69228e-59
-1.79609e-60
-7.3409e-62
0
2.2668e-60
1.84708e-58
4.48568e-58
2.66448e-58
1.12813e-59
-3.9745e-86
1.93296e-65
2.58142e-64
2.66327e-63
1.97755e-62
6.03907e-62
-9.11827e-61
-2.21134e-59
-2.9035e-58
-2.7216e-57
-2.03601e-56
-1.27472e-55
-6.81145e-55
-3.00313e-54
-1.04762e-53
-2.89305e-53
-6.32648e-53
-1.09085e-52
-1.48237e-52
-1.57853e-52
0.00688472
1.79871e-07
4.29112e-10
-1.3463e-28
1.0664e-05
4.62132e-07
2.21747e-05
1.13331e-05
1.59524e-19
1
1
1
1
0.598221
1.22356e-21
-3.96259e-21
-3.06812e-21
-1.66447e-21
-6.9405e-22
-2.33719e-22
-6.44734e-23
-1.38957e-23
-2.08485e-24
-1.88814e-25
-9.07649e-27
-2.04683e-28
-1.83982e-30
-4.81005e-33
-1.29791e-36
-1.8258e-53
-6.24688e-56
-3.49526e-58
-3.18212e-60
-5.52594e-62
-1.82118e-63
-5.09858e-65
2.22157e-64
3.21586e-64
9.13799e-65
2.35854e-66
-2.3296e-67
-4.63135e-66
-8.40012e-65
-1.38535e-63
-2.06652e-62
-2.7681e-61
-3.30288e-60
-3.47732e-59
-3.19807e-58
-2.54092e-57
-1.72778e-56
-9.93016e-56
-4.71533e-55
-1.80832e-54
-5.46061e-54
-1.26875e-53
-2.24467e-53
-3.06339e-53
-3.2677e-53
-2.75093e-53
0.00872955
6.25038e-06
1.65857e-10
3.99491e-07
3.45311e-06
4.2056e-07
8.3735e-05
1.36564e-22
0.777202
1
1
1
1
0.0910136
-9.26924e-21
-4.02278e-21
-2.6241e-21
-1.28811e-21
-4.95117e-22
-1.53188e-22
-3.83165e-23
-7.29692e-24
-9.15893e-25
-6.35433e-26
-2.05165e-27
-2.51891e-29
-8.0891e-32
-1.62959e-35
-3.87665e-50
-1.17668e-52
-5.54353e-55
-3.86445e-57
-3.43702e-59
-3.36978e-61
-3.72149e-63
-6.76259e-65
-2.39523e-66
-1.05496e-67
-4.54862e-69
-1.79619e-69
-3.34197e-68
-7.15926e-67
-1.40922e-65
-2.52805e-64
-4.09885e-63
-5.94512e-62
-7.62933e-61
-8.54721e-60
-8.24762e-59
-6.7579e-58
-4.62952e-57
-2.60559e-56
-1.18198e-55
-4.23003e-55
-1.16762e-54
-2.44212e-54
-3.86062e-54
-4.68253e-54
-4.40574e-54
-3.36458e-54
0.00873579
0.00202946
5.35868e-12
1.74028e-06
1.07471e-07
1.36904e-05
1.44421e-05
0.00657693
1
1
1
1
1
-2.76941e-20
-4.77834e-21
-3.88036e-21
-2.16464e-21
-9.60353e-22
-3.39393e-22
-9.61231e-23
-2.17044e-23
-3.6159e-24
-3.71131e-25
-1.87694e-26
-3.68756e-28
-1.94588e-30
-8.28664e-34
-5.65189e-47
-1.75296e-49
-7.65873e-52
-4.96235e-54
-4.42078e-56
-4.55861e-58
-4.55159e-60
-4.08786e-62
-3.43488e-64
-3.44753e-66
-7.34236e-68
-2.8869e-69
-2.51537e-70
-2.239e-69
-4.98954e-68
-1.02747e-66
-1.93134e-65
-3.28691e-64
-5.01647e-63
-6.7873e-62
-8.03615e-61
-8.20487e-60
-7.10937e-59
-5.13272e-58
-3.02406e-57
-1.42048e-56
-5.18369e-56
-1.43227e-55
-2.93898e-55
-4.47175e-55
-5.1407e-55
-4.54332e-55
-3.2771e-55
0.00253105
-1.26928e-22
-1.0142e-23
7.11666e-08
1.81633e-06
5.28858e-05
-5.52192e-24
0.886139
1
0.999999
1
1
0.309778
-8.20386e-21
-6.26901e-21
-3.57222e-21
-1.7138e-21
-6.86989e-22
-2.22754e-22
-5.75939e-23
-1.16884e-23
-1.68456e-24
-1.37008e-25
-4.70591e-27
-4.77919e-29
-6.14688e-32
-4.8084e-44
-1.75411e-46
-7.8927e-49
-4.91119e-51
-4.28957e-53
-4.69715e-55
-5.21852e-57
-5.20154e-59
-4.62999e-61
-3.69011e-63
-2.67004e-65
-1.93602e-67
-2.29234e-69
-7.71242e-71
-1.14829e-70
-2.59903e-69
-5.60524e-68
-1.1044e-66
-1.97154e-65
-3.15779e-64
-4.48543e-63
-5.57668e-62
-5.97698e-61
-5.43029e-60
-4.10306e-59
-2.52129e-58
-1.22818e-57
-4.6066e-57
-1.29141e-56
-2.64369e-56
-3.93923e-56
-4.36708e-56
-3.68289e-56
-2.51583e-56
8.44388e-05
2.15202e-06
2.31767e-06
1.48536e-08
1.8083e-06
7.6015e-06
0.349271
1
0.999999
0.999999
1
1
-1.48652e-19
-5.65968e-21
-5.48151e-21
-2.93915e-21
-1.28398e-21
-4.69873e-22
-1.39632e-22
-3.2896e-23
-5.97976e-24
-7.3584e-25
-4.54709e-26
-9.48416e-28
-3.58086e-30
-2.17762e-41
-1.03834e-43
-5.38222e-46
-3.4656e-48
-2.99737e-50
-3.37733e-52
-4.16716e-54
-4.67314e-56
-4.6804e-58
-4.19112e-60
-3.3628e-62
-2.42276e-64
-1.57502e-66
-9.61279e-69
-7.3937e-71
-5.84665e-72
-1.04976e-70
-2.37076e-69
-4.89917e-68
-9.18111e-67
-1.54526e-65
-2.30698e-64
-3.01503e-63
-3.39581e-62
-3.2387e-61
-2.56416e-60
-1.64545e-59
-8.32272e-59
-3.21367e-58
-9.15538e-58
-1.87281e-57
-2.73688e-57
-2.93201e-57
-2.36608e-57
-1.53266e-57
2.70918e-06
2.94437e-05
7.48675e-26
6.20776e-25
4.96626e-05
0.00486003
1
0.999999
0.999999
1
1
0.525096
-1.02275e-21
-5.58986e-21
-4.21576e-21
-2.19884e-21
-9.10845e-22
-3.07371e-22
-8.37483e-23
-1.79657e-23
-2.91617e-24
-3.02587e-25
-1.34275e-26
-1.39808e-28
-6.95587e-32
-3.4004e-41
-2.21682e-43
-1.6078e-45
-1.44442e-47
-1.66381e-49
-2.23871e-51
-2.85488e-53
-3.23838e-55
-3.27954e-57
-2.97306e-59
-2.41936e-61
-1.77074e-63
-1.16737e-65
-6.9489e-68
-3.7999e-70
-2.35144e-72
-3.37671e-72
-7.93138e-71
-1.71943e-69
-3.38467e-68
-5.98696e-67
-9.4062e-66
-1.29364e-64
-1.53332e-63
-1.5371e-62
-1.27673e-61
-8.56363e-61
-4.50338e-60
-1.79158e-59
-5.19364e-59
-1.06265e-58
-1.5249e-58
-1.58049e-58
-1.22161e-58
-7.50281e-59
7.788e-24
3.40513e-23
9.80177e-05
8.81523e-05
4.44908e-19
0.969706
1
0.999999
1
1
1
0.0133871
-2.58535e-21
-4.43997e-21
-3.10676e-21
-1.57237e-21
-6.15555e-22
-1.92497e-22
-4.8273e-23
-9.45438e-24
-1.37111e-24
-1.19083e-25
-3.53426e-27
-1.20244e-29
-6.10545e-39
-5.27274e-41
-4.634e-43
-4.5934e-45
-5.53735e-47
-7.95857e-49
-1.15864e-50
-1.50292e-52
-1.73335e-54
-1.78425e-56
-1.64532e-58
-1.36379e-60
-1.01852e-62
-6.86523e-65
-4.18279e-67
-2.30579e-69
-1.15628e-71
-1.4236e-73
-2.12565e-72
-4.8384e-71
-1.00092e-69
-1.86281e-68
-3.08082e-67
-4.46413e-66
-5.57412e-65
-5.88465e-64
-5.13569e-63
-3.60679e-62
-1.97389e-61
-8.09999e-61
-2.39016e-60
-4.89539e-60
-6.90087e-60
-6.92101e-60
-5.1246e-60
-2.98149e-60
4.67335e-08
0.000163611
4.6577e-05
-6.79079e-19
0.91094
1
1
1
1
1
0.613082
1.58063e-20
-5.09288e-21
-4.35292e-21
-2.42226e-21
-1.09075e-21
-3.96856e-22
-1.15849e-22
-2.69837e-23
-4.8612e-24
-6.35143e-25
-4.68864e-26
-8.94702e-28
-3.90252e-31
-7.25626e-39
-8.06179e-41
-9.37604e-43
-1.22968e-44
-1.88474e-46
-3.09733e-48
-4.62924e-50
-6.1282e-52
-7.20857e-54
-7.56879e-56
-7.12505e-58
-6.03702e-60
-4.61428e-62
-3.18782e-64
-1.99458e-66
-1.1307e-68
-5.79403e-71
-2.70626e-73
-4.71761e-74
-1.10055e-72
-2.39591e-71
-4.6963e-70
-8.18941e-69
-1.25177e-67
-1.64901e-66
-1.83574e-65
-1.68622e-64
-1.24192e-63
-7.08501e-63
-3.00292e-62
-9.03133e-62
-1.85148e-61
-2.56218e-61
-2.48491e-61
-1.76126e-61
-9.69311e-62
1.10057e-05
4.53726e-05
1.61448e-19
0.931881
1
1
1
1
1
1
0.00386512
-4.62458e-21
-6.02546e-21
-3.5789e-21
-1.72912e-21
-7.13672e-22
-2.44198e-22
-6.75772e-23
-1.48606e-23
-2.50818e-24
-3.03134e-25
-2.03566e-26
-3.17053e-28
-7.56626e-31
-8.54335e-39
-1.20351e-40
-1.80674e-42
-3.00797e-44
-5.47264e-46
-9.47537e-48
-1.44722e-49
-1.95729e-51
-2.35233e-53
-2.5248e-55
-2.43179e-57
-2.10995e-59
-1.65339e-61
-1.17247e-63
-7.54231e-66
-4.40145e-68
-2.32511e-70
-1.10948e-72
-5.59204e-75
-2.04302e-74
-4.68262e-73
-9.68283e-72
-1.78292e-70
-2.87931e-69
-4.00811e-68
-4.7118e-67
-4.56134e-66
-3.52936e-65
-2.10276e-64
-9.21919e-64
-2.82837e-63
-5.80785e-63
-7.89015e-63
-7.38968e-63
-5.00615e-63
-2.60147e-63
0.213298
0.139893
1
1
1
1
1
1
1
0.403566
0
-7.9874e-21
-5.0709e-21
-2.54517e-21
-1.14043e-21
-4.42181e-22
-1.44562e-22
-3.87288e-23
-8.26282e-24
-1.35322e-24
-1.59782e-25
-1.1203e-26
-2.83238e-28
-1.75889e-30
-9.87727e-39
-1.73164e-40
-3.24745e-42
-6.51639e-44
-1.29765e-45
-2.29551e-47
-3.58077e-49
-4.94526e-51
-6.07516e-53
-6.66763e-55
-6.57505e-57
-5.84654e-59
-4.70014e-61
-3.4234e-63
-2.2636e-65
-1.35955e-67
-7.39873e-70
-3.64064e-72
-1.61714e-74
-3.69924e-76
-7.40875e-75
-1.62228e-73
-3.16613e-72
-5.42415e-71
-8.00784e-70
-9.97794e-69
-1.02163e-67
-8.32736e-67
-5.19434e-66
-2.36152e-65
-7.40298e-65
-1.52355e-64
-2.03177e-64
-1.83656e-64
-1.18817e-64
-5.82118e-65
1
1
1
1
1
1
1
1
1
1
1
1
1
1
1
1
1
1
1
1
1
1
1
1
1
1
1
1
1
1
1
1
1
1
1
1
1
1
1
1
1
1
1
1
1
1
1
1
1
1
1
1
1
1
1
1
1
1
1
1
1
1
1
1
1
1
1
1
1
1
1
1
1
1
1
1
1
1
1
1
1
1
1
1
1
1
1
1
1
1
1
1
1
1
1
1
1
1
1
1
1
1
1
1
1
1
1
1
1
1
1
1
1
1
1
1
1
1
1
1
1
1
1
1
1
1
1
1
1
1
1
1
1
1
1
1
1
1
1
1
1
1
1
1
1
1
1
1
1
1
1
1
1
1
1
1
1
1
1
1
1
1
1
1
1
1
1
1
1
1
1
1
1
1
1
1
1
1
1
1
1
1
1
1
1
1
1
1
1
1
1
1
1
1
1
1
1
1
1
1
1
1
1
1
1
1
1
1
1
1
1
1
1
1
1
1
1
1
1
1
1
1
1
1
1
1
1
1
1
1
1
1
1
1
1
1
1
1
1
1
0.238392
1
1
1
1
1
1
1
1
0.999919
0.997118
0.99076
0.980372
0.964767
0.942767
0.911646
0.868326
0.808485
0.707068
0.553583
-2.60372e-26
0.000612907
-2.37954e-22
-1.23819e-22
-2.34645e-23
-7.85251e-24
-1.38428e-23
-2.34824e-23
-3.33423e-23
-4.47938e-23
-6.07833e-23
-8.2702e-23
-1.10203e-22
-1.41366e-22
-1.7355e-22
-2.04857e-22
-2.35395e-22
-2.73809e-22
-5.82647e-23
-1.18048e-22
-5.75971e-27
-8.42588e-26
-5.6252e-25
-1.41156e-24
-2.84296e-24
-5.00562e-24
-7.90102e-24
-1.13469e-23
-1.5019e-23
-1.85117e-23
-2.13843e-23
-2.33038e-23
-2.40793e-23
-2.36942e-23
-2.23041e-23
-2.01857e-23
-1.77377e-23
-1.53766e-23
-1.28443e-23
-1.02274e-23
-9.7292e-28
-3.43509e-27
-2.07995e-26
-6.54411e-26
-1.50133e-25
-2.86167e-25
-4.75168e-25
-7.05694e-25
-9.54468e-25
-1.1908e-24
-1.38264e-24
-1.50461e-24
-1.54359e-24
-1.50068e-24
-1.3897e-24
-1.2331e-24
-1.057e-24
-8.82516e-25
-7.14743e-25
-5.57854e-25
-1.26964e-28
-2.14459e-28
-9.27973e-28
-3.10686e-27
-7.86369e-27
-1.62763e-26
-2.88684e-26
-4.51909e-26
-6.37e-26
-8.20125e-26
-9.74642e-26
-1.07816e-25
-1.11824e-25
-1.09468e-25
-1.01811e-25
-9.0593e-26
-7.77125e-26
-6.46897e-26
-5.23465e-26
-4.11268e-26
-1.23688e-29
-1.6154e-29
-5.63572e-29
-1.88388e-28
-5.0841e-28
-1.13039e-27
-2.13724e-27
-3.52431e-27
-5.16879e-27
-6.84987e-27
-8.31263e-27
-9.34481e-27
-9.83137e-27
-9.76769e-27
-9.23679e-27
-8.36996e-27
-7.30842e-27
-6.17428e-27
-5.05667e-27
-4.01848e-27
-9.97507e-31
-1.22798e-30
-3.84912e-30
-1.3133e-29
-3.76448e-29
-8.94176e-29
-1.7897e-28
-3.07298e-28
-4.62079e-28
-6.21878e-28
-7.64212e-28
-8.71813e-28
-9.3468e-28
-9.49244e-28
-9.17209e-28
-8.4523e-28
-7.44495e-28
-6.28889e-28
-5.1194e-28
-4.04175e-28
-6.49045e-32
-8.08496e-32
-2.46624e-31
-8.96339e-31
-2.74587e-30
-6.91002e-30
-1.44058e-29
-2.52062e-29
-3.81068e-29
-5.15138e-29
-6.40465e-29
-7.45117e-29
-8.1677e-29
-8.43826e-29
-8.20512e-29
-7.51547e-29
-6.51726e-29
-5.40123e-29
-4.33019e-29
-3.39928e-29
-2.85347e-33
-4.0759e-33
-1.27633e-32
-5.1517e-32
-1.68831e-31
-4.42895e-31
-9.3925e-31
-1.6345e-30
-2.44744e-30
-3.31693e-30
-4.19375e-30
-4.98202e-30
-5.52883e-30
-5.69315e-30
-5.43602e-30
-4.84951e-30
-4.10146e-30
-3.34816e-30
-2.68068e-30
-2.12547e-30
-5.85429e-35
-1.33262e-34
-4.66365e-34
-2.14898e-33
-7.40705e-33
-1.97556e-32
-4.15173e-32
-7.03867e-32
-1.03739e-31
-1.41708e-31
-1.8274e-31
-2.19535e-31
-2.41578e-31
-2.42256e-31
-2.23512e-31
-1.93737e-31
-1.61751e-31
-1.32644e-31
-1.07723e-31
-8.65959e-32
-2.81378e-37
-2.27656e-36
-1.01687e-35
-5.22305e-35
-1.81472e-34
-4.78726e-34
-9.76208e-34
-1.59397e-33
-2.32208e-33
-3.224e-33
-4.22204e-33
-5.03524e-33
-5.37e-33
-5.1611e-33
-4.59735e-33
-3.93176e-33
-3.31013e-33
-2.75905e-33
-2.26399e-33
-1.82176e-33
-7.24432e-41
-1.44544e-38
-8.36236e-38
-4.37848e-37
-1.47324e-36
-3.79534e-36
-7.47531e-36
-1.18027e-35
-1.72413e-35
-2.45022e-35
-3.22186e-35
-3.73372e-35
-3.78741e-35
-3.473e-35
-3.03035e-35
-2.61228e-35
-2.23378e-35
-1.86921e-35
-1.52035e-35
-1.20802e-35
1
1
1
1
1
1
1
1
1
1
1
1
1
1
1
1
1
1
1
1
1
1
1
1
1
1
1
1
1
1
1
1
1
1
1
1
1
1
1
1
1
0.999999
0.999999
0.999999
1
0.999999
0.999999
1
1
1
1
1
1
1
1
1
0.999999
1
1
1
1
1
1
1
1
1
1
1
1
1
1
1
1
1
1
1
1
1
1
1
1
1
1
1
1
1
1
1
1
1
1
1
1
1
1
1
1
1
1
1
1
1
1
1
1
1
1
1
1
1
1
1
1
1
1
1
1
1
1
0.919026
1
1
1
1
1
1
1
1
1
1
1
1
0.888458
0.160893
-7.22054e-20
1
1
1
0.999999
1
1
1
1
1
1
0.794399
0.053171
-2.25191e-20
-1.07633e-20
-6.51176e-21
1
1
1
1
1
1
1
0.931707
0.478193
6.4822e-21
-1.26758e-21
-2.23828e-21