/*--------------------------------*- C++ -*----------------------------------*\
| =========                 |                                                 |
| \\      /  F ield         | OpenFOAM: The Open Source CFD Toolbox           |
|  \\    /   O peration     | Version:  v1912                                 |
|   \\  /    A nd           | Website:  www.openfoam.com                      |
|    \\/     M anipulation  |                                                 |
\*---------------------------------------------------------------------------*/
FoamFile
{
    version     2.0;
    format      ascii;
    class       surfaceScalarField;
    location    "16";
    object      alphaPhi0.water;
}
// * * * * * * * * * * * * * * * * * * * * * * * * * * * * * * * * * * * * * //

dimensions      [0 3 -1 0 0 0 0];
oriented        oriented;


internalField   nonuniform List<scalar> 
40282
(
0.00282737
0.00258306
1.94217
-1.94889
1.94348
0.00540988
-1.9348
1.92296
0.0118334
-1.90819
1.89082
0.0173656
-1.87069
1.84768
0.0230111
-1.82217
1.79421
0.0279543
-1.76366
1.73071
0.0329449
-1.6956
1.65832
0.0372817
-1.61891
1.57755
0.0413579
-1.53433
1.48933
0.0450017
-1.44267
1.39457
0.0481083
-1.34523
1.29476
0.0504711
-1.24334
1.19144
0.0518932
-1.1395
1.08761
0.0518858
-1.03607
0.985393
0.0506787
-0.934463
0.87973
0.0547333
-0.816593
0.739742
0.0768511
-0.645145
0.531343
0.113802
-0.396004
0.245421
0.150583
-0.107985
0.0162088
0.0917765
-0.0041306
0.0054774
1.87646
-1.87209
1.86532
-0.0137256
0.0204907
-1.8559
1.84382
-0.0248654
0.0369419
-1.82909
1.81167
-0.0356314
0.0530455
-1.79169
1.7692
-0.0461527
0.0686375
-1.74419
1.71674
-0.0561528
0.0836021
-1.68695
1.6548
-0.0657275
0.0978775
-1.62038
1.58382
-0.0747037
0.111267
-1.5451
1.50435
-0.0829186
0.123673
-1.4617
1.41712
-0.0903991
0.134979
-1.37076
1.32281
-0.0970297
0.144976
-1.27314
1.2219
-0.102339
0.153578
-1.16959
1.11616
-0.106288
0.159719
-1.06152
1.00588
-0.107597
0.163239
-0.948067
0.885418
-0.10925
0.171899
-0.816177
0.740869
-0.122898
0.198206
-0.661387
0.5799
-0.157894
0.239381
-0.498264
0.417999
-0.204729
0.284995
-0.340737
0.265753
-0.235861
0.310845
-0.18734
0.0996904
-0.190253
0.277902
-0.00686485
0.00819749
1.8092
-1.80509
1.79841
-0.027478
0.0341577
-1.78915
1.7773
-0.0492433
0.0610896
-1.7629
1.74599
-0.0705875
0.087503
-1.72656
1.70465
-0.0912843
0.113194
-1.68031
1.65356
-0.111178
0.137929
-1.62445
1.59309
-0.130208
0.161578
-1.55946
1.52361
-0.148095
0.183939
-1.48568
1.44566
-0.164708
0.204722
-1.40362
1.35973
-0.17999
0.223877
-1.31401
1.26646
-0.193519
0.241074
-1.2174
1.16696
-0.205196
0.255633
-1.11495
1.06145
-0.213974
0.267475
-1.00586
0.946299
-0.22168
0.281236
-0.881535
0.812004
-0.240786
0.310317
-0.739062
0.664154
-0.275867
0.350774
-0.588592
0.513546
-0.319229
0.394275
-0.439996
0.368537
-0.361292
0.432751
-0.299012
0.230062
-0.383226
0.452176
-0.159126
0.0833054
-0.360115
0.435936
-0.00947139
0.0107363
1.74441
-1.7406
1.73425
-0.0407626
0.0471074
-1.72538
1.71402
-0.0729197
0.0842827
-1.70018
1.68385
-0.104423
0.120751
-1.66508
1.64391
-0.13513
0.1563
-1.62034
1.59442
-0.164779
0.190696
-1.56621
1.53567
-0.193122
0.223657
-1.50288
1.46793
-0.22005
0.254992
-1.43082
1.39157
-0.245153
0.284403
-1.35035
1.30713
-0.268261
0.311477
-1.26195
1.21512
-0.289264
0.336093
-1.16669
1.11648
-0.306933
0.357145
-1.06453
1.01014
-0.322312
0.376701
-0.951778
0.888919
-0.343961
0.40682
-0.822443
0.753638
-0.381229
0.450035
-0.683594
0.61316
-0.424832
0.495266
-0.543021
0.473734
-0.467542
0.53683
-0.405671
0.338917
-0.502863
0.569617
-0.273145
0.207561
-0.520581
0.586166
-0.141005
0.0722073
-0.509107
0.577905
-0.0119502
0.0131581
1.68192
-1.67829
1.67222
-0.0534395
0.0595065
-1.66376
1.65288
-0.0956067
0.106482
-1.6396
1.62396
-0.137057
0.152696
-1.60598
1.58564
-0.17745
0.19779
-1.56298
1.53804
-0.216599
0.241535
-1.5108
1.48132
-0.254264
0.283748
-1.44968
1.41583
-0.290028
0.32388
-1.37978
1.3417
-0.323803
0.361882
-1.30156
1.25937
-0.35503
0.397226
-1.2154
1.1697
-0.383251
0.428953
-1.12207
1.07262
-0.408005
0.457454
-1.02078
0.965175
-0.43273
0.488332
-0.905446
0.842513
-0.471186
0.534119
-0.777586
0.711606
-0.518753
0.584733
-0.645225
0.578918
-0.564787
0.631094
-0.513049
0.447875
-0.605112
0.670286
-0.383523
0.319949
-0.635832
0.699406
-0.256906
0.193954
-0.651515
0.714467
-0.130517
0.0659926
-0.645524
0.710048
-0.0143111
0.0154464
1.6218
-1.61819
1.61246
-0.0655135
0.071241
-1.60443
1.59411
-0.117294
0.127611
-1.58155
1.56673
-0.168213
0.183034
-1.54962
1.53026
-0.218032
0.237392
-1.50869
1.48487
-0.266387
0.290201
-1.45885
1.43068
-0.313128
0.341293
-1.40031
1.36774
-0.357749
0.390324
-1.33312
1.29644
-0.399967
0.436645
-1.25765
1.21697
-0.439487
0.480163
-1.1745
1.13005
-0.474922
0.519375
-1.08371
1.03515
-0.507334
0.555897
-0.983127
0.92713
-0.545294
0.601292
-0.867938
0.806704
-0.597459
0.658693
-0.744318
0.681366
-0.650353
0.713305
-0.618241
0.555229
-0.696834
0.759847
-0.492536
0.430294
-0.735038
0.79728
-0.368546
0.30724
-0.762886
0.824193
-0.246216
0.185226
-0.777465
0.838455
-0.123966
0.0621572
-0.774178
0.835987
-0.0165188
0.0175664
1.56351
-1.56046
1.55509
-0.0768975
0.0822629
-1.54759
1.53798
-0.137773
0.147386
-1.52622
1.51228
-0.197695
0.211631
-1.49622
1.47806
-0.256525
0.274687
-1.45774
1.43528
-0.313801
0.336269
-1.41071
1.38401
-0.369256
0.395956
-1.35514
1.32422
-0.422701
0.453623
-1.29127
1.25619
-0.473214
0.508295
-1.21912
1.18022
-0.520721
0.559613
-1.13935
1.09651
-0.563898
0.606736
-1.05163
1.00367
-0.60502
0.652979
-0.951819
0.896557
-0.658061
0.713323
-0.838971
0.779969
-0.719936
0.778938
-0.720139
0.659856
-0.776
0.836283
-0.599377
0.538892
-0.822643
0.883129
-0.478534
0.418387
-0.859502
0.919649
-0.358476
0.298769
-0.885708
0.945416
-0.239172
0.179545
-0.899712
0.959339
-0.119726
0.0596308
-0.897814
0.957909
-0.0185504
0.0195053
1.50766
-1.50486
1.49994
-0.0875112
0.0924309
-1.49308
1.48422
-0.156795
0.16565
-1.47335
1.4605
-0.225299
0.238148
-1.4457
1.42888
-0.292512
0.309331
-1.41
1.38911
-0.358375
0.379264
-1.3662
1.3412
-0.422317
0.447315
-1.31418
1.28518
-0.484152
0.51315
-1.25408
1.22091
-0.543091
0.576263
-1.18588
1.14893
-0.598267
0.63522
-1.10993
1.06896
-0.64943
0.690401
-1.02535
0.978048
-0.701505
0.748808
-0.927052
0.873289
-0.768889
0.822652
-0.817707
0.760946
-0.837854
0.894615
-0.703402
0.645335
-0.896476
0.954543
-0.586933
0.52834
-0.943673
1.00227
-0.469661
0.410967
-0.980059
1.03875
-0.352289
0.293623
-1.00556
1.06422
-0.234924
0.176118
-1.01938
1.07819
-0.117122
0.0579989
-1.01822
1.07735
-0.0203928
0.0212414
1.45371
-1.45102
1.44662
-0.0971843
0.101588
-1.44043
1.43242
-0.174254
0.182261
-1.42262
1.41106
-0.250598
0.262162
-1.39765
1.38232
-0.325724
0.341051
-1.36512
1.34606
-0.399638
0.418699
-1.32505
1.30206
-0.471786
0.494769
-1.27717
1.25028
-0.541628
0.568515
-1.22131
1.19042
-0.608932
0.639819
-1.15769
1.1229
-0.671798
0.706585
-1.08608
1.047
-0.731161
0.770239
-1.00464
0.958416
-0.796485
0.842706
-0.908905
0.857043
-0.876459
0.928321
-0.803549
0.748873
-0.951326
1.006
-0.693298
0.637026
-1.01271
1.06898
-0.580211
0.522978
-1.06117
1.1184
-0.465429
0.407638
-1.09797
1.15576
-0.349656
0.291507
-1.12355
1.1817
-0.23319
0.174675
-1.13757
1.19609
-0.115929
0.0571617
-1.13684
1.19561
-0.0220154
0.0227391
1.40184
-1.39949
1.39564
-0.105797
0.109648
-1.3902
1.3832
-0.189926
0.196929
-1.37464
1.36446
-0.273244
0.283421
-1.35257
1.33897
-0.355815
0.369412
-1.32372
1.30671
-0.437094
0.454102
-1.28785
1.26716
-0.51704
0.537724
-1.24463
1.22011
-0.594733
0.619256
-1.19363
1.16536
-0.669987
0.69826
-1.13514
1.10281
-0.740813
0.773139
-1.06839
1.03122
-0.809079
0.846249
-0.990343
0.945731
-0.88902
0.933632
-0.898143
0.84836
-0.98009
1.02987
-0.796906
0.744106
-1.0607
1.1135
-0.690182
0.635303
-1.12552
1.1804
-0.579612
0.523232
-1.17618
1.23256
-0.466271
0.408821
-1.21434
1.27179
-0.350959
0.292743
-1.24077
1.29899
-0.234213
0.175378
-1.25539
1.31423
-0.11625
0.0572566
-1.25501
1.314
-0.023383
0.0239687
1.35167
-1.34968
1.34644
-0.11327
0.116515
-1.34188
1.33601
-0.203496
0.20936
-1.32879
1.32011
-0.293041
0.30172
-1.30995
1.29836
-0.382273
0.393868
-1.28527
1.27053
-0.470297
0.485033
-1.2541
1.236
-0.557512
0.575613
-1.21611
1.19433
-0.642887
0.66467
-1.17076
1.14541
-0.72561
0.750963
-1.11801
1.08849
-0.804686
0.834201
-1.05667
1.02164
-0.883058
0.918084
-0.982753
0.940297
-0.978032
1.02049
-0.894995
0.847438
-1.07946
1.12701
-0.798004
0.746938
-1.16638
1.21744
-0.694423
0.640612
-1.23571
1.28952
-0.585645
0.529652
-1.28972
1.34571
-0.472755
0.415074
-1.33032
1.388
-0.356716
0.297784
-1.35845
1.41738
-0.238363
0.17851
-1.37415
1.43401
-0.118306
0.0586118
-1.37422
1.43392
-0.0244731
0.024914
1.30339
-1.30161
1.29904
-0.119485
0.122053
-1.29545
1.2908
-0.214721
0.219369
-1.285
1.27798
-0.309735
0.316747
-1.2698
1.26041
-0.404574
0.413959
-1.24967
1.23745
-0.498797
0.51102
-1.22375
1.20854
-0.592618
0.60783
-1.19164
1.17301
-0.6853
0.703924
-1.15274
1.13064
-0.77518
0.797283
-1.10645
1.08014
-0.862691
0.889002
-1.05125
1.01885
-0.952496
0.984897
-0.982579
0.94284
-1.06242
1.10215
-0.900203
0.855084
-1.17424
1.21936
-0.807746
0.758374
-1.26859
1.31796
-0.707123
0.654132
-1.34388
1.39687
-0.59954
0.543487
-1.40271
1.45876
-0.486114
0.427571
-1.44708
1.50562
-0.368008
0.307581
-1.47798
1.53841
-0.246441
0.184719
-1.49542
1.55714
-0.122641
0.0619713
-1.49633
1.557
-0.025274
0.0255659
1.25698
-1.25563
1.2538
-0.1243
0.126133
-1.25123
1.24785
-0.223464
0.226845
-1.24357
1.2384
-0.322971
0.328138
-1.23236
1.22532
-0.422338
0.429375
-1.21711
1.20766
-0.522091
0.531538
-1.197
1.18498
-0.621735
0.633747
-1.17145
1.15639
-0.721129
0.736187
-1.13978
1.12134
-0.817993
0.836439
-1.10085
1.07821
-0.914002
0.936642
-1.05276
1.02368
-1.01631
1.0454
-0.990773
0.954393
-1.14101
1.17739
-0.914917
0.872597
-1.26395
1.30627
-0.827599
0.780049
-1.36735
1.4149
-0.730064
0.677763
-1.45049
1.50279
-0.623277
0.566748
-1.51605
1.57258
-0.508334
0.448214
-1.56596
1.62608
-0.386592
0.323695
-1.60106
1.66396
-0.259768
0.195074
-1.62119
1.68589
-0.13013
0.0683717
-1.6237
1.68546
-0.025778
0.0259178
1.2119
-1.21118
1.21012
-0.127611
0.128677
-1.20859
1.20652
-0.229626
0.231695
-1.20388
1.20068
-0.332409
0.335605
-1.19688
1.1923
-0.435306
0.439889
-1.1868
1.18038
-0.539645
0.546059
-1.17302
1.16451
-0.644236
0.652747
-1.1547
1.1436
-0.749558
0.760659
-1.13107
1.11677
-0.853181
0.867473
-1.10056
1.08218
-0.957617
0.975994
-1.0609
1.03602
-1.07301
1.0979
-1.00739
0.975213
-1.21243
1.24461
-0.939644
0.900782
-1.34772
1.38658
-0.858682
0.813393
-1.46226
1.50755
-0.764975
0.713504
-1.55568
1.60715
-0.659075
0.60181
-1.63052
1.68778
-0.541866
0.479443
-1.68842
1.75084
-0.414795
0.348237
-1.72981
1.79637
-0.280154
0.211021
-1.75411
1.82324
-0.141872
0.0789231
-1.75947
1.82242
-0.0259801
0.0259679
1.16869
-1.16843
1.16813
-0.12937
0.129669
-1.16765
1.16693
-0.233119
0.233843
-1.16597
1.16479
-0.337834
0.339016
-1.16326
1.16121
-0.443277
0.44533
-1.15857
1.15538
-0.550969
0.554163
-1.15152
1.14676
-0.659534
0.664296
-1.14099
1.1342
-0.769813
0.776605
-1.12616
1.11655
-0.879713
0.889322
-1.10521
1.09179
-0.992281
1.0057
-1.07556
1.05593
-1.12071
1.14035
-1.03269
1.0058
-1.27485
1.30173
-0.97522
0.94086
-1.42403
1.45839
-0.902641
0.860505
-1.55222
1.59436
-0.814411
0.764342
-1.65897
1.70904
-0.71031
0.652365
-1.7465
1.80444
-0.590612
0.52523
-1.8159
1.88129
-0.456496
0.384818
-1.8668
1.93848
-0.310766
0.235142
-1.89767
1.97329
-0.159806
0.0954702
-1.90802
1.97236
-0.0258827
0.0257235
1.12698
-1.12698
1.12742
-0.129593
0.129153
-1.12797
1.12858
-0.233897
0.233284
-1.1293
1.1301
-0.339202
0.338405
-1.13081
1.13132
-0.446117
0.445611
-1.13162
1.13173
-0.555738
0.555631
-1.13147
1.13062
-0.667167
0.668015
-1.12912
1.12693
-0.781211
0.783406
-1.12377
1.11935
-0.896527
0.900952
-1.11347
1.10577
-1.01655
1.02426
-1.09558
1.08237
-1.15723
1.17044
-1.06581
1.04562
-1.3259
1.34608
-1.02152
0.993225
-1.49054
1.51884
-0.96048
0.92307
-1.63512
1.67253
-0.880797
0.83348
-1.75887
1.80619
-0.780961
0.723117
-1.86359
1.92144
-0.65989
0.591324
-1.94961
2.01817
-0.517621
0.439215
-2.01517
2.09358
-0.35687
0.271836
-2.05685
2.14189
-0.187213
0.121426
-2.07554
2.14132
-0.0254985
0.025203
1.08676
-1.08738
1.08851
-0.128346
0.127215
-1.09002
1.09191
-0.231998
0.230106
-1.09422
1.09689
-0.33662
0.333948
-1.09977
1.10278
-0.443806
0.440793
-1.10599
1.10935
-0.553851
0.550489
-1.11267
1.11578
-0.666862
0.663756
-1.11864
1.12121
-0.783228
0.780662
-1.1232
1.12434
-0.902664
0.901527
-1.12443
1.12314
-1.02892
1.03022
-1.11993
1.11432
-1.18017
1.18578
-1.10585
1.09401
-1.36262
1.37446
-1.07827
1.05813
-1.54381
1.56395
-1.03315
1.0029
-1.70737
1.73761
-0.966973
0.924938
-1.85212
1.89416
-0.876349
0.820755
-1.97964
2.03523
-0.757737
0.68696
-2.08953
2.16031
-0.608275
0.521881
-2.1782
2.2646
-0.428554
0.330025
-2.23873
2.33726
-0.231307
0.163551
-2.27305
2.34081
-0.0248515
0.0244359
1.04783
-1.04884
1.05059
-0.125737
0.123985
-1.05298
1.05604
-0.227568
0.224509
-1.0598
1.06418
-0.330332
0.32595
-1.06906
1.07443
-0.436498
0.431129
-1.08036
1.08679
-0.54547
0.539036
-1.09354
1.10048
-0.658613
0.651671
-1.10764
1.11494
-0.77562
0.768317
-1.12214
1.12901
-0.897453
0.890585
-1.13538
1.14098
-1.02807
1.02246
-1.14549
1.1485
-1.18722
1.18421
-1.14945
1.14766
-1.38162
1.38341
-1.14239
1.13295
-1.57936
1.5888
-1.1187
1.09903
-1.76353
1.7832
-1.07329
1.04074
-1.9328
1.96534
-1.00058
0.95187
-2.08918
2.13789
-0.893569
0.824579
-2.23248
2.30147
-0.74385
0.650631
-2.35773
2.45095
-0.54489
0.428181
-2.45297
2.56968
-0.307898
0.234469
-2.51919
2.59262
-0.0239756
0.0234594
1.01039
-1.01191
1.0142
-0.121915
0.119626
-1.01736
1.02144
-0.220855
0.216782
-1.02645
1.03232
-0.320697
0.314821
-1.03898
1.04645
-0.424552
0.417079
-1.05482
1.06402
-0.531029
0.52183
-1.07389
1.08438
-0.642748
0.632259
-1.09554
1.10732
-0.758549
0.746762
-1.11954
1.13202
-0.880699
0.868228
-1.14462
1.15725
-1.01316
1.00053
-1.16978
1.18198
-1.1765
1.16431
-1.19329
1.20293
-1.37955
1.36991
-1.21006
1.21385
-1.59197
1.58818
-1.21357
1.20849
-1.79633
1.80142
-1.1978
1.18062
-1.99151
2.0087
-1.15583
1.12206
-2.1812
2.21497
-1.07757
1.02025
-2.36781
2.42513
-0.947532
0.856543
-2.54852
2.63951
-0.744428
0.609674
-2.70915
2.8439
-0.459941
0.368565
-2.84902
2.9404
-0.0229108
0.0223156
0.97443
-0.976034
0.978762
-0.117058
0.114331
-0.982555
0.987457
-0.212187
0.207285
-0.993495
1.00061
-0.308174
0.301062
-1.00875
1.01799
-0.408523
0.399282
-1.02841
1.03995
-0.51121
0.499666
-1.05251
1.06608
-0.619942
0.606372
-1.08075
1.09652
-0.732655
0.716889
-1.11326
1.13086
-0.852836
0.835238
-1.14926
1.16853
-0.984214
0.964948
-1.1888
1.21005
-1.14721
1.12595
-1.23187
1.25352
-1.35398
1.33233
-1.27416
1.29299
-1.57681
1.55798
-1.30928
1.32238
-1.79772
1.78462
-1.33162
1.33623
-2.01587
2.01126
-1.33525
1.32743
-2.23766
2.24549
-1.31101
1.28359
-2.47135
2.49877
-1.24177
1.18083
-2.72412
2.78506
-1.09396
0.972127
-2.9975
3.11933
-0.812837
0.721659
-3.31884
3.41002
0.130747
-0.19319
0.0623436
-0.114527
0.0435457
0.0709856
0.0542338
-0.146573
0.0951419
0.211221
-0.225855
-0.00205999
0.136912
-0.0519971
-0.0848819
-0.00854829
0.0345689
-0.0260206
-0.0387062
0.0274597
0.0112465
0.00779444
-0.0768668
0.0690517
0.183953
-0.334626
0.150575
0.536933
-0.797826
0.260896
1.11673
-1.48006
0.363327
1.86284
-2.23763
0.374788
2.58568
-2.90706
0.32138
3.22739
-3.5672
0.339807
3.89407
-4.16649
0.272422
4.32882
-4.1597
-0.169116
3.41092
-2.10849
-1.3024
0.6978
0.511421
-1.20922
-1.52451
2.38005
-0.855539
-3.1102
3.73864
-0.628442
-4.27976
4.74199
-0.462233
-5.13057
5.45033
-0.319765
-5.7069
5.90696
-0.200058
-6.05795
6.16761
-0.109657
-6.24312
6.29142
-0.0483057
-6.31815
6.32891
-0.0107538
-6.32772
6.31606
0.0116561
-6.29856
6.27698
0.0215784
-6.25276
6.22703
0.0257287
-6.2006
6.17407
0.0265358
-6.14783
6.12216
0.025671
-6.09721
6.07303
0.0241779
-6.04963
6.02698
0.0226521
-6.00503
5.98371
0.0213179
-5.96298
5.94279
0.0201945
-5.92311
5.90397
0.0191421
-5.88539
5.8674
0.0179845
-5.85002
5.83326
0.0167658
-5.81709
5.8015
0.0155924
-5.78645
5.77192
0.0145336
-5.75786
5.74427
0.0135916
-5.73113
5.71841
0.0127166
-5.70611
5.6942
0.0119035
-5.68267
5.67149
0.0111824
-5.66064
5.65011
0.0105346
-5.63991
5.63005
0.00985665
-5.6206
5.61159
0.00901128
-5.6031
5.59522
0.00788491
-5.58809
5.58182
0.00626274
-5.57646
5.57194
0.00452773
-5.56788
5.564
0.00388668
-5.55978
5.55515
0.00462982
-5.54998
5.54456
0.00541955
-5.53912
5.53381
0.0053084
-5.52902
5.52443
0.0045924
-5.52058
5.51686
0.00372156
-5.5139
5.51157
0.00233449
-5.50998
5.51011
-0.000132484
-5.51044
5.51332
-0.00287478
-5.51488
5.51884
-0.00395977
0.236682
-0.270353
0.0337445
-0.0557195
0.0402663
-0.103843
0.1193
-0.0027476
-0.0400215
-0.16131
0.209472
0.0747439
-0.130743
-0.0139225
0.0425879
0.13068
-0.103671
0.135908
-0.162917
0.0512498
-0.0191566
0.0484695
-0.0823615
0.00173405
-0.000846759
-0.0176261
0.0155011
0.0187012
-0.0580485
-0.122073
0.161396
0.123205
-0.218226
-0.27054
0.365505
0.346619
-0.512105
-0.467091
0.632572
0.715845
-0.956282
-0.65576
0.896198
1.22764
-1.51701
-0.699923
0.9893
1.80693
-2.08329
-0.607354
0.883713
2.34562
-2.59792
-0.598885
0.851189
2.81913
-2.94306
-0.433798
0.55772
2.91599
-2.86624
0.252917
-0.312057
2.55311
-1.84311
2.22058
-2.93058
0.843954
0.189864
2.3275
-3.36132
-1.14263
1.99461
1.71042
-2.5624
-2.74838
3.41184
1.27476
-1.93822
-3.99268
4.49566
0.945446
-1.44843
-4.92508
5.28375
0.660846
-1.01952
-5.57627
5.80869
0.41906
-0.651476
-5.9881
6.12227
0.234222
-0.368388
-6.21904
6.28561
0.107927
-0.174503
-6.32845
6.35286
0.0298879
-0.0543023
-6.36423
6.36526
-0.0148278
0.0137946
-6.35909
6.34787
-0.0369993
0.0482146
-6.33338
6.31683
-0.0461817
0.06273
-6.29916
6.28104
-0.0483487
0.0664613
-6.2629
6.24503
-0.0470037
0.0648714
-6.22765
6.21083
-0.0442898
0.0611142
-6.1946
6.17895
-0.0414159
0.0570654
-6.16385
6.14923
-0.0388828
0.0534957
-6.13506
6.12128
-0.0367548
0.0505317
-6.1079
6.09485
-0.034808
0.04785
-6.08216
6.06986
-0.0327195
0.0450197
-6.05795
6.04643
-0.0304918
0.0420118
-6.03531
6.02455
-0.0283819
0.0391459
-6.0141
6.00397
-0.0265093
0.0366446
-5.99409
5.98448
-0.0248458
0.0344635
-5.9751
5.96595
-0.0233192
0.0324758
-5.95701
5.9483
-0.0219194
0.0306348
-5.93978
5.9315
-0.0206359
0.0289215
-5.92342
5.91557
-0.0194565
0.0273118
-5.90796
5.90064
-0.0181812
0.0255027
-5.89368
5.88713
-0.0165385
0.0230853
-5.88101
5.87538
-0.0144088
0.0200446
-5.87028
5.8658
-0.0114428
0.0159234
-5.86203
5.85895
-0.00819608
0.0112703
-5.85642
5.85409
-0.00686005
0.00919038
-5.85164
5.8488
-0.00818084
0.0110279
-5.84555
5.84202
-0.00967244
0.0131997
-5.83845
5.83509
-0.00941081
0.0127708
-5.83202
5.82939
-0.00795177
0.0105844
-5.82699
5.82493
-0.00639461
0.00845959
-5.82302
5.82146
-0.00423263
0.00579671
-5.82045
5.82001
-0.00037099
0.000813441
-5.8206
5.82157
0.00428134
-0.00525311
-5.82357
5.82563
0.0066534
-0.00871469
0.299232
-0.3247
0.0254687
-0.0410218
0.0391315
-0.125767
0.127657
-0.0225857
-0.0067093
-0.25031
0.284736
0.0417954
-0.0849188
-0.0782617
0.101266
0.106327
-0.102999
0.17543
-0.178659
0.0848458
-0.0559996
0.135853
-0.164699
0.0228105
-0.00540499
-0.00499994
-0.0120857
0.00553529
-0.0203553
-0.187401
0.202191
0.0506015
-0.0997095
-0.435653
0.484654
0.168932
-0.259782
-0.757913
0.848764
0.37463
-0.515473
-1.08442
1.22526
0.684335
-0.879759
-1.23287
1.42829
1.09417
-1.31946
-1.14171
1.367
1.42137
-0.6689
-1.01671
0.201943
0.181377
-0.0736275
-0.0958467
3.46945e-18
0.0615336
-0.211635
0.13465
-0.00840086
0.778565
-1.21046
3.20116
-2.58468
0.506189
0.287297
4.27498
-5.06846
-1.09277
1.86398
3.37654
-4.14774
-2.58054
3.23274
2.59664
-3.24884
-3.81753
4.33281
1.95643
-2.47171
-4.77608
5.14791
1.38428
-1.75611
-5.45115
5.69166
0.888274
-1.12878
-5.87715
6.01634
0.505655
-0.644843
-6.11765
6.18913
0.244029
-0.315505
-6.23763
6.26871
0.0824023
-0.11348
-6.28688
6.29567
-0.00888742
0.000102149
-6.2977
6.29502
-0.055256
0.0579364
-6.28917
6.28131
-0.0750462
0.0829033
-6.27226
6.26258
-0.0804488
0.090136
-6.25268
6.24278
-0.0788008
0.0886988
-6.23305
6.2236
-0.0742635
0.0837116
-6.21445
6.20557
-0.0692822
0.0781596
-6.19697
6.18858
-0.0649488
0.0733377
-6.18037
6.17231
-0.0613587
0.0694163
-6.16438
6.15653
-0.0581696
0.0660143
-6.1488
6.1412
-0.0548672
0.0624707
-6.13374
6.12648
-0.0512828
0.05855
-6.1194
6.11246
-0.0478654
0.0548048
-6.10565
6.09894
-0.0449646
0.0516789
-6.09229
6.08571
-0.0424495
0.0490307
-6.07918
6.07271
-0.0401681
0.0466443
-6.0663
6.05996
-0.0380708
0.0444191
-6.05368
6.04751
-0.0360566
0.0422224
-6.04147
6.03556
-0.0340887
0.0400009
-6.02981
6.02429
-0.0318282
0.0373484
-6.01909
6.01426
-0.028695
0.0335222
-6.00982
6.00572
-0.024826
0.0289176
-6.002
5.99872
-0.019734
0.0230138
-5.99602
5.99398
-0.0137818
0.0158139
-5.99255
5.9914
-0.0109048
0.0120558
-5.99014
5.98845
-0.0132479
0.0149384
-5.98629
5.98384
-0.0161145
0.0185623
-5.98139
5.97919
-0.0154835
0.017684
-5.97735
5.97594
-0.0125712
0.0139874
-5.97475
5.9737
-0.00998876
0.0110409
-5.97257
5.97149
-0.00708199
0.00816664
-5.97063
5.97016
-0.00125173
0.0017162
-5.97036
5.97092
0.00599471
-0.00655516
-5.97225
5.97357
0.0103593
-0.0116798
0.346719
-0.364159
0.0174399
-0.0328697
0.0341239
-0.127264
0.126031
-0.0255082
0.00561499
-0.309316
0.32921
0.0126466
-0.0446502
-0.0913932
0.024646
0.08438
-0.0922788
0.175094
-0.167195
0.0872352
-0.0697463
0.187077
-0.204458
0.0442743
-0.0155435
0.039066
-0.0674456
-0.00750457
0.0132661
-0.173722
0.149822
-0.013734
0.000987699
-0.513832
0.526884
0.0222028
-0.0552377
-0.907238
0.94021
0.0979894
-0.153274
-1.3198
1.37508
0.223786
-0.311708
-1.56772
1.65564
0.412229
-0.445272
-1.51672
1.56696
0.00658062
2.23967e-21
-0.00658062
5.45529e-21
-1.57403e-21
3.00986e-21
1.74419e-20
-9.74648e-21
4.12222e-20
0
2.32373e-20
-1.17736e-20
0.0628894
-0.313756
2.37606
-2.18398
-0.151482
0.732953
5.73671
-6.31818
-1.35518
1.99465
4.84878
-5.48825
-2.62315
3.22332
3.8731
-4.47326
-3.77871
4.27855
2.97744
-3.47729
-4.71179
5.07466
2.12288
-2.48576
-5.36714
5.59615
1.36378
-1.5928
-5.77035
5.90081
0.779782
-0.910244
-5.99669
6.06667
0.385998
-0.455981
-6.11724
6.15352
0.146656
-0.182942
-6.17928
6.19734
0.0127603
-0.0308249
-6.20974
6.21803
-0.055587
0.0473057
-6.22335
6.22655
-0.0855486
0.0823524
-6.22833
6.22905
-0.0948101
0.0940978
-6.22903
6.22847
-0.0940217
0.0945861
-6.22755
6.22635
-0.0890546
0.090256
-6.22495
6.22333
-0.0833669
0.0849864
-6.22152
6.21948
-0.0784795
0.0805198
-6.21724
6.21479
-0.0745927
0.0770424
-6.21213
6.20922
-0.0712682
0.0741717
-6.20612
6.20283
-0.0677928
0.0710825
-6.19944
6.19598
-0.0637871
0.0672465
-6.19251
6.18898
-0.0599125
0.06344
-6.18539
6.18168
-0.056775
0.060484
-6.17787
6.17392
-0.0541855
0.058138
-6.16987
6.16571
-0.0518532
0.0560153
-6.16147
6.15714
-0.049654
0.0539776
-6.15279
6.14843
-0.0473907
0.0517513
-6.14412
6.13987
-0.0449923
0.0492419
-6.13571
6.13167
-0.0420399
0.0460744
-6.12793
6.12455
-0.037549
0.0409237
-6.12155
6.11878
-0.0322859
0.0350538
-6.11619
6.11381
-0.0257752
0.0281492
-6.11189
6.11065
-0.0173931
0.0186341
-6.11017
6.11014
-0.0126285
0.0126607
-6.11001
6.1093
-0.0161125
0.016818
-6.10794
6.10622
-0.0205842
0.022297
-6.10457
6.10327
-0.0193873
0.0206886
-6.10246
6.10213
-0.0148351
0.0151604
-6.10207
6.10197
-0.01161
0.0117139
-6.10152
6.10073
-0.00907409
0.00986239
-6.09988
6.09928
-0.00222787
0.00282474
-6.09915
6.09933
0.00692836
-0.00711293
-6.1
6.10069
0.0126771
-0.0133682
0.377566
-0.385863
0.0082966
-0.0207366
0.019577
-0.125272
0.126431
-0.0113039
-0.00699623
-0.348286
0.366586
0.00523543
-0.037871
-0.0100516
0.0127491
0.0844321
-0.0910298
0.158949
-0.152351
0.0893369
-0.0777196
0.218091
-0.229921
0.0561671
-0.027066
0.096105
-0.125331
-0.00689312
0.0406133
-0.153308
0.138291
-0.0530833
0.0803646
-0.521935
0.501272
-0.0891925
0.0964277
-0.951317
0.944363
-0.103892
0.109816
-1.39598
1.39006
-0.111553
0.105048
-1.69784
1.70434
-0.0898526
0.0561473
-1.60491
1.64986
-0.00154897
3.87195e-22
0.000454567
0.00228811
1.54619e-21
-2.02909e-21
2.16738e-20
-2.94137e-20
2.63262e-20
1.08285e-19
3.36785e-20
-4.46434e-19
9.43019e-05
0.161972
1.57797
-1.42338
-0.798377
1.2723
6.83138
-7.3053
-1.76221
2.276
6.05588
-6.56967
-2.80652
3.33397
5.0326
-5.56005
-3.84064
4.30367
3.95622
-4.41925
-4.70645
5.03758
2.83215
-3.16328
-5.29878
5.4978
1.80673
-2.00575
-5.64858
5.76281
1.0314
-1.14563
-5.85099
5.92093
0.524362
-0.594304
-5.9776
6.02427
0.222917
-0.269581
-6.06308
6.09569
0.0550877
-0.0876991
-6.12311
6.14636
-0.032186
0.00893976
-6.16604
6.18273
-0.0726973
0.0560078
-6.19711
6.20953
-0.0876254
0.0752107
-6.22025
6.22949
-0.0902146
0.0809714
-6.23751
6.24446
-0.0872784
0.0803294
-6.2505
6.25568
-0.0830672
0.0778928
-6.26007
6.2637
-0.0795618
0.0759308
-6.26665
6.26899
-0.076938
0.0745937
-6.27073
6.27195
-0.0748541
0.0736359
-6.27262
6.27282
-0.0724686
0.0722657
-6.27262
6.27216
-0.0690546
0.0695231
-6.27147
6.27059
-0.0654954
0.0663679
-6.26948
6.26811
-0.0628925
0.0642646
-6.26644
6.2645
-0.0609409
0.0628764
-6.26233
6.25995
-0.0591735
0.0615544
-6.25735
6.25458
-0.0574146
0.0601858
-6.25168
6.2487
-0.0553184
0.0583007
-6.24574
6.2428
-0.0527474
0.0556887
-6.23986
6.23695
-0.0494596
0.0523743
-6.23425
6.232
-0.0436547
0.0459022
-6.23019
6.22853
-0.0372139
0.0388721
-6.22683
6.22505
-0.0301662
0.031949
-6.22348
6.22258
-0.019623
0.0205261
-6.2227
6.22359
-0.0121933
0.011304
-6.2245
6.22464
-0.0170789
0.0169344
-6.22381
6.22255
-0.023736
0.0249928
-6.22143
6.22081
-0.0216148
0.0222358
-6.22081
6.22142
-0.0149922
0.014388
-6.22237
6.2232
-0.0113518
0.0105288
-6.22334
6.22272
-0.0105502
0.0111761
-6.22173
6.22089
-0.00352446
0.00436097
-6.22044
6.22021
0.00709543
-0.00686736
-6.22019
6.22016
0.0137171
-0.0136881
0.386102
-0.362625
-0.0234765
-0.0047938
-0.00290145
-0.131735
0.032772
0.0180807
-0.00366221
-0.260634
6.93309e-07
-0.000707893
-0.0570406
-0.0243597
0.0438264
0.101984
-0.102025
0.1493
-0.149259
0.0998451
-0.0902178
0.240359
-0.249987
0.0708771
-0.0419518
0.154082
-0.183008
0.00476747
0.0388541
-0.0983992
0.0547772
-0.0834129
0.111696
-0.412695
0.382864
-0.162015
0.195872
-0.922568
0.887147
-0.234337
0.27662
-1.36326
1.32098
-0.319745
0.357984
-1.68444
1.6462
-0.383247
0.380334
-1.66259
1.6655
-0.119495
0
-0.0377604
0.0765031
-1.23648e-21
-5.31777e-22
3.13646e-20
-2.85431e-20
1.18255e-19
9.92466e-21
6.74521e-19
-1.73871e-19
8.69598e-21
0.770559
1.75276
-2.311
-1.36975
1.76554
7.73889
-8.13468
-2.16276
2.5832
7.03024
-7.45069
-3.02834
3.48554
6.04847
-6.50566
-3.93634
4.35072
4.85728
-5.27166
-4.70426
4.98433
3.46896
-3.74902
-5.19551
5.35333
2.18386
-2.34168
-5.47798
5.58302
1.25206
-1.35709
-5.67748
5.76421
0.668338
-0.755066
-5.83746
5.88857
0.325373
-0.370927
-5.93304
5.97867
0.130021
-0.163323
-6.02333
6.06724
0.0227277
-0.0558678
-6.10888
6.14742
-0.032589
0.00207108
-6.18466
6.21922
-0.0573386
0.0277628
-6.25024
6.27001
-0.0674185
0.0476487
-6.285
6.29803
-0.069995
0.0569644
-6.30939
6.31928
-0.0700262
0.0601303
-6.32786
6.33522
-0.0701361
0.0627685
-6.34151
6.34685
-0.0705229
0.0651782
-6.35135
6.35509
-0.0709452
0.0672092
-6.3581
6.3604
-0.0708355
0.068533
-6.36209
6.3633
-0.068982
0.0677705
-6.36418
6.36477
-0.0663506
0.0657687
-6.36505
6.36499
-0.0648404
0.0648976
-6.36457
6.36381
-0.0641018
0.0648682
-6.36274
6.36139
-0.0633117
0.0646596
-6.3598
6.35797
-0.0623751
0.0642052
-6.35593
6.35376
-0.0607666
0.0629314
-6.35162
6.34957
-0.0581141
0.0601661
-6.34748
6.34528
-0.0548515
0.0570442
-6.34318
6.34159
-0.0477267
0.0493128
-6.34062
6.33982
-0.0400469
0.0408489
-6.33884
6.33744
-0.0335134
0.0349166
-6.33584
6.33464
-0.0214811
0.0226808
-6.33465
6.33587
-0.0101428
0.00892666
-6.33743
6.33828
-0.0164212
0.0155648
-6.33784
6.33691
-0.0260863
0.0270083
-6.33627
6.33619
-0.0225831
0.0226655
-6.33673
6.33788
-0.0134517
0.0123027
-6.33952
6.34114
-0.0092871
0.00766393
-6.34192
6.34145
-0.0117358
0.0121963
-6.34031
6.33923
-0.0053231
0.00640564
-6.33844
6.33774
0.00642054
-0.00571748
-6.33686
6.33587
0.0132287
-0.0122413
0.287131
-0.151633
-0.122079
0.00787141
-1.44898e-21
-0.00787141
2.16467e-21
-2.36461e-22
1.87227e-20
7.34277e-21
-3.32968e-22
0.000556302
-0.113392
-0.0350295
0.0388563
0.111214
-0.11515
0.148846
-0.144909
0.116615
-0.110664
0.258156
-0.264109
0.0941255
-0.0658727
0.211523
-0.239443
0.026693
0.0216661
-0.00920504
-0.03882
-0.0773059
0.126417
-0.352356
0.321619
-0.162509
0.248941
-0.825619
0.746553
-0.304123
0.363669
-1.2683
1.20876
-0.426419
0.485904
-1.59576
1.53627
-0.530736
0.544274
-1.65945
1.64591
-0.243984
0
-0.135103
0.277301
1.4454e-19
-4.81119e-18
1.9936e-20
1.1878e-17
1.20886e-20
1.63231e-21
2.80897e-20
-1.06333e-19
5.65177e-20
1.56625
3.226
-4.68405
-1.88384
2.18038
8.47701
-8.77355
-2.49605
2.83988
7.8282
-8.17203
-3.21399
3.60877
6.92935
-7.32413
-4.00166
4.35362
5.65476
-6.00672
-4.63566
4.80917
3.99265
-4.16615
-4.32603
2.37494
2.45856
-0.511026
-0.771331
0.201061
0.685683
6.55175e-20
6.62113e-19
-5.51981e-19
0
2.37695e-20
2.07864e-19
-1.59256e-19
0
1.41975e-20
1.33183e-19
-1.20496e-19
0
7.39553e-21
1.29114e-19
-1.5301e-19
0
3.3084e-21
1.79104e-19
-1.95206e-19
0
1.24564e-21
3.29436e-05
0.00026911
-0.000444768
3.35419e-22
-0.00119069
0.00281059
-0.00206104
1.12655e-19
-0.0052967
0.00886279
-0.00374061
0
-0.0137713
0.0203824
-0.00573111
0
-0.029289
0.0414134
-0.00790329
0
-0.0579356
0.0800271
-0.0107622
0
-0.108674
0.144867
-0.0147227
0
-0.190217
0.247196
-0.0186538
0
-0.318166
0.403349
-0.0225581
0
-0.49887
0.597604
-0.0270378
0
-0.693501
0.78514
-0.030713
0
-0.875001
0.966263
-0.0335336
0
-1.06055
1.15682
-0.0363255
0
-1.25122
1.34104
-0.0389989
0
-1.4338
1.55028
-0.040882
0
-1.707
1.86006
-0.0413972
0
-1.93291
1.98711
-0.0414216
0
-2.11741
2.43842
-0.0372227
-0.000530483
-2.70553
2.68572
-0.0315183
0.00111781
-2.58224
2.38458
-0.0278252
0.000189107
-2.38136
2.53613
-0.0189282
-6.84823e-05
-3.06644
3.35861
-0.00659522
0.000685539
-3.25317
2.67824
-0.0134176
0.000725095
-1.89228
1.83868
-0.0275847
-5.83585e-05
-1.90026
2.01076
-0.0224368
0
-2.05883
2.05118
-0.0111885
0
-1.98522
1.65841
-0.00584747
0
-0.967097
0.304046
-0.0124216
0
-0.0376509
0.00118056
-0.0056252
0
-0.000152462
-5.14105e-22
0.000152462