/*--------------------------------*- C++ -*----------------------------------*\
| =========                 |                                                 |
| \\      /  F ield         | OpenFOAM: The Open Source CFD Toolbox           |
|  \\    /   O peration     | Version:  v1912                                 |
|   \\  /    A nd           | Website:  www.openfoam.com                      |
|    \\/     M anipulation  |                                                 |
\*---------------------------------------------------------------------------*/
FoamFile
{
    version     2.0;
    format      ascii;
    class       volScalarField;
    location    "16";
    object      epsilon;
}
// * * * * * * * * * * * * * * * * * * * * * * * * * * * * * * * * * * * * * //

dimensions      [0 2 -3 0 0 0 0];


internalField   nonuniform List<scalar> 
20320
(
4.44021e-05
0.000214492
0.000220438
0.00022633
0.00023212
0.000237764
0.000243205
0.000248378
0.000253199
0.000257578
0.000261419
0.000264642
0.000267699
0.000277869
0.000360102
0.000893126
0.00312199
0.00841948
0.0146609
0.0120637
4.39953e-05
4.38839e-05
4.45306e-05
4.60804e-05
4.89562e-05
5.36495e-05
6.0692e-05
7.06634e-05
8.42183e-05
0.000101942
0.000124243
0.000152455
0.000201422
0.000437034
0.00179932
0.0060472
0.0129828
0.0201033
0.0252131
0.0319029
4.43827e-05
4.48111e-05
4.58719e-05
4.76383e-05
5.04721e-05
5.48143e-05
6.12519e-05
7.06108e-05
8.39334e-05
0.000102549
0.000128417
0.000170997
0.000338884
0.0014129
0.00548262
0.0132449
0.0223018
0.0298005
0.0352556
0.0456819
4.49424e-05
4.63012e-05
4.8341e-05
5.10835e-05
5.48991e-05
6.02713e-05
6.7875e-05
7.85673e-05
9.37053e-05
0.000115033
0.000147068
0.0002327
0.000768157
0.00352551
0.0104981
0.0205013
0.0305115
0.0383403
0.0443949
0.058325
4.56418e-05
4.8253e-05
5.16282e-05
5.57071e-05
6.0895e-05
6.77097e-05
7.68811e-05
8.94053e-05
0.000106766
0.000131498
0.000176074
0.00037396
0.00168701
0.00661247
0.0159534
0.0273425
0.0379075
0.0460796
0.0528219
0.070508
4.64615e-05
5.06659e-05
5.57716e-05
6.1634e-05
6.8689e-05
7.74632e-05
8.87195e-05
0.000103666
0.00012375
0.000153104
0.000225374
0.000666898
0.0031886
0.0102922
0.0214102
0.0337291
0.0447178
0.0532555
0.060752
0.0823639
4.73761e-05
5.34919e-05
6.07087e-05
6.88671e-05
7.8285e-05
8.96221e-05
0.000103631
0.000121417
0.000144983
0.000181754
0.000310502
0.00118933
0.00521527
0.0142533
0.0267102
0.0397293
0.0511068
0.0600387
0.0683376
0.0939599
4.83526e-05
5.66435e-05
6.6379e-05
7.7276e-05
8.96978e-05
0.000104235
0.00012167
0.000142953
0.000170836
0.000220544
0.000454182
0.00199312
0.00763456
0.0183082
0.0318186
0.0454302
0.0572031
0.0665618
0.0756958
0.105373
4.93476e-05
6.00209e-05
7.26021e-05
8.66811e-05
0.000102781
0.000121165
0.000142781
0.000168514
0.000201719
0.00027386
0.000683326
0.003087
0.010313
0.0223611
0.0367531
0.0509202
0.06312
0.0729434
0.0829366
0.11671
5.03128e-05
6.34869e-05
7.90968e-05
9.68344e-05
0.000117098
0.000140118
0.000166774
0.000197916
0.000238309
0.000347521
0.00102265
0.00444246
0.0131471
0.0263727
0.0415561
0.0562904
0.0689713
0.079307
0.0901811
0.128113
5.11974e-05
6.6848e-05
8.55519e-05
0.000107264
0.000132032
0.000160565
0.000193114
0.000230595
0.000281502
0.000448203
0.00148781
0.00601064
0.0160671
0.0303386
0.0462867
0.0616421
0.0748861
0.0857986
0.0975796
0.139775
5.19485e-05
6.9884e-05
9.16094e-05
0.00011728
0.000146874
0.000181596
0.000220837
0.000265772
0.000332091
0.000582164
0.00208113
0.00773786
0.0190323
0.0342797
0.0510222
0.0670997
0.0810284
0.092611
0.105336
0.15196
5.25162e-05
7.23875e-05
9.68425e-05
0.000126131
0.000160775
0.000201922
0.000248628
0.00030247
0.000390399
0.000753543
0.00279134
0.00957574
0.0220271
0.0382407
0.0558679
0.0728305
0.0876285
0.100025
0.113757
0.165061
5.28616e-05
7.41834e-05
0.000100805
0.000133138
0.000172701
0.000220052
0.00027489
0.000339332
0.000455911
0.000962479
0.00359552
0.0114841
0.0250559
0.0422911
0.0609679
0.0790705
0.0950282
0.108478
0.123325
0.179681
5.2964e-05
7.51446e-05
0.000103136
0.000137753
0.000181561
0.00023452
0.000297822
0.000374516
0.000526955
0.00120367
0.00446192
0.0134301
0.0281398
0.0465283
0.0665221
0.0861663
0.103764
0.118692
0.134872
0.196826
5.28247e-05
7.52105e-05
0.000103642
0.000139605
0.000186444
0.000244077
0.000315548
0.000405733
0.000600428
0.00146574
0.00535195
0.015384
0.0313106
0.051079
0.0728055
0.0946361
0.114712
0.131958
0.149963
0.218372
5.24656e-05
7.44022e-05
0.000102334
0.00013856
0.000186842
0.000247836
0.000326354
0.000430453
0.000671703
0.0017317
0.00622064
0.0173098
0.0345962
0.0560884
0.080176
0.105243
0.129339
0.150714
0.17189
0.248225
5.19252e-05
7.28223e-05
9.94117e-05
0.000134762
0.000182762
0.000245414
0.000329006
0.000446234
0.000734872
0.00198023
0.00701567
0.0191504
0.0379917
0.0616798
0.0890372
0.11903
0.150046
0.179762
0.208405
0.296675
5.1252e-05
7.06373e-05
9.5218e-05
0.000128638
0.00017472
0.000237037
0.000323053
0.000451173
0.000783593
0.00218857
0.00767856
0.0208138
0.0414165
0.0678715
0.0996985
0.13716
0.180376
0.228427
0.279718
0.3994
5.04973e-05
6.80469e-05
9.01697e-05
0.000120816
0.000163621
0.000223553
0.000308994
0.000444369
0.000812311
0.00233616
0.00814946
0.0221646
0.0446634
0.0744373
0.112043
0.160167
0.223752
0.311145
0.437359
0.7431
18.0029
39.3925
54.1479
71.8304
84.6176
83.5167
82.4738
86.0522
103.388
158.171
302.195
584.362
993.22
1474.96
2026.89
2739.84
3429.8
2901.58
2162.67
1673.2
1313.46
1036.48
820.382
653.533
526.395
430.202
357.79
302.988
260.393
226.648
199.489
177.295
158.911
143.497
130.447
119.321
109.782
101.555
94.4263
88.2127
82.7621
77.9612
73.7103
69.927
66.5567
63.554
60.8898
58.5352
56.4521
54.5855
52.8754
51.2903
49.8489
48.5745
47.4673
46.5133
45.6838
44.9477
44.2477
43.4586
33.042
18.5731
23.5109
27.7476
31.2227
33.0495
34.9941
40.1948
54.6952
93.4146
181.613
335.533
549.236
798.099
1029.7
1237.28
1298.56
1135.09
866.574
675.427
534.787
428.061
346.094
282.933
233.896
195.377
164.805
140.353
120.591
104.482
91.2501
80.2982
71.165
63.491
56.9972
51.4665
46.7291
42.6503
39.1229
36.0588
33.3851
31.0418
28.9791
27.1565
25.5408
24.1058
22.8292
21.6923
20.6771
19.768
18.9536
18.2224
17.5628
16.967
16.4306
15.9471
15.5054
15.0939
14.7038
14.3252
45.4616
20.3513
22.56
25.5819
28.2586
30.7059
33.7859
40.0634
55.0206
91.0002
169.28
311.564
538.397
878.433
1223.34
1557.29
1374.5
1062.13
800.536
614.358
479.919
379.78
304.872
249.05
206.955
174.392
148.537
127.601
110.429
96.2285
84.4114
74.522
66.1991
59.1533
53.1544
48.0171
43.5946
39.7695
36.4471
33.5496
31.0132
28.7843
26.8186
25.0791
23.5354
22.1623
20.9389
19.8469
18.8703
17.9948
17.2081
16.4988
15.8573
15.2761
14.7493
14.2698
13.8288
13.418
13.0304
12.6624
57.7711
24.4982
24.8996
27.0556
29.4219
32.3486
36.5094
44.0635
60.0067
94.7964
166.665
300.206
532.621
977.948
1641.66
2154.87
1696.89
1103.27
787.82
586.854
450.101
351.72
280.314
228.763
190.836
161.851
138.872
120.188
104.748
91.8754
81.0806
71.9811
64.2719
57.7063
52.0841
47.2441
43.056
39.4151
36.2365
33.4512
31.002
28.8409
26.928
25.2298
23.7183
22.3703
21.1657
20.0877
19.1206
18.2509
17.4662
16.7556
16.1107
15.5247
14.991
14.5021
14.0501
13.6281
13.2294
12.8526
70.2576
29.7748
29.2083
30.2677
32.2369
35.6591
41.0167
50.2931
68.2987
104.559
175.515
306.955
546.214
1011.21
1755.04
2540.66
1973.79
1193.48
788.407
557.286
414.559
318.926
253.027
207.12
173.895
148.554
128.396
111.939
98.2767
86.8241
77.1633
68.9726
61.9941
56.0187
50.8751
46.4245
42.5536
39.1712
36.2033
33.5897
31.2802
29.2329
27.4126
25.7899
24.3402
23.0425
21.8788
20.8328
19.8903
19.0386
18.2669
17.5654
16.9267
16.3443
15.8109
15.3183
14.86
14.4308
14.0225
13.6355
83.1567
35.8737
35.8971
34.7123
36.1264
40.2146
47.0269
58.6624
80.2312
121.559
199.536
342.737
612.106
1155.55
2019.45
3340.62
2234.91
1296.32
792.179
522.753
371.963
281.048
223.063
183.835
155.594
133.952
116.653
102.477
90.6883
80.7675
72.3592
65.1945
59.0599
53.781
49.2151
45.2455
41.7768
38.731
36.0449
33.6672
31.5553
29.6732
27.9914
26.4846
25.1318
23.9151
22.8183
21.8266
20.9268
20.1077
19.3622
18.6836
18.065
17.4985
16.9745
16.4845
16.0253
15.5949
15.1804
14.7819
94.4018
41.4749
42.8161
39.6745
40.8554
45.9919
54.7117
69.5315
96.634
147.554
242.531
416.789
749.616
1447.13
2661.06
4780.3
2597.5
1391.9
786.429
481.564
325.501
243.357
195.006
161.543
137.69
119.204
104.442
92.4085
82.4302
74.0554
66.9561
60.8892
55.6744
51.168
47.2544
43.8382
40.8399
38.1947
35.8493
33.7609
31.8945
30.2207
28.7149
27.3567
26.1293
25.018
24.0082
23.0861
22.2427
21.4639
20.7501
20.1063
19.5232
18.9838
18.4756
17.9896
17.5293
17.1067
16.6879
16.2719
95.4876
42.332
44.3454
43.43
46.2774
53.151
64.4775
83.5258
118.538
184.945
310.219
543.581
990.832
1924.26
3605.82
6189.24
2927.06
1449.35
757.896
431.385
278.462
211.92
171.957
141.021
119.281
103.406
91.3243
81.6749
73.7096
66.9988
61.2751
56.3579
52.1101
48.4264
45.2172
42.4043
39.9232
37.7214
35.7548
33.9887
32.3971
30.9575
29.6502
28.4606
27.3752
26.3839
25.4777
24.6381
23.8634
23.1411
22.465
21.8464
21.2908
20.7773
20.281
19.7867
19.2877
18.7626
18.2202
17.7396
97.712
42.441
43.7939
46.9798
52.5013
62.0155
76.9393
101.566
147.046
236.014
408.993
742.786
1392.01
2704.74
4920.05
6813.69
3105.81
1434.45
697.687
372.162
233.729
181.369
139.992
115.169
98.6806
86.9615
78.1177
71.0439
65.1405
60.0866
55.6962
51.855
48.4842
45.5218
42.9149
40.6134
38.5704
36.7439
35.0984
33.6065
32.249
31.01
29.8755
28.8351
27.8797
27.0042
26.203
25.4587
24.7718
24.1275
23.492
22.869
22.2927
21.7557
21.2303
20.6871
20.1238
19.5952
19.0585
18.5479
104.389
44.7597
46.1495
51.5837
59.9593
73.0748
92.9217
124.772
183.415
302.037
543.529
1035.25
2041.21
4045.76
7185.42
7701.82
3101.76
1329.55
606.195
307.993
193.334
140.823
109.651
91.7242
80.2377
72.1418
66.0752
61.2178
57.1114
53.522
50.328
47.464
44.8873
42.5689
40.4868
38.6192
36.9405
35.4235
34.0422
32.7756
31.6098
30.5343
29.5399
28.6198
27.7678
26.9794
26.2458
25.5551
24.9087
24.2745
23.6471
23.0602
22.5094
21.9648
21.4125
20.8417
20.2827
19.7909
19.2886
18.784
114.549
49.0417
50.8669
57.9362
69.1692
86.92
113.478
154.387
229.175
383.073
714.304
1435.27
3053.98
6479.73
10500.4
7493.78
2817.2
1137.67
494.225
245.985
155.647
111.317
87.1924
73.4892
65.1922
59.612
55.549
52.3577
49.6688
47.2873
45.1177
43.1168
41.2624
39.5407
37.9481
36.4821
35.1356
33.8963
32.7493
31.6812
30.6829
29.7481
28.8721
28.0508
27.2802
26.5561
25.8696
25.2116
24.5771
23.9455
23.3312
22.7649
22.2263
21.6811
21.1217
20.5573
20.0286
19.56
19.0794
18.5908
126.97
55.1129
57.777
66.4794
80.5478
104.081
140.065
191.812
285.222
480.464
916.884
1940.43
4463.42
10374.4
18217.8
6290.13
2290.88
893.397
379.594
192.303
125.362
91.5443
71.6033
60.1952
53.5079
49.3331
46.5219
44.46
42.8013
41.355
40.0229
38.7602
37.55
36.3804
35.2534
34.1756
33.1515
32.1806
31.2582
30.3787
29.5382
28.7344
27.966
27.2318
26.5299
25.8571
25.2063
24.5704
23.9436
23.3203
22.7203
22.1631
21.6276
21.0864
20.5368
19.9968
19.4989
19.0439
18.5785
18.1145
148.7
63.0657
67.0977
77.7764
94.5515
124.662
175.561
238.945
351.741
593.568
1145.18
2527.65
5832.95
10003.8
12422.9
4550.36
1670.46
648.387
279.127
150.433
104.583
77.3148
60.6853
50.7011
44.757
41.1921
38.9992
37.5811
36.5817
35.7922
35.0945
34.4271
33.7617
33.085
32.3901
31.6841
30.9754
30.2701
29.571
28.8788
28.1944
27.5194
26.8557
26.2047
25.5669
24.9409
24.3228
23.7081
23.095
22.4874
21.9033
21.3536
20.8224
20.2918
19.7633
19.2543
18.784
18.3431
17.8973
17.4681
187.749
73.6567
79.4283
92.7596
112.19
146.646
210.104
287.749
426.034
718.319
1379.42
3030.56
5296.97
9595.82
7161.05
2861.96
1113.05
444.563
201.702
120.408
87.9244
66.602
52.7031
43.8252
38.284
34.917
32.9255
31.7752
31.1152
30.7199
30.4492
30.2188
29.9811
29.7132
29.3978
29.0319
28.6214
28.1734
27.6939
27.1878
26.6595
26.1137
25.5551
24.9879
24.4149
23.8374
23.2551
22.6675
22.0775
21.4935
20.9301
20.3938
19.8748
19.3638
18.8643
18.3893
17.9474
17.5276
17.1113
16.7257
204.647
85.7049
92.8963
107.82
129.857
166.951
232.949
336.219
503.177
844.952
1644.62
2884.7
4792.3
7717.24
4094.48
1748.35
710.614
297.487
147.37
99.1091
75.0734
58.216
46.5857
38.6715
33.4412
30.1219
28.1236
27.0067
26.4524
26.2361
26.2043
26.2544
26.3199
26.3606
26.3533
26.2786
26.1341
25.9233
25.6515
25.3244
24.9487
24.5308
24.0778
23.596
23.091
22.5671
22.0277
21.4764
20.9198
20.3683
19.8337
19.3206
18.8251
18.3435
17.8798
17.4422
17.0333
16.6442
16.2669
15.9301
226.66
93.0624
98.4256
118.506
149.351
195.562
269.645
396.19
588.235
954.318
1716.71
2674.9
4357.82
5331.38
2433.27
1064.33
448.187
200.081
111.305
82.995
64.9249
51.5341
41.7189
34.6521
29.7203
26.4257
24.3506
23.1535
22.5639
22.3754
22.4345
22.6291
22.8795
23.1304
23.3461
23.5013
23.5777
23.5719
23.4853
23.3225
23.0897
22.7943
22.4448
22.0494
21.616
21.1518
20.6636
20.1585
19.6458
19.1363
18.64
18.1617
17.7013
17.2585
16.8372
16.4417
16.072
15.7221
15.3905
15.1038
250.434
99.4085
105.758
130.657
168.378
220.894
307.905
464.15
681.28
1033.28
1599.55
2508.5
3971.87
3100.45
1471.54
650.797
283.783
138.277
87.9624
70.57
56.8392
46.0747
37.7212
31.3961
26.7646
23.5168
21.3651
20.053
19.3615
19.1115
19.16
19.3952
19.7311
20.1023
20.4616
20.7773
21.0217
21.18
21.2481
21.227
21.1214
20.9384
20.687
20.3766
20.017
19.6179
19.1885
18.7388
18.2794
17.8211
17.3729
16.9403
16.5252
16.1295
15.7562
15.4075
15.0824
14.7779
14.4952
14.2573
265.93
104.732
111.294
135.606
170.816
223.661
308.816
450.537
659.211
987.128
1511.22
2320.34
3189.74
1885.26
883.825
396.185
182.45
99.7465
73.0056
60.9282
50.3741
41.5401
34.3486
28.6672
24.3339
21.1639
18.9635
17.5436
16.7321
16.379
16.3576
16.5634
16.91
17.328
17.7625
18.1728
18.53
18.8079
18.9949
19.088
19.0891
19.0043
18.8422
18.6129
18.3273
17.9966
17.632
17.2449
16.8463
16.4469
16.0551
15.6766
15.3149
14.9723
14.6512
14.3529
14.0763
13.8199
13.5864
13.3945
269.365
106.686
111.407
131.791
163.496
211.522
285.615
402.441
583.764
874.934
1336.89
1940.17
2137.89
1088.01
517.961
240.634
121.033
75.8421
62.4808
53.5343
45.1058
37.7049
31.438
26.3121
22.2681
19.2027
16.9876
15.4853
14.5624
14.096
13.9777
14.1131
14.4206
14.8307
15.2851
15.7377
16.1537
16.5074
16.7769
16.9545
17.0394
17.0359
16.9518
16.7971
16.5831
16.3219
16.0253
15.7052
15.3725
15.0373
14.7075
14.3889
14.0852
13.7992
13.5327
13.2863
13.0595
12.8518
12.6657
12.5162
257.223
105.09
107.085
123.923
151.704
193.464
254.287
345.444
486.182
706.062
1034.22
1407.81
1179.13
610.117
299.576
148.924
84.3936
61.0642
54.4782
47.6042
40.7341
34.4052
28.8765
24.2289
20.4608
17.5194
15.3209
13.7662
12.7526
12.181
11.9598
12.0062
12.2455
12.6113
13.0452
13.4984
13.9323
14.3188
14.6366
14.87
15.0155
15.0755
15.0566
14.9682
14.8214
14.6279
14.3996
14.1477
13.8828
13.614
13.3487
13.0921
12.8482
12.6195
12.4076
12.213
12.0353
11.8745
11.7331
11.6223
231.346
100.571
100.462
114.313
138.407
174.32
223.416
291.719
391.01
538.905
734.487
915.831
633.634
339.231
176.462
96.5646
62.6608
51.921
48.3152
42.832
37.0279
31.5145
26.5826
22.3485
18.8403
16.0351
13.8789
12.3005
11.2207
10.5602
10.2426
10.1961
10.354
10.6542
11.0406
11.4643
11.8853
12.2727
12.6054
12.8687
13.0532
13.1594
13.1926
13.1611
13.0749
12.945
12.7821
12.5968
12.3984
12.195
11.9932
11.7978
11.6125
11.4396
11.2804
11.1354
11.0045
10.888
10.7877
10.7117
209.013
93.8788
92.7559
104.271
125.04
156.071
196.789
247.428
318.414
415.334
527.363
557.557
346.893
195.857
109.412
66.8996
49.7333
46.2732
43.4416
38.8856
33.8379
28.944
24.4985
20.6239
17.3592
14.6971
12.6029
11.025
9.90271
9.17255
8.77116
8.63693
8.71051
8.9353
9.25853
9.63291
10.0187
10.3847
10.7088
10.9765
11.1804
11.3172
11.3897
11.4048
11.3713
11.2984
11.1959
11.0724
10.9363
10.7947
10.6531
10.5157
10.3855
10.2647
10.1544
10.0553
9.96765
9.89179
9.82886
9.7839
185.337
85.9535
84.6045
94.3575
112.211
139.564
174.487
215.714
270.221
332.403
388.083
333.867
204.957
120.558
72.6464
49.8556
42.0454
42.0067
39.5758
35.5444
31.0353
26.6245
22.5823
19.023
15.9854
13.4692
11.4512
9.89345
8.74948
7.96847
7.49808
7.28556
7.27864
7.42598
7.6787
7.99223
8.32855
8.65753
8.95732
9.21368
9.41888
9.57032
9.66945
9.72075
9.73091
9.7075
9.65828
9.59066
9.51123
9.42562
9.33847
9.25334
9.17291
9.099
9.03279
8.9749
8.92572
8.88564
8.85566
8.83786
164.951
78.1467
76.8003
84.9931
100.051
123.122
153.54
191.567
235.18
274.93
293.398
210.595
130.241
79.4173
51.7945
39.8766
37.5963
38.5559
36.2606
32.6109
28.52
24.5029
20.8036
17.5239
14.6981
12.3277
10.3955
8.87313
7.72474
6.90974
6.38494
6.10541
6.02514
6.09782
6.27857
6.52611
6.80502
7.08713
7.35206
7.58638
7.78249
7.93748
8.05191
8.12879
8.17279
8.18948
8.18467
8.16395
8.13245
8.09469
8.05439
8.01456
7.9774
7.94446
7.91678
7.89493
7.87925
7.87007
7.86792
7.87282
145.938
71.1924
70.0794
76.931
89.2413
106.993
133.165
169.98
207.92
234.408
218.246
141.126
87.6302
55.5135
39.5269
34.0253
35.202
35.7086
33.4134
29.986
26.2239
22.5397
19.1396
16.1115
13.4835
11.2563
9.41612
7.94059
6.80165
5.96703
5.40125
5.06609
4.9211
4.92462
5.0357
5.21652
5.43478
5.66505
5.88883
6.09393
6.27322
6.42341
6.54412
6.63694
6.7048
6.75142
6.78085
6.79715
6.80418
6.80542
6.8038
6.80171
6.80093
6.80265
6.80761
6.8162
6.8286
6.845
6.86545
6.88802
123.443
64.8779
64.387
70.5378
80.7471
94.9076
116.822
150.695
182.11
199.065
154.312
97.8764
61.2711
40.9447
32.1759
30.7065
33.5568
33.2616
30.854
27.5946
24.1035
20.7082
17.5749
14.7756
12.3327
10.2448
8.49975
7.07922
5.96075
5.11867
4.52388
4.14392
3.94332
3.88465
3.93066
4.04709
4.20499
4.38189
4.56161
4.7333
4.89029
5.02901
5.14817
5.24807
5.33019
5.39674
5.45031
5.49375
5.52984
5.56118
5.59
5.61808
5.64664
5.67648
5.70792
5.74098
5.77558
5.81162
5.84882
5.88396
103.071
58.8559
59.1347
65.1861
74.6727
87.4308
107.433
136.268
158.556
159.894
109.799
69.1044
44.2831
31.9196
27.8266
29.0658
31.838
31.0092
28.5209
25.3913
22.1309
18.9907
16.098
13.5089
11.2393
9.28589
7.63714
6.27732
5.18813
4.34887
3.73577
3.32137
3.07454
2.96163
2.94887
3.00547
3.10592
3.23077
3.3661
3.5024
3.63343
3.75534
3.86611
3.96506
4.05251
4.12952
4.19768
4.25883
4.31494
4.36782
4.41904
4.46974
4.52058
4.57177
4.62312
4.6742
4.72448
4.77357
4.82101
4.86312
83.3093
52.8987
53.8101
59.9985
69.7457
83.5587
104.328
127.462
141.597
121.964
78.6982
49.71
33.3509
26.4081
25.4096
28.4696
30.2216
28.9242
26.3521
23.3425
20.287
17.3755
14.7017
12.3061
10.1989
8.37464
6.82181
5.52662
4.47374
3.64643
3.02523
2.58685
2.30394
2.14612
2.08273
2.08628
2.13459
2.21105
2.3038
2.40451
2.50731
2.60822
2.70473
2.79554
2.88024
2.95913
3.03307
3.10324
3.17083
3.23705
3.30278
3.36846
3.43415
3.49944
3.56352
3.62545
3.68423
3.73913
3.7897
3.83284
62.9849
46.7821
48.2015
54.6502
65.2053
80.9965
103.048
123.067
127.617
92.0825
57.882
36.8607
26.4734
23.1649
24.2615
28.1095
28.5874
26.911
24.3103
21.4237
18.5573
15.8537
13.3802
11.1637
9.20847
7.50759
6.04941
4.82142
3.81085
3.0041
2.38525
1.9346
1.62778
1.43713
1.3344
1.29494
1.29945
1.33382
1.38791
1.45442
1.528
1.60478
1.68218
1.75866
1.8335
1.90657
1.97827
2.04922
2.12008
2.19137
2.26333
2.33579
2.40812
2.47933
2.54808
2.61287
2.67229
2.72532
2.77171
2.80988
41.4576
40.6443
42.3225
49.2417
61.1531
79.4608
103.477
121.506
110.47
70.1609
43.2159
28.3454
22.2322
21.3849
24.0121
27.2147
26.8961
24.9666
22.3743
19.6174
16.93
14.4185
12.1292
10.0786
8.26593
6.68257
5.31696
4.15805
3.19523
2.4177
1.81277
1.36451
1.05021
0.843847
0.718795
0.65214
0.626311
0.628863
0.651039
0.686719
0.731461
0.782105
0.836523
0.893473
0.95206
1.01209
1.0737
1.13708
1.2024
1.26963
1.33845
1.40814
1.47759
1.5453
1.60953
1.66838
1.72014
1.76368
1.79912
1.82707
19.6329
34.9417
36.6293
44.2706
58.2949
80.4508
107.508
120.533
87.4886
53.1212
32.5272
22.7127
19.6791
20.5791
24.2999
26.1052
25.1788
23.0755
20.5301
17.9108
15.3954
13.0631
10.945
9.04864
7.36964
5.89806
4.62287
3.53445
2.62468
1.88647
1.31133
0.883444
0.583038
0.386043
0.2662
0.199346
0.166673
0.155288
0.157591
0.169245
0.18774
0.211536
0.239702
0.271689
0.307199
0.346115
0.388475
0.434255
0.483296
0.535229
0.58944
0.644873
0.700128
0.753544
0.803148
0.846911
0.883017
0.910487
0.930058
0.944529
25.922
28.9469
32.29
41.4143
58.85
87.1785
117.245
110.717
67.5552
39.6305
24.8707
19.0641
18.233
20.4481
24.3285
24.7854
23.4249
21.2396
18.7701
16.2943
13.9458
11.7824
9.82389
8.07171
6.51838
5.15331
3.96635
2.94976
2.10093
1.41581
0.88548
0.499351
0.242844
0.095067
0.0277734
0.00775871
0.00324932
0.00216563
0.00202489
0.0023468
0.00309989
0.00441903
0.00656064
0.00990601
0.0149717
0.0223905
0.0328498
0.0469331
0.0649527
0.0868064
0.11193
0.139338
0.167712
0.195451
0.220739
0.241681
0.256687
0.265057
0.267981
0.268056
42.4651
24.0457
30.5958
43.2836
67.0262
105.556
131.866
89.1461
50.7555
29.1733
19.5954
16.791
17.5567
20.7901
23.6057
23.3301
21.6786
19.4643
17.0907
14.7617
12.5753
10.5722
8.76375
7.14668
5.71181
4.4485
3.34791
2.40825
1.62975
1.00771
0.539307
0.221611
0.0490269
0.00189073
0.000125049
9.95975e-05
0.000100262
0.000102525
0.000104964
0.000107329
0.000109593
0.000111832
0.000114163
0.000116784
0.000120265
0.000126115
0.000137831
0.000163325
0.000220065
0.000344195
0.000601135
0.00108121
0.00185688
0.00290517
0.00404635
0.00496714
0.00536129
0.00513397
0.00451998
0.00379726
47.5923
24.8482
32.7992
51.6598
86.1993
143.828
124.794
68.2812
36.3427
21.4108
16.1239
15.4803
17.471
21.4056
22.5799
21.7576
19.9433
17.7512
15.4895
13.3087
11.2795
9.42918
7.76222
6.27249
4.94977
3.78418
2.7712
1.91484
1.21225
0.664721
0.27727
0.0573406
0.000777081
7.94305e-05
7.97777e-05
8.1804e-05
8.39647e-05
8.61589e-05
8.82759e-05
9.02261e-05
9.19896e-05
9.35965e-05
9.50465e-05
9.62515e-05
9.7119e-05
9.76627e-05
9.79512e-05
9.80427e-05
9.80017e-05
9.78567e-05
9.75679e-05
9.70956e-05
9.64066e-05
9.54351e-05
9.40632e-05
9.21477e-05
8.96095e-05
8.64117e-05
8.22575e-05
7.25454e-05
53.7512
27.0056
38.7911
71.455
122.731
176.003
95.7409
47.0046
24.4965
16.0801
13.9939
14.8783
17.8644
21.074
21.3196
20.1125
18.2302
16.1033
13.9659
11.9332
10.0559
8.35095
6.81796
5.44855
4.23254
3.16201
2.24191
1.47085
0.85081
0.390099
0.102819
0.0028297
6.86356e-05
6.77806e-05
6.93247e-05
7.10432e-05
7.28611e-05
7.47133e-05
7.65105e-05
7.81719e-05
7.96704e-05
8.10388e-05
8.23008e-05
8.33918e-05
8.42144e-05
8.47458e-05
8.50273e-05
8.51127e-05
8.50654e-05
8.49205e-05
8.46464e-05
8.42009e-05
8.35564e-05
8.26815e-05
8.15449e-05
8.01237e-05
7.84298e-05
7.6449e-05
7.38647e-05
6.65173e-05
51.9055
30.0401
49.939
104.738
193.533
135.769
60.5503
28.1778
16.2561
12.8359
12.868
14.8475
18.5097
20.3074
19.9443
18.4908
16.5786
14.5319
12.5223
10.6342
8.9027
7.33626
5.9302
4.67497
3.56078
2.58874
1.76129
1.07862
0.548614
0.18726
0.0165826
7.55534e-05
5.96832e-05
6.07015e-05
6.19625e-05
6.33705e-05
6.48669e-05
6.64015e-05
6.79081e-05
6.93121e-05
7.05753e-05
7.17242e-05
7.2799e-05
7.37651e-05
7.45331e-05
7.50511e-05
7.53324e-05
7.54209e-05
7.5382e-05
7.52623e-05
7.50495e-05
7.47098e-05
7.42223e-05
7.35705e-05
7.27432e-05
7.17364e-05
7.05707e-05
6.92504e-05
6.75482e-05
6.19853e-05
49.6796
34.885
66.7733
161.532
168.87
70.0426
29.9781
15.8103
11.6402
11.1579
12.5054
15.3144
18.6519
19.2927
18.4727
16.8876
14.9931
13.0398
11.1587
9.41101
7.81905
6.38436
5.09884
3.95217
2.93905
2.06585
1.33141
0.741174
0.309408
0.0593775
0.000395542
5.46338e-05
5.49819e-05
5.57667e-05
5.6754e-05
5.78746e-05
5.90773e-05
6.03219e-05
6.1561e-05
6.27295e-05
6.37808e-05
6.47306e-05
6.56241e-05
6.64553e-05
6.71529e-05
6.76478e-05
6.79234e-05
6.80113e-05
6.79724e-05
6.78632e-05
6.76895e-05
6.74283e-05
6.7061e-05
6.65739e-05
6.59645e-05
6.52373e-05
6.44123e-05
6.35089e-05
6.23879e-05
5.82686e-05
54.8962
52.3444
111.751
155.66
61.8559
26.0139
13.7044
10.0631
9.54677
10.5464
12.7437
16.2036
18.1477
18.0214
16.913
15.2891
13.4607
11.6201
9.8711
8.26096
6.80342
5.49467
4.32398
3.28102
2.371
1.59469
0.95474
0.462046
0.13722
0.00625351
5.48852e-05
5.14584e-05
5.17659e-05
5.23201e-05
5.3058e-05
5.39183e-05
5.4856e-05
5.58399e-05
5.6836e-05
5.77888e-05
5.86489e-05
5.9421e-05
6.01467e-05
6.08393e-05
6.14501e-05
6.19061e-05
6.21666e-05
6.22463e-05
6.22e-05
6.20877e-05
6.1932e-05
6.17221e-05
6.14397e-05
6.10708e-05
6.06134e-05
6.0074e-05
5.94709e-05
5.88338e-05
5.8099e-05
5.51412e-05
109.289
175.307
103.768
41.9844
18.4171
10.5033
8.19724
7.99445
8.88191
10.647
13.4703
16.5386
17.2332
16.6188
15.3328
13.7162
11.9813
10.2676
8.65556
7.18194
5.855
4.66751
3.60655
2.66784
1.85776
1.17741
0.634474
0.245454
0.0358095
0.000134061
4.95357e-05
4.93579e-05
4.9482e-05
4.98316e-05
5.03548e-05
5.099e-05
5.16978e-05
5.24569e-05
5.3244e-05
5.40112e-05
5.47071e-05
5.53273e-05
5.59064e-05
5.64683e-05
5.69856e-05
5.73896e-05
5.76252e-05
5.76918e-05
5.76345e-05
5.7513e-05
5.73611e-05
5.71789e-05
5.69521e-05
5.66658e-05
5.63146e-05
5.59031e-05
5.54461e-05
5.49811e-05
5.4505e-05
5.24746e-05
40.0158
56.7051
22.5994
11.2557
7.54855
6.49331
6.61415
7.48551
9.00779
11.2515
14.4558
16.0692
16.0999
15.1721
13.7822
12.1951
10.563
8.98227
7.50993
6.17215
4.97312
3.90354
2.94969
2.11462
1.40066
0.816377
0.374248
0.0958804
0.00227463
4.98679e-05
4.82207e-05
4.79366e-05
4.7885e-05
4.80447e-05
4.83739e-05
4.88105e-05
4.93166e-05
4.98776e-05
5.04828e-05
5.10913e-05
5.16475e-05
5.21365e-05
5.25882e-05
5.30332e-05
5.34587e-05
5.38046e-05
5.40078e-05
5.40565e-05
5.39873e-05
5.38554e-05
5.36989e-05
5.35275e-05
5.33327e-05
5.31005e-05
5.28223e-05
5.24985e-05
5.214e-05
5.17878e-05
5.14879e-05
5.01918e-05
4.97093e-05
6.52519e-05
8.4691e-05
0.000112014
0.00015058
0.000206309
0.000288251
0.000426256
0.000817635
0.00240891
0.0083785
0.0230384
0.0473797
0.0807801
0.125061
0.186286
0.277677
0.429957
0.742816
2.02169
4.89066e-05
6.23993e-05
7.90921e-05
0.000102799
0.000136525
0.000186604
0.000262477
0.000398131
0.000798833
0.00240204
0.00833893
0.0232864
0.0491505
0.0860492
0.136929
0.210761
0.327531
0.532892
0.955543
2.32304
4.81159e-05
5.95598e-05
7.35511e-05
9.35616e-05
0.000122184
0.000165647
0.000233444
0.000361991
0.000757282
0.00231755
0.00802534
0.0227922
0.049549
0.089276
0.145548
0.228348
0.358578
0.577753
0.977364
1.86021
4.73657e-05
5.68456e-05
6.82981e-05
8.47444e-05
0.000108356
0.000144871
0.000203475
0.000321316
0.000698442
0.00217121
0.0074854
0.021582
0.0483741
0.0898058
0.149571
0.236779
0.368954
0.575997
0.909035
1.4753
4.66787e-05
5.43427e-05
6.35081e-05
7.66722e-05
9.56615e-05
0.000125483
0.000174811
0.000280689
0.000633888
0.00200387
0.00686378
0.0199908
0.0460802
0.0880551
0.149454
0.237491
0.364843
0.550237
0.818398
1.20263
4.60704e-05
5.21098e-05
5.92805e-05
6.95297e-05
8.45118e-05
0.00010835
0.000149853
0.000247841
0.000593387
0.00193137
0.00655323
0.0190029
0.0443599
0.0862476
0.14797
0.234763
0.35485
0.518778
0.737098
1.01743
4.55493e-05
5.01813e-05
5.56446e-05
6.34331e-05
7.51711e-05
9.49862e-05
0.000136904
0.000263158
0.000749335
0.00255426
0.00811274
0.0215924
0.0476309
0.0899418
0.151679
0.236665
0.349912
0.496815
0.681075
0.902227
4.51238e-05
4.8571e-05
5.26061e-05
5.86695e-05
7.06021e-05
0.000107781
0.000263731
0.000911843
0.00305595
0.0083623
0.018891
0.0373187
0.0670207
0.111489
0.173982
0.257692
0.365803
0.500893
0.663659
0.85167
4.481e-05
4.72995e-05
5.07186e-05
6.3523e-05
0.000155535
0.000801699
0.00366738
0.0109873
0.0233971
0.0401678
0.0610967
0.0876291
0.122783
0.170294
0.23379
0.316396
0.420518
0.547443
0.696821
0.866401
4.49141e-05
4.77171e-05
8.13699e-05
0.000659573
0.0054993
0.0208037
0.0458938
0.0751477
0.104629
0.133257
0.162048
0.193588
0.231562
0.280082
0.342996
0.423453
0.523581
0.644167
0.784817
0.944491
0.000151722
0.000418852
0.0093545
0.047755
0.107112
0.164402
0.21067
0.246419
0.274945
0.299866
0.324615
0.352673
0.387802
0.433793
0.494085
0.571557
0.668224
0.784829
0.921663
1.07958
0.140064
0.1212
0.301991
0.425817
0.486151
0.508098
0.512252
0.510551
0.509178
0.511682
0.520415
0.53744
0.56536
0.606893
0.664422
0.74009
0.835857
0.954211
1.09789
1.26608
4.26388
1.51807
1.40933
1.23172
1.07157
0.945187
0.852278
0.786848
0.742852
0.716639
0.706559
0.711779
0.733267
0.772503
0.83043
0.907159
1.00345
1.13198
1.3074
1.50456
7.86127
4.21842
2.65068
1.9126
1.50419
1.25593
1.09575
0.989518
0.919592
0.876684
0.856995
0.858681
0.881804
0.927118
0.995439
1.0826
1.1766
1.30933
1.49016
1.70801
3.65596
3.09391
2.23487
1.73499
1.42369
1.22253
1.08697
0.992917
0.928584
0.887972
0.867302
0.865446
0.882767
0.91966
0.97615
1.04908
1.13377
1.24918
1.38568
1.5341
2.44777
1.99981
1.55059
1.28912
1.11902
1.00243
0.919671
0.859936
0.817863
0.790813
0.777123
0.776248
0.788356
0.813506
0.851291
0.900717
0.96361
1.0485
1.14699
1.24696
1.95844
1.47098
1.1286
0.946847
0.839238
0.769549
0.721692
0.68797
0.664723
0.650242
0.64369
0.64479
0.653571
0.670056
0.694146
0.725953
0.767077
0.820317
0.882831
0.947674
1.64266
1.15595
0.849023
0.696284
0.614926
0.568143
0.539511
0.521416
0.51026
0.504356
0.502935
0.505703
0.512596
0.523622
0.538828
0.558474
0.583346
0.614309
0.650351
0.688466
1.35499
0.898935
0.623873
0.495183
0.43225
0.400044
0.383134
0.374417
0.370503
0.369758
0.371408
0.375114
0.380751
0.388298
0.397801
0.409423
0.423483
0.440235
0.459264
0.479319
1.04726
0.648548
0.420588
0.324158
0.281383
0.26206
0.253832
0.251208
0.251579
0.253661
0.256818
0.260748
0.265318
0.270485
0.27626
0.282712
0.289954
0.298041
0.306783
0.315647
0.707254
0.397712
0.238682
0.182285
0.160771
0.153001
0.151352
0.152618
0.155286
0.158591
0.162136
0.165716
0.169229
0.172629
0.175905
0.179074
0.182165
0.185182
0.188037
0.190508
0.360314
0.173299
0.0979378
0.0783858
0.0733469
0.0733819
0.0755207
0.0785521
0.0818857
0.085201
0.0883136
0.0911149
0.09354
0.0955517
0.0971327
0.0982813
0.0990053
0.0993067
0.0991601
0.0984978
0.0933085
0.0351316
0.0211444
0.0199805
0.0214421
0.0237739
0.0264134
0.0290996
0.0316778
0.0340427
0.0361177
0.0378461
0.0391868
0.0401124
0.0406095
0.0406783
0.0403314
0.0395886
0.0384691
0.036987
0.00386956
0.00156395
0.00120464
0.00153615
0.002122
0.00288488
0.00376079
0.00468584
0.00559977
0.00644837
0.00718483
0.00777091
0.00817823
0.00838963
0.00840032
0.00821806
0.00786184
0.00735897
0.00674118
0.0060413
5.16722
7.4162
10.0237
12.341
13.5179
13.7727
13.4083
12.8741
12.4739
12.1583
12.0338
12.2028
12.7975
14.067
16.6753
3.96122
10.3391
13.624
13.1008
11.527
10.121