/*--------------------------------*- C++ -*----------------------------------*\
| =========                 |                                                 |
| \\      /  F ield         | OpenFOAM: The Open Source CFD Toolbox           |
|  \\    /   O peration     | Version:  v1912                                 |
|   \\  /    A nd           | Website:  www.openfoam.com                      |
|    \\/     M anipulation  |                                                 |
\*---------------------------------------------------------------------------*/
FoamFile
{
    version     2.0;
    format      ascii;
    class       volScalarField;
    location    "16";
    object      k;
}
// * * * * * * * * * * * * * * * * * * * * * * * * * * * * * * * * * * * * * //

dimensions      [0 2 -2 0 0 0 0];


internalField   nonuniform List<scalar> 
20320
(
0.00413886
0.00425594
0.00433423
0.00441111
0.00448603
0.00455845
0.00462774
0.00469313
0.00475366
0.00480831
0.00485599
0.00489583
0.00493341
0.00505715
0.00600825
0.0110003
0.0253365
0.0491061
0.0711015
0.0624559
0.00414959
0.00414642
0.0041859
0.00427017
0.00441555
0.00463719
0.00494516
0.00534526
0.00584055
0.00642602
0.00708473
0.00779215
0.00864663
0.012254
0.0320219
0.0830822
0.147837
0.194046
0.206687
0.180891
0.0041747
0.0042101
0.00428665
0.00440842
0.00459651
0.00487392
0.00526706
0.00580735
0.00652461
0.00744092
0.00853515
0.00971301
0.0124397
0.029184
0.0849554
0.173642
0.258024
0.308194
0.313174
0.253742
0.00421072
0.00430632
0.00444491
0.00462666
0.0048725
0.00520765
0.00566431
0.00627794
0.00709758
0.00815061
0.0093793
0.0111103
0.0198791
0.0616999
0.152356
0.262593
0.354267
0.403723
0.399476
0.312341
0.00425534
0.00443048
0.0046511
0.00491155
0.00523364
0.00564306
0.00617327
0.00686458
0.00776449
0.0088852
0.0101832
0.0135849
0.0350614
0.106612
0.223046
0.345072
0.439234
0.485984
0.472533
0.363111
0.00430708
0.0045811
0.00490419
0.00526485
0.00568544
0.00619038
0.00681266
0.00759922
0.00857723
0.00972661
0.0112758
0.0186973
0.0589165
0.157915
0.29194
0.420685
0.515368
0.558725
0.536742
0.408578
0.00436412
0.00475373
0.00519671
0.00568002
0.00621816
0.00684115
0.00757868
0.0084661
0.009524
0.0106933
0.0129687
0.0276845
0.0897647
0.211254
0.35734
0.490239
0.58468
0.624584
0.594832
0.450226
0.00442423
0.00494172
0.00552169
0.00614351
0.00682292
0.00758476
0.00845709
0.00945762
0.0105865
0.0118214
0.0156786
0.041067
0.125103
0.264217
0.418959
0.554778
0.648811
0.685495
0.648657
0.489138
0.00448464
0.00513819
0.0058663
0.00664056
0.00748376
0.00840271
0.00942938
0.0105618
0.0117435
0.0131701
0.0198376
0.0585504
0.16274
0.315652
0.477068
0.615345
0.70916
0.743016
0.699665
0.526228
0.00454245
0.00533482
0.00621382
0.00715511
0.00817352
0.00927191
0.0104734
0.0117489
0.0129801
0.0148245
0.0257556
0.0792855
0.201104
0.3651
0.532166
0.672957
0.767012
0.798544
0.749148
0.562362
0.00459476
0.00552097
0.00654802
0.00766296
0.00886098
0.0101631
0.0115562
0.0129767
0.0142875
0.0168775
0.0335154
0.10221
0.239161
0.412481
0.584868
0.72865
0.823672
0.853507
0.798436
0.598463
0.00463868
0.00568548
0.00685233
0.00813317
0.00951567
0.0110365
0.0126329
0.0142006
0.0156536
0.0193985
0.0429418
0.126291
0.276276
0.45794
0.635896
0.783572
0.88061
0.909548
0.84908
0.63562
0.00467158
0.00581861
0.00710849
0.00853556
0.0101054
0.0118433
0.0136521
0.0153757
0.0170562
0.0224028
0.0536445
0.150641
0.312098
0.501807
0.686139
0.839128
0.939696
0.968821
0.903152
0.675285
0.00469147
0.00591269
0.00729851
0.00884541
0.0105943
0.012533
0.0145597
0.0164528
0.0184583
0.0258269
0.0650874
0.174531
0.346471
0.544557
0.736708
0.897143
1.00349
1.0344
0.963685
0.719555
0.00469735
0.00596246
0.00740847
0.00904453
0.0109465
0.0130602
0.0153014
0.0173765
0.0198067
0.0295198
0.0766617
0.197363
0.379363
0.586815
0.789031
0.960116
1.07575
1.11109
1.03554
0.77178
0.00468935
0.00596566
0.00743157
0.00912152
0.0111337
0.0133895
0.015826
0.0180888
0.0210309
0.0332524
0.0877401
0.218623
0.410796
0.629325
0.844928
1.03154
1.16224
1.20687
1.12738
0.837953
0.00466865
0.00592348
0.00736893
0.00907293
0.011141
0.0134978
0.0160913
0.0185345
0.0220451
0.0367431
0.0977058
0.237795
0.440719
0.672812
0.906542
1.11618
1.27193
1.33584
1.25616
0.930194
0.00463731
0.00584066
0.00722896
0.00890465
0.0109701
0.0133775
0.0160712
0.0186694
0.0227565
0.0396932
0.105965
0.25426
0.468786
0.717636
0.975892
1.21983
1.41813
1.52313
1.45789
1.07819
0.00459795
0.00572485
0.00702568
0.00863212
0.0106387
0.013038
0.0157619
0.018469
0.0230818
0.0418334
0.11198
0.267234
0.494102
0.763198
1.05372
1.34749
1.61725
1.80994
1.81137
1.37024
0.0045534
0.00558547
0.00677651
0.00827849
0.0101771
0.012507
0.0151855
0.0179364
0.0229657
0.0429695
0.11532
0.27576
0.514981
0.807113
1.13725
1.49798
1.87779
2.24058
2.46101
2.13696
4.65888
5.45579
6.74527
8.14343
9.08344
9.00475
8.92987
9.18675
10.3824
13.7877
21.2346
32.9551
46.9359
61.1199
75.5799
92.3872
107.318
96.0181
78.9248
66.5153
56.6036
48.3372
41.3603
35.5419
30.7668
26.8917
23.7811
21.2847
19.2384
17.5378
16.1068
14.8887
13.8409
12.9309
12.1347
11.4345
10.8165
10.2693
9.78289
9.34863
8.95962
8.60967
8.29359
8.00747
7.74801
7.51309
7.30147
7.11181
6.94192
6.78805
6.6455
6.51224
6.38953
6.27977
6.18383
6.10045
6.02753
5.96255
5.90088
5.83144
7.00444
15.7532
19.2435
22.276
24.4103
25.2787
25.8119
27.1983
31.1079
40.4926
59.4573
90.2172
130.386
173.731
212.588
247.293
260.004
237.711
197.172
164.917
139.222
118.23
101.014
87.0383
75.7568
66.6266
59.1676
53.0232
47.9174
43.6315
39.9974
36.8857
34.1972
31.8557
29.8035
27.9965
26.4001
24.9849
23.7257
22.6009
21.5927
20.6856
19.867
19.1264
18.4557
17.8489
17.3018
16.81
16.3678
15.9663
15.5954
15.2498
14.9327
14.649
14.3985
14.1768
13.9783
13.7961
13.619
13.4349
8.69118
20.7198
25.1247
28.4751
30.9888
32.5715
33.8738
36.1827
41.5291
53.1248
75.2958
111.628
163.533
230.842
292.985
345.622
325.912
279.567
232.628
194.804
164.719
140.221
120.319
104.401
91.6994
81.4415
73.0076
65.9634
60.0206
54.9622
50.6222
46.8703
43.6035
40.7405
38.2182
35.9866
34.0055
32.2412
30.6646
29.2506
27.9785
26.8306
25.7918
24.85
23.9953
23.2202
22.519
21.8857
21.3132
20.7925
20.3126
19.867
19.4579
19.0895
18.7603
18.4646
18.1962
17.9485
17.7106
17.4732
10.2283
25.066
30.1322
33.5843
36.2308
38.3371
40.4139
43.5953
50.0107
62.8382
86.1873
124.274
181.258
268.623
373.118
442.825
386.341
300.225
244.027
202.887
171.566
146.571
126.566
110.816
98.3589
88.2703
79.8925
72.7995
66.7338
61.5087
56.9802
53.0316
49.5685
46.5149
43.8095
41.4037
39.2575
37.3369
35.6125
34.0591
32.6556
31.3841
30.2296
29.1795
28.2239
27.355
26.5662
25.8507
25.201
24.6085
24.0622
23.5551
23.0891
22.668
22.289
21.9448
21.6293
21.3371
21.0578
20.7853
11.6882
29.4458
35.2921
38.5606
41.1141
43.6219
46.4471
50.5716
58.0909
72.1456
96.6237
135.871
195.676
287.606
401.261
497.711
426.32
314.417
244.695
198.933
167.162
143.312
124.906
110.698
99.4802
90.2869
82.5342
75.8827
70.1217
65.1052
60.7152
56.8552
53.4449
50.4181
47.7207
45.3087
43.1454
41.1996
39.4438
37.8543
36.4114
35.0982
33.9006
32.8074
31.809
30.8982
30.0683
29.3119
28.6214
27.9894
27.4062
26.8648
26.3674
25.9169
25.5086
25.1338
24.7873
24.4662
24.1591
23.8625
13.1182
33.9549
41.3419
43.6463
45.9233
48.8219
52.4057
57.6059
66.4886
82.2697
108.877
150.772
215.25
316.575
441.354
579.749
453.777
324.489
240.726
188.945
156.538
134.727
118.936
106.886
97.2913
89.2811
82.4202
76.4694
71.2664
66.6924
62.6545
59.0752
55.8897
53.0431
50.4906
48.1949
46.1245
44.2521
42.5534
41.0072
39.5958
38.3045
37.1211
36.0356
35.04
34.1279
33.2931
32.5277
31.8242
31.1762
30.5779
30.0243
29.5174
29.0575
28.6364
28.2441
27.8789
27.5424
27.2187
26.905
14.3273
37.8334
47.0135
48.5454
50.7354
54.1549
58.5937
65.0525
75.7296
94.0626
124.368
171.515
244.087
361.071
516.922
706.868
487.002
330.988
233.859
176.366
143.635
124.792
111.989
101.747
93.6104
86.6607
80.6799
75.4918
70.9492
66.9421
63.3848
60.211
57.3671
54.8088
52.5009
50.4132
48.5194
46.797
45.2247
43.7842
42.4607
41.2419
40.1177
39.0802
38.1235
37.2422
36.4303
35.6795
34.985
34.3369
33.7361
33.1889
32.6944
32.2429
31.8218
31.4202
31.0426
30.7071
30.3767
30.0483
14.4852
38.8397
48.9457
52.2695
55.5409
59.7874
65.2833
73.2417
86.2495
108.287
144.431
200.57
286.37
423.776
612.337
818.157
514.171
331.816
223.651
162.616
131.004
116.66
106.072
96.3567
88.7715
82.6763
77.6663
73.3919
69.6501
66.3235
63.3398
60.6517
58.2237
56.0262
54.0326
52.218
50.5611
49.0433
47.6463
46.3548
45.1582
44.0471
43.0134
42.0524
41.1596
40.3324
39.5683
38.8532
38.1882
37.5636
36.9734
36.4304
35.9482
35.5111
35.0934
34.6778
34.2588
33.8237
33.3772
32.992
14.7525
39.2823
49.5462
55.5633
60.4393
65.898
72.7553
82.5321
98.415
125.494
170.154
240.353
347.599
513.863
725.788
857.308
523.953
323.492
209.254
148.253
119.896
108.931
96.8729
88.6608
82.6282
77.9381
74.1102
70.8324
67.9243
65.2904
62.878
60.6594
58.6184
56.7417
55.0174
53.4325
51.9726
50.6225
49.3672
48.1945
47.097
46.0689
45.1056
44.2046
43.3642
42.5854
41.8677
41.1966
40.575
39.9898
39.4086
38.8395
38.3224
37.8495
37.3915
36.9174
36.4258
35.9831
35.5438
35.1303
15.4643
41.0308
51.7887
59.2774
65.7065
72.7052
81.3112
93.272
112.541
145.869
201.984
292.54
434.23
648.939
899.928
905.681
514.956
304.242
190.723
134.004
110.637
97.7731
88.0698
81.6428
77.0538
73.5145
70.6586
68.2187
66.0298
64.0076
62.1112
60.3233
58.6363
57.0472
55.5558
54.1614
52.859
51.6397
50.4927
49.4087
48.3829
47.4127
46.4964
45.6338
44.8248
44.0704
43.3659
42.7011
42.0798
41.4705
40.8667
40.3077
39.7952
39.297
38.7961
38.2796
37.7808
37.3695
36.9613
36.5513
16.5045
43.8323
55.3714
63.8637
71.6524
80.4495
91.2823
105.776
128.881
169.209
239.389
357.171
552.052
855.493
1132.38
888.055
480.791
274.391
169.447
120.997
102.206
90.1153
81.7263
76.1386
72.3443
69.5426
67.3507
65.526
63.9065
62.3999
60.9604
59.5693
58.2198
56.9113
55.6488
54.4392
53.2856
52.1865
51.1365
50.1303
49.1655
48.2421
47.3613
46.5245
45.733
44.9868
44.2803
43.6059
42.9598
42.3204
41.7016
41.1405
40.6205
40.1035
39.5781
39.053
38.575
38.18
37.7864
37.3853
17.7373
47.5305
60.1698
69.5677
78.5119
89.3383
103.106
120.341
147.439
195.408
280.915
431.92
698.083
1134.83
1532.56
794.068
421.827
237.129
147.839
110.14
95.6766
85.4944
77.462
71.9832
68.3483
65.8467
64.0289
62.616
61.4257
60.3447
59.3099
58.2903
57.2728
56.2523
55.2328
54.2234
53.2322
52.2635
51.3179
50.3945
49.4941
48.6193
47.7735
46.9601
46.1815
45.4377
44.7241
44.0342
43.3626
42.7021
42.0735
41.5017
40.9668
40.4367
39.9053
39.3921
38.9365
38.546
38.1567
37.7692
19.7636
52.112
66.2418
76.6296
86.4869
99.3983
117.686
137.346
167.988
223.904
324.982
512.348
832.597
1136.19
1245.04
654.289
349.315
198.083
128.434
101.934
91.8708
82.3218
74.5145
68.8497
64.992
62.4199
60.6891
59.4793
58.5695
57.8138
57.1216
56.4408
55.7441
55.0177
54.2574
53.4697
52.6634
51.8462
51.0232
50.1982
49.3753
48.5597
47.7572
46.9733
46.2116
45.4734
44.7559
44.0552
43.3685
42.6988
42.0659
41.4843
40.9373
40.4024
39.8788
39.3861
38.9497
38.562
38.1792
37.8137
23.187
57.7878
73.8118
85.4048
95.9259
109.752
131.349
154.061
189.584
253.457
368.795
581.045
805.706
1126.65
906.86
502.45
277.213
162.762
112.847
96.3368
88.4726
79.8384
72.2741
66.4028
62.1861
59.3206
57.4429
56.2332
55.4428
54.8917
54.4579
54.0622
53.6565
53.214
52.7181
52.1663
51.5642
50.9197
50.2402
49.5327
48.8045
48.0635
47.3179
46.575
45.8407
45.118
44.4072
43.7074
43.0205
42.3546
41.7258
41.1425
40.5932
40.0647
39.559
39.0912
38.6741
38.2954
37.9286
37.5945
24.6437
64.3221
81.9
94.0239
104.99
119.079
140.628
169.97
211.044
282.042
414.71
577.643
775.459
1001.06
657.402
378.338
216.015
134.347
101.416
92.4467
85.5804
77.6448
70.3683
64.3657
59.8005
56.5585
54.3909
53.0205
52.198
51.7229
51.4455
51.2599
51.0945
50.903
50.658
50.3417
49.952
49.4935
48.9734
48.4002
47.7834
47.133
46.4594
45.7723
45.0794
44.3865
43.697
43.0142
42.3436
41.6953
41.0823
40.51
39.9721
39.4621
38.983
38.5447
38.1514
37.792
37.4525
37.1567
26.4582
68.5405
85.9365
100.323
114.475
130.953
153.807
188.3
233.504
306.843
431.917
561.649
742.869
809.226
484.494
283.912
168.721
113.425
93.5965
89.1309
82.8941
75.5976
68.6016
62.5455
57.7011
54.0902
51.5747
49.9429
48.97
48.4537
48.2285
48.1667
48.1743
48.1851
48.1558
48.0577
47.874
47.6031
47.2493
46.8206
46.3273
45.7808
45.1934
44.5765
43.9404
43.2933
42.6422
41.9936
41.3559
40.7401
40.1565
39.6099
39.098
38.6186
38.1748
37.7718
37.4098
37.0803
36.7775
36.5242
28.3746
71.964
90.6659
107.19
123.638
141.357
166.753
207.498
256.383
325.225
420.163
546.588
705.5
585.931
358.862
214.148
134.304
98.9791
88.5107
86.0588
80.3414
73.5825
66.8634
60.818
55.7759
51.8475
48.9857
47.0474
45.8479
45.1996
44.9339
44.9105
45.0177
45.1712
45.3106
45.396
45.3981
45.304
45.1129
44.8305
44.4663
44.0323
43.5418
43.008
42.4428
41.8574
41.2611
40.6636
40.0749
39.506
38.966
38.4598
37.9878
37.5504
37.1501
36.7893
36.4664
36.1759
35.9162
35.7067
29.6439
74.7641
94.4603
110.935
126.414
144.413
169.472
206.969
255.248
321.102
411.522
527.102
618.648
433.661
265.584
163.431
110.399
89.4024
85.3899
83.1618
77.9111
71.5574
65.0923
59.1041
53.9397
49.761
46.588
44.3392
42.8754
42.0345
41.6563
41.5966
41.7331
41.9669
42.2228
42.4464
42.6023
42.6637
42.6221
42.4792
42.2428
41.9243
41.5372
41.0957
40.6134
40.103
39.5763
39.0447
38.5192
38.0106
37.5273
37.0745
36.6546
36.269
35.9197
35.6075
35.3306
35.0854
34.8724
34.7063
30.0147
75.8909
95.5236
110.781
125.575
142.992
166.198
199.037
243.955
306.232
390.396
480.693
490.68
314.601
196.925
127.737
94.3831
83.1693
82.9215
80.5377
75.5283
69.4892
63.2538
57.355
52.1311
47.7698
44.3358
41.7985
40.0625
38.9962
38.4558
38.3013
38.406
38.6618
38.9811
39.2976
39.5651
39.7531
39.8403
39.8233
39.7069
39.5013
39.2194
38.8755
38.4842
38.0593
37.6137
37.1598
36.709
36.2716
35.8558
35.467
35.1085
34.7824
34.4901
34.2319
34.0059
33.8101
33.6451
33.5211
29.23
75.1873
94.148
108.571
122.911
139.733
160.875
189.304
228.252
280.915
347.366
407.192
351.069
228.254
148.411
103.542
83.8201
79.1723
80.4961
77.9374
73.1477
67.3577
61.3301
55.5419
50.3089
45.8259
42.1851
39.395
37.3986
36.096
35.3643
35.0733
35.098
35.3253
35.6594
36.0241
36.3634
36.6403
36.8309
36.921
36.9121
36.8119
36.6324
36.3874
36.0913
35.758
35.4012
35.033
34.6649
34.3067
33.9661
33.6487
33.3582
33.0968
32.8657
32.6649
32.493
32.3484
32.2314
32.1477
27.3325
72.9117
91.2015
105.085
119.168
135.602
155.032
179.322
210.921
251.88
296.901
326.385
250.62
168.096
115.499
87.4434
76.8159
76.6102
78.0839
75.3993
70.7304
65.1482
59.3128
53.6493
48.4463
43.8933
40.0979
37.0957
34.8624
33.3278
32.3915
31.9378
31.8469
32.0053
32.3123
32.6847
33.0588
33.39
33.6511
33.8267
33.9091
33.9034
33.8198
33.6708
33.4698
33.2305
32.9658
32.6875
32.4063
32.1316
31.8705
31.6287
31.4097
31.216
31.0484
30.9069
30.7904
30.6975
30.6276
30.5823
25.6317
69.3731
87.1779
100.726
114.547
130.668
149.033
169.586
195.415
225.943
254.307
252.372
182.682
127.842
93.4502
76.6465
72.1246
75.0035
75.6501
72.8613
68.274
62.8606
57.2024
51.6728
46.5291
41.9488
38.0451
34.8719
32.4304
30.6773
29.5352
28.9043
28.6737
28.7327
28.9787
29.3238
29.6991
30.0544
30.3573
30.5898
30.7443
30.8199
30.8225
30.7632
30.6538
30.5065
30.3333
30.1448
29.9512
29.7612
29.5813
29.4165
29.2703
29.1448
29.0408
28.9584
28.8969
28.8549
28.8307
28.8218
23.7496
64.971
82.3537
95.6562
109.099
124.947
142.503
161.05
182.799
203.922
217.805
191.343
138.412
100.624
78.4186
69.2812
69.0311
73.2711
73.2756
70.3032
65.7656
60.4973
55.005
49.6146
44.5515
39.9778
36.0053
32.6989
30.0794
28.1264
26.7843
25.9704
25.5852
25.5227
25.6811
25.9705
26.3182
26.6704
26.9908
27.2581
27.4619
27.6002
27.6762
27.6971
27.6723
27.6122
27.527
27.4264
27.319
27.2121
27.1118
27.0226
26.9476
26.8888
26.847
26.8221
26.8132
26.8193
26.8381
26.8632
22.0478
60.3801
77.1856
90.0996
102.88
117.608
134.176
152.373
170.58
184.095
185.64
146.952
107.838
81.5874
67.9646
64.2667
67.1637
71.3431
70.7752
67.6783
63.196
58.0641
52.7308
47.4819
42.5147
37.9739
33.9652
30.5591
27.7904
25.6577
24.1256
23.1288
22.5802
22.3811
22.4321
22.6431
22.9396
23.2653
23.5816
23.8642
24.1004
24.2855
24.4203
24.5092
24.5591
24.5777
24.5733
24.5538
24.5264
24.4976
24.4724
24.455
24.448
24.453
24.4704
24.5
24.5409
24.5915
24.649
24.7046
20.4075
56.051
72.2163
84.5873
96.3684
108.866
123.923
142.056
158.007
166.027
153.797
114.89
85.6664
67.9597
60.7294
61.0226
66.2814
69.3419
68.2661
65.0044
60.5696
55.5695
50.3911
45.2853
40.4242
35.9356
31.9171
28.44
25.5482
23.2559
21.5457
20.3693
19.6531
19.307
19.236
19.3511
19.5775
19.8578
20.1514
20.4321
20.6847
20.9019
21.0816
21.2256
21.3379
21.4241
21.4903
21.5427
21.5873
21.6293
21.6733
21.7224
21.7788
21.8433
21.9159
21.9959
22.0819
22.1723
22.2636
22.3444
18.3282
51.9046
67.5196
79.4791
90.2754
100.97
113.894
130.589
143.384
146.838
121.753
90.4136
69.1462
58.3184
55.9392
59.1823
65.5703
67.2999
65.7018
62.2949
57.9016
53.0272
47.9997
43.0366
38.288
33.8657
29.8579
26.3338
23.3425
20.91
19.0342
17.6835
16.7983
16.2985
16.095
16.1013
16.2432
16.463
16.7189
16.9829
17.2375
17.4724
17.6831
17.8684
18.0301
18.1713
18.2964
18.4102
18.5173
18.622
18.7278
18.8371
18.9509
19.0695
19.1919
19.3166
19.4417
19.5653
19.6836
19.7836
16.3177
47.5736
62.7437
74.498
84.8589
94.6086
106.125
119.744
127.655
123.774
95.416
71.3809
57.0703
51.847
53.0708
58.5311
64.3939
65.1492
63.1187
59.5697
55.2095
50.4522
45.5698
40.7474
36.1146
31.7684
27.7875
24.2368
21.1672
18.6128
16.5847
15.0666
14.0135
13.3566
13.0138
12.9025
12.95
13.0984
13.3052
13.5404
13.784
14.0233
14.251
14.4636
14.6607
14.8437
15.0153
15.179
15.3383
15.4965
15.6558
15.8176
15.9819
16.1475
16.3124
16.4742
16.6303
16.7782
16.9145
17.0263
14.2139
42.8548
57.5444
69.1577
79.5043
89.465
100.605
110.281
113.357
99.6109
74.2912
57.0435
48.7976
47.9084
51.7158
58.7296
63.0779
62.9549
60.5146
56.8402
52.5086
47.8592
43.1145
38.4287
33.9125
29.6493
25.7077
22.1475
19.019
16.3615
14.1961
12.5204
11.3041
10.4908
10.0067
9.77416
9.72231
9.79327
9.94308
10.1399
10.3613
10.5922
10.8231
11.0487
11.267
11.4778
11.6828
11.8844
12.0848
12.286
12.4893
12.6943
12.8997
13.1032
13.301
13.4897
13.6659
13.8267
13.9697
14.0841
11.8429
37.5517
51.7572
63.2906
73.8469
84.3205
95.0312
101.87
99.6379
78.5601
58.4792
47.021
43.6974
45.903
51.506
59.0411
61.5591
60.6596
57.8881
54.1114
49.8089
45.2594
40.6444
36.0905
31.6899
27.514
23.622
20.0673
16.8988
14.1581
11.8742
10.0565
8.68875
7.7279
7.10922
6.76023
6.61177
6.60515
6.69451
6.84592
7.03502
7.24504
7.46511
7.68897
7.91338
8.13738
8.36165
8.58745
8.81593
9.04775
9.28249
9.51848
9.75269
9.9811
10.1989
10.401
10.5832
10.7428
10.8786
10.9846
8.99428
31.5074
45.3376
57.0073
68.0204
79.035
89.2887
93.8776
84.3919
61.8961
46.947
40.6307
41.0032
45.2913
52.198
58.597
59.8178
58.2864
55.2386
51.3842
47.1152
42.6608
38.168
33.7406
29.4543
25.3687
21.5343
17.9994
14.8101
12.0092
9.63164
7.69963
6.20745
5.12459
4.39603
3.95333
3.72595
3.65216
3.6835
3.78489
3.93161
4.10702
4.3004
4.50556
4.7185
4.93797
5.16393
5.39656
5.63576
5.88062
6.12926
6.37838
6.62347
6.85886
7.07846
7.27601
7.44659
7.58762
7.70042
7.7856
5.49232
24.6211
38.5176
50.7117
62.4891
74.3028
84.1519
85.482
67.1438
48.7802
38.9943
37.0454
39.9757
45.6646
53.4309
57.7677
57.8955
55.8281
52.5634
48.6571
44.4287
40.0668
35.6917
31.3862
27.2123
23.2191
19.4501
15.9486
12.7592
9.92829
7.50067
5.49933
3.93267
2.78634
2.01584
1.54837
1.3006
1.19764
1.18753
1.23793
1.32917
1.44911
1.59046
1.74889
1.92185
2.10796
2.30661
2.51693
2.73754
2.96627
3.19997
3.43385
3.66198
3.87774
4.07371
4.2428
4.37939
4.48168
4.55408
4.60547
6.6459
20.2912
32.8917
45.7282
58.4979
71.4139
80.3435
73.5638
52.4409
38.9953
34.1435
35.4629
40.0479
46.7238
54.255
56.5408
55.7751
53.2918
49.8612
45.9273
41.7485
37.4798
33.2187
29.0321
24.9694
21.0711
17.3748
13.9207
10.7613
7.94823
5.52113
3.51934
1.97841
0.919876
0.325282
0.105857
0.0501758
0.0359983
0.0337491
0.0371264
0.0452793
0.0591841
0.0808685
0.113179
0.159607
0.223822
0.308943
0.416318
0.544855
0.690934
0.849026
1.01247
1.17401
1.32581
1.45963
1.56741
1.64305
1.68507
1.70067
1.69952
9.27509
20.0485
31.0035
44.0656
57.9416
72.0903
77.4584
58.1945
40.8365
32.4855
31.7447
35.2018
40.8511
48.2369
54.0014
54.9868
53.5066
50.6869
47.133
43.1931
39.0741
34.9014
30.7537
26.6841
22.7323
18.9318
15.3163
11.9351
8.84572
6.09401
3.73701
1.84986
0.547972
0.0363967
0.00805104
0.00762329
0.00772059
0.00785339
0.00798644
0.008111
0.00822553
0.00833183
0.0084312
0.00852367
0.00861616
0.008734
0.00893197
0.0093223
0.0101348
0.0118098
0.0150816
0.0208601
0.0297065
0.041072
0.0528788
0.0619613
0.0654667
0.0626581
0.0558826
0.0473903
10.0459
23.1064
32.5456
45.9894
61.2086
77.5188
67.418
44.8962
32.2797
28.8764
31.0288
35.7701
42.1887
49.9646
53.1997
53.1098
51.0881
48.016
44.3793
40.4542
36.4053
32.3329
28.2992
24.3466
20.5066
16.8082
13.2898
10.0144
7.02817
4.39359
2.2032
0.620426
0.0186939
0.006541
0.00661092
0.00672889
0.00685341
0.00697889
0.00709915
0.0072093
0.00730836
0.0073981
0.00747865
0.00754548
0.00759377
0.00762429
0.00764077
0.00764638
0.00764453
0.00763652
0.00761985
0.00759173
0.00754976
0.00749036
0.00740849
0.00729875
0.00715774
0.00697724
0.00670739
0.00600612
10.9368
25.0834
34.9355
51.0905
67.8096
78.4501
51.3264
33.4225
26.804
27.4723
31.3536
36.8728
43.9352
50.2919
51.9036
50.9483
48.5273
45.283
41.6028
37.7124
33.7439
29.7765
25.8591
22.0244
18.2987
14.7096
11.3183
8.17186
5.32898
2.88156
0.991299
0.0488533
0.00588058
0.00590822
0.0060021
0.00610585
0.00621484
0.00632506
0.00643131
0.00652895
0.00661657
0.00669613
0.00676908
0.00683193
0.00687937
0.00691019
0.00692673
0.00693209
0.00692986
0.00692203
0.00690688
0.00688198
0.00684565
0.00679603
0.00673117
0.00664951
0.00655093
0.00643048
0.00624473
0.00567814
10.7326
25.701
37.2877
56.574
76.9021
58.6372
34.8824
25.0995
24.3424
27.5009
32.316
38.3774
45.799
49.8238
50.2491
48.6282
45.8798
42.5074
38.8116
34.9718
31.0929
27.2361
23.4379
19.7237
16.1153
12.6604
9.41331
6.42425
3.77382
1.60324
0.217243
0.00570652
0.00541099
0.00547549
0.00555457
0.00564238
0.00573511
0.00582956
0.00592167
0.00600703
0.00608345
0.00615261
0.00621692
0.00627446
0.00632016
0.00635105
0.00636794
0.00637344
0.00637138
0.00636449
0.00635211
0.00633226
0.00630362
0.00626515
0.00621611
0.00615613
0.00608594
0.00600275
0.00587212
0.00541821
10.4732
25.6571
38.8346
61.3229
59.9669
33.8724
22.7433
21.3332
24.0606
28.3564
33.7154
40.2501
46.7499
48.7924
48.2494
46.1424
43.157
39.6995
36.0121
32.2375
28.4573
24.7167
21.0417
17.4513
13.9744
10.6724
7.58958
4.79276
2.39699
0.629751
0.0110425
0.00508417
0.0051129
0.00516355
0.00522706
0.00529882
0.00537539
0.00545414
0.00553206
0.00560514
0.00567061
0.00572949
0.00578457
0.00583555
0.00587822
0.00590849
0.00592539
0.00593086
0.00592859
0.00592199
0.00591145
0.00589559
0.00587323
0.0058435
0.00580619
0.0057615
0.00571036
0.00565172
0.00555968
0.00520092
11.2447
27.5855
42.4824
49.3607
27.2226
18.6683
18.1897
20.9566
24.911
29.7033
35.4849
42.4566
46.5636
47.1724
45.9078
43.4695
40.3434
36.8543
33.2041
29.5113
25.8405
22.2236
18.677
15.2153
11.8931
8.75778
5.86442
3.3047
1.24852
0.0931588
0.00495753
0.00488309
0.00490338
0.00493985
0.00498829
0.00504453
0.00510555
0.00516925
0.00523337
0.0052944
0.00534927
0.00539834
0.00544424
0.00548781
0.00552609
0.00555462
0.00557092
0.00557593
0.00557307
0.00556604
0.00555626
0.00554308
0.00552535
0.00550217
0.00547337
0.00543933
0.005401
0.00535861
0.00529376
0.00501474
17.8731
44.1451
30.3568
17.8128
14.1072
15.3113
18.2787
21.9897
26.3174
31.4014
37.6084
43.6066
45.5474
45.1286
43.3185
40.6413
37.4422
33.969
30.387
26.7959
23.2478
19.7645
16.3531
13.0399
9.88379
6.93262
4.26105
1.99917
0.413744
0.00635608
0.00475375
0.00474351
0.00475179
0.00477513
0.00481
0.00485221
0.00489909
0.00494915
0.0050008
0.00505092
0.00509623
0.00513648
0.0051739
0.00521004
0.00524316
0.00526896
0.00528398
0.00528822
0.00528454
0.00527673
0.00526694
0.00525518
0.00524055
0.0052221
0.00519944
0.00517286
0.00514319
0.00511162
0.00506608
0.00485329
9.189
14.5405
10.5847
11.1522
13.3995
16.2685
19.6292
23.5389
28.0789
33.4196
39.8411
43.3117
43.9621
42.7904
40.5644
37.7052
34.4726
31.0493
27.5632
24.0943
20.6848
17.3484
14.0858
10.9409
7.9606
5.21633
2.81014
0.935658
0.0393615
0.00473028
0.00466723
0.00464808
0.00464461
0.0046554
0.00467759
0.00470696
0.00474092
0.00477843
0.00481871
0.00485905
0.00489581
0.00492806
0.00495775
0.00498688
0.00501461
0.00503709
0.00505027
0.0050534
0.00504885
0.0050402
0.0050299
0.00501859
0.00500575
0.00499044
0.00497212
0.00495077
0.00492706
0.00490278
0.00487114
0.00471287
0.00450639
0.0054324
0.00649995
0.00787124
0.00962373
0.0118271
0.0143881
0.0171065
0.0223994
0.043021
0.115751
0.278885
0.529024
0.844767
1.21793
1.65513
2.17098
2.77783
3.46311
4.33859
0.00445797
0.00527311
0.00621006
0.00743264
0.00901069
0.0110379
0.0134174
0.0160238
0.0214073
0.0420188
0.113285
0.275921
0.533768
0.870532
1.2833
1.78888
2.41869
3.2071
4.15755
5.47666
0.00440975
0.00511129
0.0059151
0.00697846
0.00836347
0.010176
0.0123222
0.0147435
0.0200442
0.0400719
0.108135
0.266563
0.527147
0.879142
1.32179
1.87328
2.56302
3.41137
4.39054
5.47088
0.0043635
0.0049534
0.00562731
0.00652935
0.00771449
0.00929041
0.0111703
0.0133555
0.0184336
0.0374673
0.101078
0.251912
0.509498
0.869068
1.32937
1.90303
2.60829
3.44813
4.38156
5.32984
0.00432072
0.00480484
0.00535723
0.00610284
0.00709255
0.00842621
0.0100264
0.0119617
0.0167815
0.0348166
0.0939706
0.235991
0.486816
0.84758
1.31536
1.8946
2.59138
3.39738
4.27201
5.14513
0.00428249
0.00466978
0.00511218
0.00571122
0.00651995
0.00761472
0.00894436
0.0106946
0.0155711
0.0338585
0.0919467
0.229932
0.476539
0.836766
1.30627
1.88259
2.56271
3.33275
4.15797
4.98522
0.00424948
0.0045511
0.0048958
0.00536311
0.00600384
0.00686373
0.00799641
0.0101028
0.0173716
0.042994
0.114214
0.265285
0.519625
0.883239
1.35298
1.92376
2.58807
3.33058
4.12332
4.928
0.00422233
0.00445036
0.0047085
0.00505618
0.00553723
0.00634385
0.00865723
0.0174514
0.044993
0.108953
0.227004
0.416244
0.691912
1.06311
1.53197
2.0955
2.74594
3.46908
4.24296
5.04028
0.00420199
0.00436752
0.00454604
0.00482712
0.00589394
0.0127484
0.0413877
0.109762
0.22048
0.367861
0.552169
0.783849
1.07935
1.4536
1.91508
2.46501
3.09787
3.80185
4.55987
5.35259
0.00419191
0.00430573
0.00460702
0.00917454
0.0455918
0.152028
0.317792
0.510612
0.713009
0.922727
1.14738
1.40155
1.70367
2.0712
2.51635
3.04412
3.65221
4.33163
5.06973
5.85411
0.00458821
0.0061826
0.0534721
0.242091
0.522251
0.803338
1.05706
1.28612
1.50136
1.7153
1.94129
2.19417
2.49038
2.84549
3.27139
3.77488
4.3569
5.01197
5.73234
6.51209
0.340936
0.388385
0.957629
1.40621
1.71455
1.93422
2.10984
2.26968
2.43096
2.60625
2.80623
3.04149
3.32444
3.66692
4.07774
4.56283
5.12603
5.77112
6.498
7.29233
5.78181
2.97921
3.19915
3.2223
3.19932
3.18328
3.19688
3.24584
3.33041
3.45309
3.61896
3.83285
4.10353
4.43925
4.84399
5.31747
5.86282
6.52102
7.32193
8.17119
10.1788
6.76241
5.42882
4.7685
4.39747
4.18743
4.08121
4.05053
4.08069
4.16635
4.31002
4.51557
4.78962
5.13784
5.56274
6.04933
6.56272
7.20912
7.99926
8.87865
7.2821
6.57778
5.67119
5.10445
4.75045
4.53866
4.42242
4.37492
4.38496
4.44939
4.56696
4.7411
4.97755
5.27982
5.64768
6.06941
6.53156
7.09638
7.72332
8.37476
6.08077
5.57204
5.00475
4.66134
4.44775
4.3214
4.25674
4.23917
4.26286
4.32667
4.43049
4.57628
4.767
5.00388
5.28529
5.60736
5.97683
6.42068
6.90313
7.37985
5.29398
4.77431
4.2909
4.03427
3.89872
3.83372
3.81442
3.82845
3.87047
3.93885
4.03348
4.15526
4.30543
4.48447
4.69189
4.92793
5.19832
5.51121
5.85152
6.19094
4.5216
4.04129
3.57963
3.35446
3.2559
3.22616
3.23649
3.27265
3.32792
3.39946
3.48633
3.58854
3.70644
3.84025
3.9901
4.1569
4.34341
4.55163
4.77481
4.99881
3.66655
3.26491
2.83544
2.64162
2.57225
2.56769
2.59799
2.64817
2.71077
2.78224
2.86099
2.94648
3.0386
3.1374
3.24308
3.35624
3.47798
3.60851
3.74456
3.87926
2.72228
2.42344
2.05788
1.9158
1.88291
1.90267
1.94835
2.00695
2.07192
2.13998
2.20952
2.27983
2.3506
2.42177
2.49344
2.56589
2.63946
2.71397
2.78775
2.85742
1.73212
1.54841
1.28766
1.21853
1.22795
1.27028
1.32656
1.38813
1.45067
1.51192
1.5707
1.62641
1.67873
1.72753
1.77281
1.81466
1.85318
1.88818
1.91885
1.94359
0.814059
0.734201
0.613288
0.616545
0.658048
0.712221
0.769868
0.826944
0.881367
0.931951
0.97798
1.01901
1.05476
1.08508
1.10991
1.12927
1.14322
1.15173
1.15454
1.1511
0.192747
0.176541
0.165814
0.195391
0.236144
0.280236
0.324244
0.366325
0.405322
0.440437
0.471087
0.496839
0.517384
0.532531
0.542213
0.546478
0.545476
0.539399
0.528423
0.512668
0.0113849
0.0127024
0.0149454
0.0217323
0.0320514
0.0452264
0.0602333
0.0759573
0.0913739
0.105612
0.117964
0.127891
0.135013
0.139119
0.140164
0.138265
0.133676
0.126752
0.117903
0.107563
2.18159
2.77604
3.39352
3.89831
4.14263
4.19474
4.12058
4.0104
3.92686
3.86028
3.8338
3.86947
3.99403
4.25381
4.76439
4.51164
6.78684
9.25278
10.0907
10.0586
9.86065
9.57342
9.23929
8.91751
8.66445
8.52897
8.55364
8.7779
9.23354
9.915
6.0949
5.82379
6.21541
6.81086
7.37296
7.69785
7.85657
7.93379
7.99602
8.10555
8.31968
8.68638
9.23981
9.99338
10.9275
6.2535
6.54607
6.45331
6.33839
6.31758
6.43663
6.64756
6.91441
7.23991
7.65178
8.1847
8.86674
9.71262
10.7218
11.882
5.99832
6.63841
6.94136
7.04187
7.07479
7.12125
7.23893
7.46036
7.80848
8.30296
8.9579
9.77856
10.7616
11.8996
13.1925
5.79561
6.51795
7.04651
7.40294
7.65445
7.86851
8.10864
8.42828
8.86794
9.45485
10.2026
11.1131
12.1826
13.4115
14.8189
5.73475
6.50538
7.15992
7.69926
8.15553
8.57036
8.99385
9.47683
10.0615
10.777
11.6386
12.6516
13.821
15.1641
16.7202
5.86062
6.68196
7.43266
8.11117
8.73416
9.32573
9.92682
10.5813
11.327
12.1912
13.1902
14.334
15.6394
17.1433
18.9119
6.18681
7.05254
7.88165
8.67315
9.43021
10.1752
10.9418
11.7668
12.6819
13.7118
14.8754
16.182
17.6764
19.4303
21.4935
6.69717
7.599
8.49478
9.37784
10.253
11.1429
12.0751
13.0791
14.1747
15.3911
16.7869
18.3204
20.0443
21.5573
22.8665
7.36732
8.30539
9.25946
10.2313
11.2225
12.2592
13.3744
14.5867
15.9172
17.4122
18.9867
20.1635
21.1546
21.7426
22.0256
8.16198
9.1302
10.1738
11.2486
12.389
13.6183
15.0835
16.4459
17.6265
18.6877