/*--------------------------------*- C++ -*----------------------------------*\
| =========                 |                                                 |
| \\      /  F ield         | OpenFOAM: The Open Source CFD Toolbox           |
|  \\    /   O peration     | Version:  v1912                                 |
|   \\  /    A nd           | Website:  www.openfoam.com                      |
|    \\/     M anipulation  |                                                 |
\*---------------------------------------------------------------------------*/
FoamFile
{
    version     2.0;
    format      ascii;
    class       volScalarField;
    location    "16";
    object      nut;
}
// * * * * * * * * * * * * * * * * * * * * * * * * * * * * * * * * * * * * * //

dimensions      [0 2 -1 0 0 0 0];


internalField   nonuniform List<scalar> 
20320
(
0.0347216
0.00760013
0.00766972
0.00773744
0.00780288
0.00786561
0.00792516
0.00798095
0.00803225
0.00807829
0.00811823
0.00815145
0.00818258
0.00828351
0.0090222
0.0121937
0.0185057
0.0257768
0.031034
0.029101
0.0352247
0.0352602
0.035413
0.0356136
0.0358431
0.0360733
0.0362637
0.0363903
0.0364538
0.0364566
0.0363594
0.0358438
0.0334063
0.030923
0.0512895
0.102732
0.151509
0.168572
0.152491
0.0923098
0.035341
0.0355994
0.0360523
0.0367157
0.0376745
0.0390037
0.0407624
0.0429861
0.0456474
0.0485918
0.0510556
0.0496549
0.0410971
0.0542524
0.118478
0.204882
0.268671
0.286857
0.250373
0.126848
0.0355058
0.0360465
0.0367835
0.0377135
0.0389207
0.0404964
0.0425429
0.0451476
0.0483837
0.0519758
0.0538352
0.0477419
0.0463006
0.0971828
0.198998
0.30271
0.370203
0.382608
0.323512
0.150537
0.0357066
0.0366116
0.0377109
0.0389735
0.0404826
0.0423274
0.0446122
0.0474359
0.0508201
0.0540329
0.0530049
0.0444153
0.0655818
0.154699
0.280658
0.391944
0.458045
0.461295
0.380446
0.1683
0.0359349
0.0372792
0.0388118
0.0404757
0.0423529
0.0445227
0.0470822
0.0501353
0.0535046
0.0556132
0.0507729
0.047178
0.0979755
0.218064
0.358268
0.472228
0.53456
0.527563
0.42679
0.182413
0.0361807
0.038021
0.0400358
0.042163
0.0444517
0.0469986
0.0498815
0.0531288
0.0563073
0.056622
0.0487494
0.057998
0.139052
0.281798
0.430259
0.544437
0.602006
0.584781
0.465984
0.194161
0.0364332
0.0388015
0.0413387
0.0439573
0.0467091
0.0496721
0.0529053
0.0563135
0.0590435
0.057028
0.048711
0.0761546
0.184498
0.343178
0.496484
0.609729
0.662308
0.63537
0.500266
0.20435
0.0366801
0.0395877
0.04266
0.0457855
0.0490422
0.0524449
0.0560451
0.0595782
0.06153
0.057002
0.0518314
0.0999462
0.231125
0.40102
0.557326
0.669253
0.717074
0.681165
0.531222
0.213541
0.03691
0.0403457
0.043934
0.0475823
0.0513466
0.0552189
0.059196
0.0627709
0.0636292
0.0569143
0.0583791
0.127352
0.276855
0.454895
0.613341
0.724074
0.767678
0.723651
0.560096
0.222168
0.0371125
0.0410379
0.0451059
0.0492698
0.0535215
0.0578959
0.0622386
0.065724
0.0652639
0.0571982
0.067949
0.156427
0.320395
0.504724
0.665124
0.77518
0.81536
0.764146
0.587981
0.230616
0.0372785
0.0416293
0.0461295
0.0507621
0.0554851
0.0603674
0.0650393
0.0682885
0.0664072
0.0581744
0.0797453
0.18551
0.36094
0.550584
0.713273
0.82353
0.861335
0.803953
0.615972
0.239282
0.0374004
0.0420937
0.0469604
0.0519858
0.0571655
0.0625184
0.0674671
0.0703448
0.0670652
0.0599429
0.0927855
0.213283
0.397986
0.592638
0.758409
0.870133
0.906926
0.844538
0.645338
0.248641
0.0374732
0.0424136
0.0475583
0.0528905
0.0584917
0.0642431
0.0694047
0.0717952
0.0672583
0.0623728
0.106041
0.238721
0.431188
0.631073
0.801183
0.916119
0.95371
0.887735
0.677735
0.259339
0.0374945
0.0425791
0.0478948
0.0534459
0.0593983
0.0654577
0.0707532
0.0725602
0.0670031
0.0651574
0.118544
0.261034
0.460289
0.666083
0.842297
0.962837
1.00373
0.936085
0.715582
0.272362
0.0374653
0.0425874
0.0479587
0.0536383
0.0598374
0.0661061
0.0714363
0.0725809
0.0662974
0.067894
0.129457
0.279619
0.485069
0.697831
0.882506
1.01195
1.05979
0.9934
0.762788
0.289391
0.0373895
0.0424434
0.0477565
0.0534688
0.0597885
0.0661616
0.0714066
0.0718254
0.065116
0.0701653
0.138117
0.294006
0.505286
0.726368
0.922515
1.06542
1.12574
1.06561
0.826188
0.313722
0.0372732
0.0421601
0.0473104
0.052955
0.0592626
0.0656282
0.070654
0.0702973
0.0634224
0.0716076
0.144046
0.303824
0.520599
0.751464
0.962664
1.12508
1.20629
1.16149
0.917876
0.352658
0.0371245
0.0417577
0.0466552
0.0521324
0.058301
0.0645427
0.0692131
0.0680431
0.0611913
0.0719664
0.146976
0.308797
0.530521
0.772377
1.00231
1.19143
1.30502
1.29069
1.05569
0.423083
0.0369527
0.0412624
0.0458346
0.0510527
0.0569705
0.0629747
0.0671659
0.0651583
0.0584361
0.0711312
0.146866
0.308777
0.534408
0.787627
1.0389
1.2609
1.4183
1.45212
1.24633
0.553083
0.108508
0.0680055
0.075624
0.08309
0.0877572
0.0873801
0.0870196
0.0882682
0.0938356
0.108169
0.13429
0.167265
0.199622
0.227944
0.253644
0.280377
0.302215
0.285966
0.259227
0.237978
0.21954
0.202883
0.18767
0.173963
0.161844
0.151288
0.142259
0.134572
0.127924
0.122136
0.117042
0.112528
0.108497
0.104871
0.101593
0.0986195
0.0959141
0.0934595
0.0912187
0.0891677
0.0872953
0.0855731
0.0839845
0.0825255
0.0811768
0.079935
0.0787986
0.0777653
0.0768284
0.0759723
0.07517
0.0744162
0.0737098
0.073067
0.0725041
0.0720092
0.0715746
0.0711868
0.0708246
0.0704237
0.133636
1.20252
1.41755
1.60951
1.71759
1.74015
1.71352
1.65636
1.59234
1.57971
1.75189
2.18316
2.78576
3.40361
3.95012
4.44834
4.68535
4.48035
4.03764
3.62405
3.26195
2.93894
2.65347
2.40979
2.20833
2.04486
1.91179
1.80282
1.71362
1.63983
1.57787
1.52494
1.47897
1.43848
1.40256
1.37064
1.34235
1.31728
1.29494
1.27492
1.2569
1.2406
1.22581
1.21238
1.20024
1.18945
1.18014
1.17239
1.16609
1.16061
1.15489
1.14859
1.14269
1.13829
1.1356
1.13427
1.13414
1.13489
1.13529
1.134
0.149539
1.89856
2.51828
2.85259
3.05844
3.10954
3.05657
2.94101
2.82112
2.79123
3.01425
3.5995
4.47042
5.45962
6.31522
6.9036
6.955
6.62274
6.08396
5.55928
5.0882
4.65945
4.27363
3.9388
3.6568
3.423
3.22957
3.06899
2.93601
2.82531
2.73227
2.6531
2.58484
2.52532
2.47312
2.42733
2.3873
2.35242
2.32196
2.29523
2.27168
2.25086
2.2324
2.21607
2.20178
2.18958
2.17966
2.17204
2.1665
2.16226
2.15795
2.15304
2.14885
2.14692
2.14758
2.15033
2.15486
2.16077
2.16646
2.17006
0.162981
2.30823
3.28179
3.75196
4.01538
4.08908
4.02625
3.88188
3.75118
3.74885
4.0113
4.63
5.55159
6.64067
7.63226
8.19007
7.91644
7.35286
6.80284
6.31277
5.88564
5.49718
5.14321
4.8313
4.56257
4.33268
4.13656
3.96862
3.8264
3.7061
3.60391
3.51636
3.44059
3.37445
3.31645
3.26568
3.22146
3.18315
3.14993
3.12103
3.09577
3.07364
3.05423
3.03728
3.02268
3.01054
3.00102
2.99404
2.98935
2.98627
2.98344
2.98024
2.97813
2.97884
2.98258
2.98865
2.99674
3.00662
3.01669
3.02525
0.175002
2.62083
3.83788
4.4213
4.71923
4.80265
4.73367
4.57665
4.44679
4.48024
4.78737
5.41282
6.30895
7.36201
8.25676
8.77508
8.28733
7.45485
6.83505
6.39116
6.06641
5.79587
5.54934
5.32474
5.12187
4.93863
4.77483
4.62965
4.50295
4.39373
4.29958
4.218
4.14672
4.08397
4.02857
3.97978
3.93708
3.89997
3.86768
3.83944
3.81458
3.79262
3.77319
3.75608
3.74126
3.72887
3.71909
3.71178
3.70667
3.70333
3.70061
3.69786
3.69662
3.69865
3.70391
3.71149
3.7212
3.73323
3.74608
3.7584
0.18625
2.89249
4.28513
4.93917
5.25393
5.33443
5.25598
5.09117
4.959
5.01112
5.34679
5.96928
6.81245
7.80558
8.68127
9.05515
8.29213
7.31019
6.58361
6.14632
5.929
5.81261
5.70744
5.59312
5.47516
5.35565
5.241
5.13558
5.04035
4.95631
4.88262
4.81773
4.76006
4.70838
4.66193
4.62029
4.58321
4.55042
4.52134
4.49527
4.47167
4.45018
4.43056
4.41277
4.3969
4.38318
4.37187
4.36278
4.35567
4.35038
4.34612
4.34239
4.34072
4.3427
4.34793
4.35535
4.36503
4.37787
4.39233
4.40736
0.1957
3.10605
4.64601
5.34598
5.67043
5.739
5.6476
5.47759
5.34127
5.39667
5.7397
6.35226
7.15306
8.10812
9.03728
9.40728
8.21766
7.08372
6.25879
5.81325
5.70444
5.75931
5.78821
5.76766
5.72783
5.67019
5.60915
5.55048
5.49606
5.44608
5.40035
5.35862
5.32001
5.28379
5.24969
5.21768
5.18787
5.16031
5.13467
5.1105
5.08745
5.06542
5.04437
5.02449
5.0061
4.98954
4.97519
4.96283
4.95244
4.94374
4.93642
4.93056
4.92763
4.92863
4.9328
4.939
4.94762
4.96082
4.97649
4.99394
0.197762
3.2072
4.86209
5.66172
5.99928
6.05272
5.94892
5.78015
5.64803
5.70626
6.05192
6.66057
7.44902
8.39949
9.35878
9.73371
8.12879
6.83696
5.93985
5.51699
5.54683
5.77985
5.88882
5.92545
5.9459
5.94923
5.94459
5.93541
5.92328
5.90895
5.89268
5.87455
5.85491
5.83369
5.811
5.78726
5.76301
5.73869
5.71434
5.68982
5.66512
5.64042
5.61593
5.59216
5.56965
5.54895
5.53065
5.51429
5.50008
5.48775
5.47664
5.46752
5.46265
5.46236
5.46516
5.46982
5.47653
5.48769
5.50287
5.52225
0.200459
3.27227
5.04487
5.91435
6.26197
6.30213
6.19189
6.03586
5.92803
6.00556
6.37107
6.9997
7.81192
8.78642
9.63592
9.70809
7.95524
6.56573
5.64848
5.31514
5.53524
5.88819
6.03313
6.14287
6.22684
6.28658
6.32774
6.35595
6.37444
6.38503
6.38874
6.38627
6.37837
6.36542
6.34797
6.3268
6.30286
6.27688
6.24931
6.22034
6.19031
6.15967
6.12897
6.09895
6.07039
6.04411
6.02074
5.99968
5.98138
5.96527
5.94981
5.93668
5.92903
5.92638
5.92697
5.92934
5.93405
5.94688
5.96595
5.98841
0.206179
3.38512
5.23053
6.13068
6.48041
6.51037
6.40363
6.27523
6.21485
6.34025
6.75542
7.43991
8.31372
9.36808
10.1439
9.58515
7.6944
6.26577
5.40052
5.24732
5.69817
6.10954
6.36625
6.54025
6.65967
6.74219
6.8004
6.84183
6.87069
6.88927
6.8988
6.9
6.8937
6.88048
6.86101
6.83628
6.80734
6.77514
6.74034
6.70345
6.66506
6.62588
6.58674
6.54859
6.51236
6.47895
6.44881
6.42161
6.39793
6.37633
6.35629
6.34097
6.33199
6.32754
6.32633
6.32766
6.33372
6.35055
6.37436
6.40117
0.214022
3.52586
5.42474
6.33578
6.68023
6.70146
6.6085
6.52238
6.52305
6.72682
7.22053
7.9995
8.98123
10.1653
10.9906
9.47155
7.38479
5.95614
5.2286
5.35655
6.04022
6.56563
6.89425
7.09951
7.22529
7.30148
7.34938
7.38056
7.40031
7.41081
7.41295
7.40698
7.39314
7.37215
7.34453
7.31115
7.27303
7.23113
7.18625
7.13905
7.09033
7.04102
6.99215
6.94481
6.90008
6.85883
6.82143
6.78784
6.75828
6.73159
6.70827
6.69139
6.68139
6.67613
6.67459
6.67704
6.68656
6.70727
6.73517
6.76623
0.223006
3.68921
5.63955
6.55195
6.88747
6.90152
6.8309
6.79508
6.85939
7.15267
7.74603
8.65265
9.82628
11.1723
11.6033
9.0219
6.99052
5.66459
5.18206
5.67739
6.57184
7.18599
7.542
7.74717
7.85742
7.90993
7.93117
7.93678
7.93387
7.92488
7.91021
7.88949
7.86194
7.82807
7.78816
7.74282
7.69286
7.63917
7.58255
7.52382
7.4639
7.40387
7.34492
7.28827
7.23507
7.18615
7.14194
7.10249
7.0678
7.03732
7.01206
6.99432
6.98392
6.97897
6.97867
6.98391
6.99756
7.02174
7.05298
7.08749
0.236408
3.87547
5.88571
6.79498
7.11991
7.13289
7.10005
7.10519
7.22063
7.6014
8.30014
9.34666
10.6961
11.6138
11.2302
8.46713
6.57415
5.44633
5.31861
6.21638
7.26336
7.88878
8.23456
8.41451
8.49378
8.51286
8.49978
8.47236
8.43959
8.40462
8.36765
8.32776
8.28354
8.23409
8.17991
8.12113
8.0583
7.99213
7.92342
7.85308
7.78213
7.71179
7.64336
7.57817
7.51736
7.4618
7.41192
7.36783
7.32949
7.29686
7.27099
7.25336
7.24352
7.23997
7.24215
7.25106
7.2688
7.29608
7.33005
7.36707
0.257724
4.08039
6.17332
7.07699
7.38177
7.39265
7.39023
7.42357
7.59279
8.04883
8.87393
10.0263
11.0298
11.9052
10.3359
7.93896
6.21376
5.36311
5.68212
6.937
8.01218
8.61347
8.92015
9.05507
9.091
9.07019
9.01949
8.95653
8.8912
8.82747
8.76572
8.70467
8.64251
8.57717
8.50838
8.4362
8.36081
8.28274
8.20276
8.12179
8.04099
7.96168
7.88524
7.81304
7.74624
7.6857
7.63186
7.58487
7.54474
7.51167
7.48651
7.47009
7.46186
7.46064
7.46606
7.47888
7.50036
7.53034
7.56649
7.60513
0.267086
4.34467
6.49848
7.37937
7.63969
7.64407
7.64053
7.73329
7.96647
8.47301
9.41164
10.4102
11.2932
11.6868
9.49963
7.36839
5.90983
5.46044
6.28119
7.76089
8.78021
9.32019
9.5663
9.64184
9.62433
9.55776
9.46723
9.36825
9.27013
9.17715
9.09001
9.00735
8.927
8.84656
8.76406
8.67954
8.59292
8.50449
8.41495
8.32526
8.23663
8.15044
8.06816
7.99115
7.92055
7.85719
7.8015
7.75363
7.71364
7.68177
7.6586
7.64443
7.6387
7.64048
7.64944
7.666
7.69068
7.72289
7.76065
7.80011
0.277963
4.54322
6.75289
7.64372
7.89695
7.89202
7.89597
8.05451
8.3422
8.87934
9.78015
10.6137
11.3972
11.0546
8.68218
6.81609
5.71636
5.78703
7.08347
8.61485
9.52531
9.98078
10.1526
10.1603
10.0823
9.96445
9.8312
9.69559
9.56508
9.44335
9.33115
9.22718
9.12906
9.03412
8.93976
8.84457
8.74864
8.65205
8.55534
8.45945
8.36563
8.27528
8.18986
8.11068
8.03885
7.9751
7.91983
7.87318
7.83518
7.80599
7.78589
7.77484
7.77225
7.77735
7.78979
7.80964
7.83691
7.87079
7.90958
7.94909
0.28934
4.68867
6.99547
7.91444
8.17078
8.14127
8.12777
8.34853
8.6835
9.21278
9.933
10.7189
11.2783
9.96576
7.87637
6.34201
5.72048
6.37645
8.01563
9.44524
10.2205
10.5762
10.6668
10.6031
10.461
10.2878
10.1083
9.93426
9.77105
9.62092
9.48412
9.35928
9.24396
9.13524
9.03028
8.92665
8.82369
8.72145
8.62034
8.52121
8.42523
8.33377
8.2482
8.16974
8.09938
8.03774
7.98515
7.94166
7.90726
7.88197
7.86578
7.85843
7.85932
7.86778
7.88339
7.90597
7.93519
7.97019
8.0094
8.04831
0.297403
4.80339
7.21557
8.16774
8.41984
8.39194
8.37029
8.55705
8.89496
9.40058
10.0856
10.7766
10.7988
8.97785
7.1826
6.06754
6.01214
7.2118
8.98875
10.2158
10.8451
11.0939
11.1018
10.9671
10.7609
10.5299
10.3008
10.0855
9.888
9.70887
9.54737
9.40177
9.26955
9.14765
9.03299
8.92282
8.81522
8.71001
8.60743
8.50815
8.4132
8.32379
8.24111
8.16624
8.09997
8.04279
7.99488
7.95624
7.92672
7.90621
7.89448
7.89115
7.89561
7.90726
7.92563
7.95037
7.98099
8.01661
8.0557
8.09343
0.301003
4.85863
7.37145
8.38092
8.6805
8.69983
8.7039
8.85944
9.17543
9.64648
10.2603
10.7186
10.1357
8.18704
6.73826
6.10261
6.62408
8.2084
9.90445
10.9046
11.3823
11.526
11.4541
11.252
10.9838
10.6951
10.414
10.1541
9.91942
9.70938
9.52206
9.35508
9.20571
9.07082
8.9471
8.83149
8.72158
8.61599
8.51482
8.41845
8.32762
8.24327
8.16637
8.09771
8.03788
7.98716
7.94561
7.91309
7.88937
7.8742
7.86723
7.86802
7.87599
7.89058
7.91133
7.93779
7.96937
8.00522
8.04374
8.07987
0.298944
4.8414
7.44967
8.56086
8.96254
9.08324
9.16004
9.33652
9.64432
10.0589
10.5004
10.5998
9.40728
7.68538
6.6171
6.47904
7.49253
9.23852
10.7046
11.4839
11.8219
11.8684
11.7232
11.4591
11.1329
10.7881
10.4539
10.1463
9.87082
9.62674
9.41128
9.2213
9.05377
8.90545
8.77286
8.65261
8.54179
8.43828
8.34116
8.25048
8.16658
8.09001
8.02137
7.96115
7.90965
7.86697
7.83299
7.80747
7.79012
7.78059
7.7785
7.7834
7.79478
7.81215
7.83503
7.86293
7.89524
7.93107
7.96873
8.00298
0.290629
4.75733
7.45151
8.69416
9.23432
9.4935
9.68213
9.92072
10.2399
10.5954
10.8014
10.4685
8.92147
7.49653
6.80369
7.12654
8.47519
10.1735
11.3575
11.9456
12.1598
12.121
11.9108
11.5911
11.2118
10.8135
10.4263
10.0686
9.74846
9.46635
9.21926
9.00359
8.81595
8.65301
8.51114
8.38655
8.27574
8.17588
8.08509
8.00248
7.92786
7.86127
7.80287
7.75279
7.71102
7.67745
7.65183
7.63384
7.62316
7.61944
7.62231
7.63136
7.64617
7.66629
7.69126
7.72057
7.75356
7.78932
7.82598
7.85822
0.282893
4.61379
7.37418
8.75714
9.4441
9.84596
10.158
10.461
10.7936
11.0623
11.037
10.281
8.65844
7.51023
7.18356
7.9032
9.41372
10.9415
11.8565
12.287
12.398
12.2869
12.0207
11.6519
11.2244
10.7758
10.3364
9.92696
9.55857
9.23394
8.9509
8.70578
8.49509
8.31546
8.16314
8.03391
7.92352
7.82822
7.74514
7.67236
7.60879
7.55381
7.50704
7.46823
7.43708
7.41325
7.39644
7.38628
7.38247
7.38471
7.39269
7.40608
7.42454
7.44764
7.47492
7.50582
7.53967
7.57543
7.61113
7.6414
0.2739
4.41996
7.21464
8.72756
9.54664
10.0675
10.4743
10.8214
11.1294
11.2591
11.0016
9.86949
8.41249
7.55872
7.61844
8.66481
10.2003
11.5024
12.2105
12.5147
12.5425
12.3718
12.0581
11.6461
11.1749
10.6792
10.1888
9.7266
9.30675
8.93501
8.61101
8.33179
8.09413
7.89482
7.73006
7.59515
7.48492
7.39448
7.31977
7.2577
7.20617
7.16373
7.12942
7.10249
7.0824
7.06867
7.06091
7.0588
7.06211
7.07062
7.0841
7.10229
7.12487
7.15142
7.18146
7.21435
7.24933
7.28532
7.32021
7.34871
0.265226
4.19874
6.98156
8.59615
9.52099
10.1107
10.5529
10.9079
11.1352
11.0944
10.5713
9.22876
8.03597
7.54351
8.02648
9.32173
10.7986
11.8811
12.4328
12.6409
12.6029
12.3834
12.0291
11.5789
11.0678
10.5277
9.98773
9.47209
8.99801
8.57465
8.20432
7.88559
7.6161
7.39315
7.21307
7.07064
6.95962
6.87369
6.80735
6.7562
6.71696
6.68734
6.66569
6.65084
6.64197
6.63849
6.64002
6.6463
6.65717
6.67249
6.69211
6.71581
6.74323
6.77393
6.80732
6.8427
6.8792
6.91567
6.94996
6.97696
0.256835
3.97168
6.69766
8.3705
9.36583
9.96951
10.379
10.6847
10.8068
10.5834
9.75424
8.41787
7.5372
7.48768
8.39745
9.84967
11.232
12.1189
12.5525
12.6826
12.5908
12.3301
11.9404
11.4557
10.9074
10.3251
9.73685
9.16745
8.63673
8.15742
7.73516
7.37092
7.06386
6.81238
6.61318
6.46059
6.3471
6.26471
6.20616
6.16555
6.13836
6.12134
6.11219
6.10932
6.11169
6.11863
6.12977
6.14492
6.16399
6.18692
6.21356
6.24367
6.27683
6.31247
6.34989
6.38826
6.42665
6.46387
6.49779
6.52354
0.244914
3.73729
6.37242
8.05983
9.08352
9.66785
9.9936
10.1849
10.1603
9.74822
8.6458
7.51679
7.02301
7.47577
8.75275
10.2659
11.5313
12.2554
12.5917
12.6568
12.5182
12.2207
11.7985
11.2817
10.6982
10.0753
9.43964
8.81629
8.22692
7.68763
7.2078
6.79153
6.44036
6.15444
5.9314
5.76527
5.64703
5.56668
5.51492
5.48408
5.46834
5.46345
5.46645
5.47539
5.48901
5.50661
5.52782
5.55252
5.58065
5.61214
5.64682
5.68436
5.72418
5.76557
5.80765
5.84946
5.89002
5.92814
5.96186
5.98665
0.2325
3.46087
5.99156
7.66261
8.67911
9.21381
9.43494
9.47011
9.24988
8.62317
7.46253
6.63592
6.6195
7.57935
9.10949
10.608
11.7216
12.3188
12.5717
12.5779
12.3957
12.0632
11.6098
11.0617
10.4441
9.78161
9.09938
8.42204
7.77244
7.1695
6.62643
6.15115
5.7485
5.42133
5.16889
4.98515
4.85948
4.77941
4.73323
4.71129
4.70628
4.71297
4.72778
4.7484
4.7734
4.80203
4.83393
4.86897
4.90709
4.94817
4.99192
5.03783
5.08516
5.13297
5.18018
5.22571
5.2685
5.30749
5.341
5.36501
0.218259
3.12462
5.53842
7.17435
8.15655
8.62099
8.73135
8.58749
8.16747
7.32193
6.31179
5.89131
6.42585
7.82222
9.4731
10.9037
11.8489
12.3322
12.5068
12.4568
12.2317
11.8641
11.3794
10.8002
10.1487
9.44726
8.71908
7.98792
7.27695
6.60722
5.9955
5.45394
4.99165
4.61537
4.32709
4.12124
3.98535
3.9039
3.86224
3.84844
3.85358
3.87143
3.8978
3.93007
3.96668
4.00678
4.05
4.0962
4.1452
4.19678
4.25049
4.30554
4.361
4.41566
4.4682
4.51739
4.56216
4.60162
4.63459
4.6578
0.20041
2.71283
5.00177
6.59674
7.52705
7.90027
7.88742
7.58913
7.00137
6.03211
5.31743
5.39837
6.4915
8.18643
9.84104
11.1608
11.9303
12.3058
12.406
12.3006
12.0321
11.6286
11.1117
10.5007
9.81514
9.07506
8.3016
7.51705
6.74425
6.00535
5.32006
4.7049
4.17409
3.73998
3.40879
3.17626
3.02773
2.94383
2.90617
2.90012
2.91507
2.94379
2.98156
3.02549
3.07387
3.12578
3.18083
3.23878
3.29934
3.36208
3.42628
3.49096
3.55479
3.61631
3.67395
3.72627
3.77221
3.81119
3.84277
3.86475
0.175619
2.1982
4.37107
5.93977
6.80929
7.07503
6.93413
6.52786
5.80232
4.91444
4.59002
5.24166
6.80606
8.63307
10.2122
11.3551
11.9733
12.2467
12.2738
12.1133
11.8007
11.36
10.8096
10.166
9.446
8.66751
7.84946
7.01245
6.17815
5.36873
4.60576
3.91026
3.30213
2.8009
2.41968
2.15689
1.99493
1.90891
1.87567
1.87746
1.90192
1.94103
1.98967
2.04484
2.10468
2.16829
2.23522
2.30508
2.37737
2.45139
2.52614
2.60027
2.67214
2.7399
2.80169
2.85584
2.9013
2.93789
2.96627
2.98587
0.138283
1.5614
3.64529
5.2281
6.02866
6.17621
5.92831
5.45616
4.6377
4.03146
4.20725
5.43805
7.30852
9.1196
10.5736
11.505
11.9811
12.1561
12.1121
11.8965
11.5392
11.0602
10.4751
9.79797
9.04327
8.22664
7.365
6.47689
5.58227
4.70265
3.86127
3.08094
2.38737
1.80998
1.37388
1.08239
0.913406
0.831297
0.805372
0.814925
0.846925
0.89343
0.949767
1.0132
1.08208
1.15544
1.23262
1.31292
1.39557
1.47953
1.56349
1.64563
1.72384
1.79594
1.85964
1.91298
1.95479
1.98541
2.00693
2.02104
0.153349
1.28014
3.01541
4.54423
5.23331
5.265
4.95508
4.39903
3.66373
3.45332
4.21864
5.93711
7.91667
9.60871
10.8895
11.6083
11.9521
12.0342
11.9207
11.6506
11.2481
10.7301
10.1094
9.39799
8.60835
7.75405
6.85002
5.91262
4.96093
4.01586
3.09827
2.23233
1.4506
0.801072
0.342874
0.129984
0.069733
0.0538546
0.0506252
0.0528606
0.0595243
0.0713389
0.0897128
0.11638
0.153136
0.201364
0.261496
0.332364
0.411345
0.494953
0.579612
0.662123
0.739639
0.809407
0.868661
0.914879
0.946535
0.964138
0.971354
0.969766
0.182325
1.50441
2.82749
4.03755
4.50794
4.43112
4.09493
3.41904
2.95703
3.25563
4.62841
6.64198
8.55474
10.0727
11.1182
11.6638
11.8857
11.8795
11.6986
11.3746
10.9271
10.3696
9.71288
8.96692
8.14244
7.25122
6.30631
5.32342
4.32103
3.31674
2.33053
1.38973
0.55122
0.0630577
0.0466517
0.0525144
0.0535068
0.0541414
0.0546901
0.0551662
0.055563
0.0558672
0.0560396
0.0559902
0.0555562
0.054438
0.0520941
0.047889
0.0420074
0.0364692
0.0340537
0.0362214
0.0427721
0.0522592
0.0621931
0.0695627
0.0719471
0.0688246
0.0621812
0.0532293
0.190848
1.93381
2.90646
3.68473
3.91168
3.76022
3.27794
2.65681
2.58038
3.50507
5.37407
7.43881
9.16887
10.4964
11.2807
11.6676
11.7783
11.6892
11.4437
11.0671
10.575
9.97832
9.28552
8.50509
7.64618
6.7191
5.73607
4.71367
3.6672
2.61362
1.57561
0.604172
0.040474
0.0484779
0.0493043
0.0498144
0.0503453
0.0508763
0.0513823
0.0518438
0.0522569
0.0526288
0.0529606
0.0532363
0.0534383
0.0535689
0.0536422
0.0536709
0.0536674
0.0536343
0.0535584
0.0534226
0.053211
0.0529102
0.0525148
0.0520301
0.0514566
0.0507034
0.0492237
0.0447528
0.200279
2.09683
2.83168
3.28769
3.37187
3.1471
2.47643
2.13885
2.6396
4.22421
6.32237
8.22436
9.7248
10.8017
11.3726
11.6155
11.6258
11.4603
11.1537
10.7264
10.1909
9.5555
8.82704
8.01254
7.11999
6.15858
5.14266
4.08615
3.00399
1.91567
0.860157
0.0759085
0.0453454
0.0463501
0.0467693
0.0472295
0.0477096
0.0481919
0.0486541
0.0490771
0.0494551
0.0497963
0.0501069
0.0503739
0.0505771
0.0507113
0.0507856
0.0508131
0.0508087
0.0507806
0.0507222
0.0506235
0.0504769
0.0502742
0.0500065
0.0496661
0.0492456
0.0486807
0.0475152
0.0436235
0.199728
1.97898
2.50573
2.75025
2.7502
2.27922
1.80858
2.01217
3.28059
5.30285
7.3041
8.92775
10.199
11.0017
11.3941
11.5097
11.4271
11.1905
10.8263
10.3508
9.77336
9.10034
8.33701
7.4893
6.56411
5.57246
4.5279
3.44365
2.33635
1.23537
0.256142
0.038791
0.0441513
0.0444518
0.0448141
0.0452148
0.0456355
0.0460613
0.046474
0.0468547
0.0471944
0.0475002
0.0477823
0.0480335
0.0482336
0.0483701
0.0484461
0.0484728
0.0484665
0.0484387
0.0483873
0.0483039
0.0481824
0.0480178
0.0478066
0.0475465
0.047236
0.0468297
0.0459428
0.0426251
0.198711
1.69832
2.03272
2.09522
1.91652
1.47425
1.55291
2.59069
4.47606
6.48578
8.18089
9.52084
10.5458
11.1059
11.3421
11.3468
11.1803
10.8778
10.4599
9.9387
9.32127
8.61205
7.81505
6.93528
5.98001
4.96215
3.89372
2.78929
1.67126
0.601116
0.0277449
0.0425814
0.0427914
0.0430294
0.0433273
0.0436628
0.0440191
0.0443834
0.0447415
0.0450758
0.0453745
0.045642
0.0458904
0.0461187
0.0463094
0.0464453
0.0465218
0.0465476
0.0465386
0.0465098
0.0464633
0.0463932
0.0462941
0.046162
0.0459954
0.045795
0.0455618
0.0452657
0.0445904
0.0417799
0.2073
1.30838
1.45348
1.40874
1.07825
1.20573
2.17288
3.92783
5.85015
7.5292
8.89272
10.012
10.7526
11.113
11.2149
11.1232
10.8823
10.5199
10.0522
9.48829
8.83317
8.08964
7.26062
6.35031
5.36911
4.32866
3.24196
2.12727
1.02239
0.124901
0.0403012
0.0417037
0.0418013
0.0419761
0.0422079
0.0424764
0.0427665
0.0430678
0.0433693
0.0436548
0.0439109
0.0441391
0.0443512
0.0445509
0.0447256
0.0448557
0.0449303
0.0449536
0.0449408
0.0449086
0.0448634
0.0448027
0.0447211
0.0446145
0.0444819
0.0443248
0.0441455
0.0439258
0.0434113
0.0410452
0.263065
1.00048
0.799267
0.68017
0.972532
2.00883
3.6683
5.44366
7.01813
8.33516
9.45007
10.3478
10.8344
11.0293
11.0146
10.8379
10.5308
10.1144
9.60112
8.9978
8.3077
7.53234
6.67342
5.73631
4.7326
3.67374
2.5755
1.46546
0.430237
0.0271217
0.041058
0.0410285
0.0410686
0.0411821
0.0413515
0.0415564
0.0417832
0.0420244
0.0422719
0.0425108
0.0427264
0.0429174
0.0430941
0.0432633
0.0434174
0.043537
0.0436066
0.0436261
0.0436088
0.0435719
0.0435252
0.0434692
0.0433997
0.0433123
0.0432051
0.0430793
0.0429375
0.0427707
0.0423789
0.0403986
0.18991
0.335569
0.446172
0.994473
2.14071
3.66835
5.24294
6.6618
7.8774
8.93374
9.88245
10.5065
10.8038
10.8615
10.7452
10.4921
10.1251
9.65963
9.10468
8.46512
7.74311
6.93914
6.0538
5.0947
4.07193
2.99972
1.89905
0.821763
0.0613022
0.0403826
0.0406562
0.0405622
0.0405455
0.0405986
0.0407076
0.0408518
0.041018
0.041201
0.0413963
0.0415909
0.0417679
0.0419229
0.0420651
0.0422038
0.042335
0.0424407
0.0425026
0.0425169
0.0424949
0.042453
0.0424029
0.0423477
0.042285
0.0422107
0.0421219
0.0420186
0.0419032
0.0417735
0.0414762
0.0398272
0.0367674
0.0407035
0.0448978
0.04978
0.0553555
0.061021
0.0646364
0.0617865
0.0552274
0.0691485
0.143923
0.303837
0.53162
0.795081
1.0675
1.32352
1.52761
1.61521
1.4531
0.837963
0.0365721
0.0401048
0.0438835
0.0483661
0.0535236
0.0587616
0.0617291
0.0580425
0.0516312
0.0661531
0.138509
0.294245
0.521699
0.792621
1.08245
1.36652
1.60749
1.73711
1.62805
1.16203
0.0363732
0.0394776
0.0428132
0.046845
0.051523
0.0562616
0.0585373
0.0540436
0.0477488
0.0623583
0.131134
0.28058
0.504744
0.779158
1.08035
1.38309
1.64878
1.81283
1.7751
1.44809
0.0361784
0.0388465
0.0417287
0.0452763
0.0494315
0.0536205
0.0551903
0.0499606
0.0437858
0.0581896
0.122841
0.264635
0.482964
0.756912
1.06337
1.37655
1.65951
1.85776
1.90072
1.73296
0.0359945
0.0382349
0.0406718
0.0437188
0.0473271
0.0509239
0.0517566
0.0458776
0.0399844
0.0544435
0.115788
0.250729
0.462869
0.734258
1.04189
1.36028
1.65652
1.88791
2.00698
1.98108
0.0358273
0.0376631
0.0396774
0.0422211
0.0452703
0.048164
0.0480482
0.0415336
0.0367744
0.0534211
0.116107
0.250393
0.460733
0.73064
1.03785
1.3587
1.6657
1.92693
2.11096
2.1984
0.0356806
0.0371478
0.0387675
0.0408094
0.0431568
0.0446378
0.0420356
0.0349065
0.0362448
0.0651319
0.144715
0.293336
0.510192
0.780616
1.08617
1.40737
1.72281
2.0095
2.24668
2.42253
0.0355584
0.0366992
0.037929
0.0392171
0.039085
0.0336051
0.0255763
0.0300596
0.0596191
0.12776
0.245503
0.417842
0.642889
0.912358
1.21405
1.53361
1.85513
2.16235
2.44137
2.6846
0.0354631
0.0362958
0.0366727
0.0330132
0.0201013
0.018245
0.0420368
0.0986864
0.186989
0.303201
0.449127
0.631044
0.853944
1.11669
1.41186
1.72841
2.05393
2.37625
2.68551
2.97613
0.0352114
0.0349673
0.0234757
0.0114855
0.034018
0.0999889
0.19805
0.312254
0.437299
0.575042
0.731157
0.913231
1.12809
1.37849
1.66148
1.96953
2.29283
2.62148
2.94744
3.26562
0.0124876
0.00821341
0.0275091
0.110454
0.229173
0.35329
0.477354
0.604134
0.737847
0.883076
1.04485
1.2286
1.43934
1.67986
1.94942
2.24383
2.55667
2.88061
3.20874
3.53533
0.0746899
0.112012
0.273302
0.417948
0.544216
0.662686
0.78209
0.9081
1.04455
1.19474
1.36188
1.54912
1.75936
1.99404
2.25236
2.53179
2.82926
3.14136
3.46132
3.7802
0.705611
0.526205
0.653579
0.758689
0.859679
0.964885
1.07923
1.20505
1.3438
1.49747
1.66825
1.85755
2.06678
2.29594
2.543
2.80524
3.08291
3.3809
3.69049
3.99396
1.18615
0.975655
1.00068
1.06999
1.15703
1.25653
1.36808
1.49225
1.62973
1.78201
1.95084
2.13715
2.34139
2.56252
2.79773
3.04222
3.29444
3.57239
3.86464
4.1538
1.30543
1.25862
1.29521
1.35158
1.42658
1.51648
1.61937
1.73488
1.8636
2.00653
2.16434
2.33755
2.52597
2.72806
2.9408
3.1603
3.38649
3.6282
3.87425
4.11466
1.35953
1.39728
1.45381
1.51694
1.59106
1.67663
1.77323
1.88078
1.9997
2.13047
2.2733
2.4281
2.59424
2.7701
2.95327
3.14174
3.33644
3.53863
3.73917
3.93083
1.28794
1.39462
1.46824
1.54701
1.63005
1.71888
1.81446
1.91742
2.02828
2.14737
2.27471
2.41003
2.55261
2.70118
2.85422
3.01068
3.17051
3.33238
3.49062
3.63996
1.12016
1.27158
1.35831
1.45446
1.55153
1.64876
1.74739
1.84866
1.95343
2.06218
2.17505
2.29184
2.41202
2.5348
2.65925
2.7847
2.91057
3.03522
3.15506
3.26658
0.892938
1.06723
1.15981
1.26829
1.37763
1.48326
1.5855
1.68569
1.78499
1.88414
1.98346
2.08299
2.18247
2.28148
2.37953
2.47615
2.57075
2.66204
2.74777
2.82563
0.636871
0.815014
0.9062
1.01903
1.13397
1.24328
1.34596
1.44305
1.53573
1.62483
1.71086
1.79401
1.87427
1.95149
2.02546
2.09591
2.16243
2.22421
2.27991
2.32804
0.381787
0.542555
0.625208
0.733099
0.844109
0.949172
1.04642
1.13631
1.21968
1.29724
1.36947
1.4366
1.49874
1.55589
1.60801
1.65502
1.69673
1.73273
1.7623
1.7846
0.165528
0.279947
0.345638
0.43645
0.531344
0.622132
0.706332
0.783497
0.853784
0.917454
0.974709
1.02568
1.07042
1.10899
1.14143
1.16779
1.18806
1.20216
1.20983
1.21071
0.0358342
0.0798424
0.117028
0.171967
0.23406
0.297296
0.358231
0.415037
0.466753
0.512846
0.553001
0.587019
0.614792
0.636288
0.65156
0.660732
0.663973
0.661444
0.653272
0.639537
0.00301468
0.00928526
0.0166879
0.0276708
0.0435702
0.0638116
0.0868234
0.110814
0.134189
0.155674
0.174312
0.18943
0.200601
0.207621
0.210485
0.209363
0.204563
0.196487
0.185591
0.172361
0.0828959
0.0935217
0.103399
0.110827
0.114257
0.114983
0.113969
0.112435
0.111257
0.110308
0.109925
0.11043
0.112186
0.11577
0.122514
0.462468
0.400956
0.565563
0.699504
0.789953
0.86463
0.930693
0.990345
1.04792
1.11042
1.18662
1.28672
1.4221
1.60449
1.84439
0.986126
0.655471
0.602653
0.665939
0.767835
0.889903
1.02497
1.171
1.33113
1.5143
1.73328
2.00148
2.32918
2.72064
3.17449
1.43344
1.17648
1.04249
1.02109
1.07612
1.1864
1.34382
1.54354
1.78774
2.08268
2.43405
2.84243
3.30149
3.80007
4.32703
1.83655
1.68632
1.60309
1.59754
1.66105
1.7829
1.96556
2.21128
2.52069
2.89096
3.31361
3.775
4.25989
4.75561
5.25489
2.19956
2.17056
2.16977
2.22332
2.33814
2.50931
2.73958
3.0305
3.37786
3.77123
4.19569
4.63585
5.08002
5.52225
5.96225
2.54457
2.64127
2.74399
2.88072
3.06473
3.29161
3.56195
3.87403
4.2207
4.59088
4.97267
5.35688
5.73942
6.12139
6.50742
2.89958
3.10323
3.30414
3.52228
3.76558
4.02939
4.31529
4.62071
4.94005
5.26677
5.59539
5.92364
6.2539
6.59214
6.94635
3.25544
3.53484
3.80699
4.08175
4.35752
4.63629
4.91891
5.20438
5.4911
5.77853
6.06648
6.35709
6.65867
6.98175
7.33234
3.58218
3.90508
4.21631
4.51549
4.80384
5.08387
5.3569
5.62435
5.88811
6.15383
6.42639
6.70653
7.00344
7.28036
7.53083
3.86466
4.20228
4.52373
4.82843
5.11747
5.39395
5.66117
5.9229
6.18291
6.45536
6.72748
6.95527
7.15678
7.31421
7.43192
4.10098
4.43199
4.75088
5.05015
5.33894
5.61716
5.90363
6.1683
6.40108
6.6162
6.79429
6.91914
7.00778
7.06868
7.10101
4.29739
4.61441
4.94925
5.23711
5.52257
5.7663
6.0105
6.20283
6.36219
6.47803
6.56692
6.61879
6.6404
6.63875
6.6137
4.43887
4.71905
5.0016
5.25232
5.47469
5.66648
5.8295
5.9552
6.04776