/*--------------------------------*- C++ -*----------------------------------*\
| =========                 |                                                 |
| \\      /  F ield         | OpenFOAM: The Open Source CFD Toolbox           |
|  \\    /   O peration     | Version:  v1912                                 |
|   \\  /    A nd           | Website:  www.openfoam.com                      |
|    \\/     M anipulation  |                                                 |
\*---------------------------------------------------------------------------*/
FoamFile
{
    version     2.0;
    format      ascii;
    class       volScalarField;
    location    "16";
    object      p;
}
// * * * * * * * * * * * * * * * * * * * * * * * * * * * * * * * * * * * * * //

dimensions      [1 -1 -2 0 0 0 0];


internalField   nonuniform List<scalar> 
20320
(
415900
426155
426182
426234
426306
426395
426497
426612
426738
426870
427007
427146
427285
427421
427554
427683
427816
427949
428049
428067
395978
405891
405927
405982
406055
406144
406248
406364
406491
406624
406763
406904
407046
407185
407317
407435
407547
407653
407741
407803
376656
386257
386294
386350
386423
386514
386618
386736
386863
386998
387137
387279
387423
387560
387680
387782
387876
387963
388041
388119
357932
367235
367271
367327
367401
367491
367596
367713
367840
367975
368114
368257
368398
368525
368629
368717
368797
368873
368948
369035
339796
348807
348843
348898
348971
349060
349164
349280
349406
349540
349678
349819
349954
350066
350156
350233
350304
350374
350448
350541
322231
330958
330993
331047
331118
331206
331308
331422
331546
331677
331813
331950
332074
332173
332251
332318
332382
332448
332524
332624
305226
313674
313708
313760
313830
313914
314013
314124
314243
314370
314502
314632
314743
314829
314896
314956
315014
315077
315155
315262
288768
296944
296976
297026
297092
297173
297267
297372
297486
297606
297732
297851
297949
298020
298077
298128
298180
298241
298320
298435
272846
280754
280784
280830
280892
280967
281054
281152
281258
281370
281485
281591
281672
281729
281773
281813
281857
281914
281995
282117
257447
265093
265121
265163
265218
265286
265365
265452
265547
265647
265748
265837
265898
265937
265963
265989
266022
266072
266153
266283
242561
249950
249974
250011
250059
250117
250184
250259
250339
250422
250505
250571
250608
250622
250625
250630
250646
250686
250764
250902
228179
235316
235336
235366
235405
235451
235505
235563
235623
235686
235743
235780
235785
235766
235737
235710
235701
235722
235794
235939
214290
221180
221195
221217
221245
221278
221314
221352
221389
221423
221448
221448
221412
221348
221271
221199
221148
221139
221198
221348
200884
207531
207540
207553
207569
207586
207602
207616
207624
207624
207609
207562
207471
207345
207200
207059
206946
206887
206919
207070
187952
194361
194365
194368
194370
194369
194363
194349
194323
194282
194218
194113
193952
193741
193502
193259
193046
192903
192883
193023
175485
181661
181658
181651
181638
181618
181588
181543
181478
181390
181270
181095
180846
180525
180153
179759
179387
179100
178981
179081
163471
169419
169409
169392
169365
169325
169269
169191
169086
168946
168763
168508
168154
167695
167144
166530
165908
165366
165042
165028
151900
157624
157608
157581
157539
157481
157399
157289
157142
156949
156699
156359
155888
155265
154486
153569
152559
151561
150797
150443
140759
146267
146246
146209
146154
146077
145972
145830
145643
145399
145085
144660
144070
143271
142229
140923
139351
137571
135825
134406
130037
135336
135309
135263
135196
135102
134976
134807
134584
134295
133923
133423
132728
131764
130460
128725
126443
123467
119661
114913
77290.3
79869.2
79768.5
80172
81181.6
80754.3
80320.2
79917.4
79766.4
79051.2
75109.5
66378.2
57138.5
47644
43891.1
95383.5
255310
352632
341052
287913
224168
164257
115935
81486.5
59122.8
45520.3
37569.5
33129.5
30750.4
29524
28949.1
28742.9
28741.8
28854.6
29032.7
29245.4
29474.8
29710.6
29941.2
30160.6
30366.8
30558.4
30737.2
30905
31060.9
31204.1
31330.2
31432.9
31508.5
31555.5
31565.2
31526.8
31449.6
31355.9
31253
31137
31015.3
30918
30841.5
30814
72182.4
75380.3
75812.3
75574.4
75101
75693.1
75635.1
76155.5
77285.1
78495.2
77557.1
71721.1
64602.6
58093.7
39255.9
32848.4
139791
260960
283329
251855
200838
148561
104935
73339.5
52653.8
40001.3
32588.6
28340.8
26016.9
24792
24191.9
23951.2
23917
24002.9
24159.1
24353.8
24566.4
24785.3
25001.4
25208.2
25402.9
25584.8
25754.8
25914.4
26063.8
26199.9
26317.5
26408.3
26465.4
26492
26493.3
26461.8
26393
26299.1
26187.6
26059.9
25920.2
25785.2
25681.9
25633.2
67328
70176.8
70676
70545
70277
70733.8
71495.5
71507.3
72930.7
74575.9
74654.3
70414.7
66607
45673.9
27901.4
27739.2
90171.4
203902
236191
219071
177872
131542
91816.9
63080.2
44478.6
33201.8
26622.4
22886.2
20824.1
19724.7
19175.2
18947.3
18909.1
18984.1
19128.2
19311.9
19514.8
19725.3
19934.3
20134.4
20322.6
20498.8
20663.8
20818.7
20963.7
21094.7
21206
21288.6
21334
21349.3
21345.8
21312.1
21239.7
21142.9
21025.2
20886.9
20729.7
20575.3
20452.8
20386.3
62681.9
64916.9
64838.7
65220.4
66132
65795.5
66345.4
67011.3
67450.7
68819.4
68788.6
64587.5
56243.9
28084.4
27536.1
28057.6
69540.4
176089
200373
189907
155023
112622
75855.6
49993.3
33990
24682.4
19434.2
16527.9
14960.7
14147.2
13753.4
13610.8
13617.3
13713.9
13868.6
14058.3
14265.1
14480.2
14694.4
14896.6
15084.8
15260.9
15425.9
15580.5
15725.6
15855.2
15966.8
16048.9
16088.4
16102.8
16105.3
16061.7
15970.4
15871.5
15755
15608.7
15429.4
15260.1
15129.6
15046.9
58392.5
59782.4
58994
62483.1
61645.3
61132.8
61246.4
62106.8
62128.9
62434.2
61916.1
57415.6
44151.9
27196.3
27397.8
27272.8
52333.3
154673
168698
160827
130061
90303.9
56167.9
33603.2
20908.8
14269.2
10902
9232.43
8420.58
8075.23
7952.19
7974.91
8080.97
8234.3
8423.56
8636.57
8859.15
9089.84
9320.32
9531.59
9722.89
9901.73
10068.9
10225.1
10372.8
10501.8
10618.3
10707.4
10739.3
10759.3
10787.4
10725.6
10589.2
10492.3
10389.1
10237.9
10020.7
9834.99
9708.53
9606.3
54586
53836.2
52877.8
57672.6
56969.8
56513.4
56347.2
56458.8
56786.6
55863.3
55008.5
50642.4
38574.5
26716.7
27087.5
27029.8
47477.8
129199
138348
131028
102616
64278.1
31937.6
12606.5
4709.87
2046.12
1357.05
1286.55
1443.3
1753.77
1979.48
2206.67
2430.77
2641.69
2861.76
3096.05
3328.01
3575.21
3833.35
4056.69
4249
4431.63
4602.41
4761.12
4916.95
5040.56
5169.89
5278.72
5285.23
5317.96
5423.76
5320.46
5074.7
5001.36
4939.97
4791.81
4484.89
4279.86
4188.18
4056.16
51149.9
51252
51377
53172.7
52624.2
51936.2
51556.5
51252.1
51176.8
49793.9
48439
44502.7
34776.4
26058.8
26697
26934
44432
102934
109186
101256
73960.7
34067
3477.2
-37.5133
88.0669
55.2406
32.0368
14.6856
1.91595
-8.78394
-17.9646
-24.2737
-27.71
-27.6473
-22.472
-10.0925
12.0498
47.7176
95.2498
144.456
192.136
241.29
289.359
336.107
402.467
440.564
500.491
592.716
552.445
543.801
706.596
643.117
394.281
400.086
416.45
369.785
115.344
-26.0915
-31.4775
-30.9181
47140.2
50780.6
51184.8
49603.3
48068.7
47370.9
46902.8
46291
45400.2
44547.7
42281.9
38881.8
31167.3
25052.2
26153.3
26977
42596.4
78858.2
82434.2
73418.1
45160.1
3334.37
173.068
132.009
91.9705
66.2453
42.3642
22.5212
6.59434
-6.1682
-16.3576
-23.8383
-29.467
-33.5781
-36.5239
-38.657
-40.208
-41.3038
-42.0436
-42.472
-42.6364
-42.6181
-42.482
-42.2746
-42.092
-41.9632
-42.3653
-41.7968
-41.2921
-42.7008
-41.2686
-38.7591
-39.3771
-39.7067
-39.6894
-39.4844
-38.3606
-34.1857
-36.3317
-37.2259
42154.1
45878.9
48265.3
44364.7
43233
42697.5
42365.9
41609.5
40219.2
39168
36726.6
33636.8
27457.4
23933.9
25425.9
25715.3
41596
57664.4
59280.7
49325.6
11124.5
203.412
145.64
110.521
76.2701
51.8833
30.8422
13.2506
-1.13145
-12.7612
-22.058
-29.4145
-35.0809
-39.2795
-42.311
-44.4706
-45.9882
-47.0222
-47.6931
-48.0726
-48.2139
-48.1823
-48.0402
-47.8412
-47.6683
-47.5493
-47.6233
-47.3894
-47.1069
-47.4149
-46.8102
-45.5941
-45.3829
-45.4557
-45.3871
-45.0769
-43.9468
-41.8687
-42.446
-43.176
36182.7
38692.3
39670
38785.3
37962.4
37757
37874.3
37398.4
35411.4
33353.4
31725.9
28923
24460
22507.2
24512.5
24828
35950.4
41398.5
40506.6
27510.9
468.002
120.891
114.071
85.7761
59.2937
37.8229
19.444
3.83771
-9.18243
-19.871
-28.5341
-35.4467
-40.8433
-44.937
-47.9573
-50.1332
-51.6669
-52.7091
-53.3783
-53.7578
-53.9112
-53.8995
-53.7773
-53.5994
-53.4254
-53.2872
-53.2385
-53.0851
-52.8938
-52.9211
-52.5063
-51.7369
-51.3905
-51.2927
-51.1431
-50.7751
-49.8828
-48.6667
-48.768
-49.3456
29601.6
32282.6
33002.2
32690.6
32187.2
32329.6
33227
33837.1
31199.5
28295.3
25907.7
23500.5
21916.4
20428.6
22431.7
24536.1
27198
29265.8
26159.6
7937.42
99.6399
95.1608
79.6102
60.1034
40.0243
22.1314
6.48824
-7.03149
-18.5087
-28.0733
-35.9202
-42.2493
-47.2514
-51.1057
-53.9943
-56.0986
-57.5882
-58.5986
-59.2422
-59.6038
-59.7516
-59.7447
-59.6312
-59.4616
-59.2845
-59.1291
-59.0234
-58.8896
-58.7398
-58.6558
-58.3456
-57.824
-57.4671
-57.274
-57.068
-56.6981
-56.0171
-55.2419
-55.179
-55.6146
22759.4
25814.4
26391.3
26321.3
25950.3
26204.8
27871.1
31995
28165.6
23898.2
20113.1
17420.7
16555.1
18021.9
20781.7
21239.6
21678.6
20346.6
15303.3
878.666
48.9877
58.648
48.3135
35.0995
20.1223
5.73847
-7.28621
-18.7834
-28.7087
-37.0952
-44.0532
-49.7221
-54.2452
-57.7662
-60.4334
-62.3912
-63.7801
-64.7181
-65.3072
-65.6288
-65.7517
-65.7326
-65.6137
-65.4415
-65.2579
-65.0878
-64.9525
-64.8211
-64.6874
-64.566
-64.3217
-63.9447
-63.6195
-63.3869
-63.1483
-62.7974
-62.2674
-61.7328
-61.6264
-61.9436
16238.6
19353.7
20112.5
20058.8
19531.2
17653.5
19985.5
27804.3
24620.4
20186.5
15817.8
15336
16214.3
17145.8
18998.6
16989.3
16676.1
13803
7259.99
104.654
15.3632
25.0594
20.5901
11.7164
0.633456
-10.7078
-21.3804
-31.0211
-39.4789
-46.7139
-52.7737
-57.748
-61.7421
-64.8703
-67.2516
-69.0049
-70.2455
-71.0747
-71.5822
-71.8434
-71.9242
-71.8759
-71.739
-71.555
-71.3601
-71.1776
-71.0244
-70.8894
-70.7624
-70.6329
-70.4307
-70.1428
-69.8612
-69.6212
-69.371
-69.0458
-68.622
-68.2261
-68.1064
-68.3191
14354.6
14463.9
14922.9
16250.4
17570.7
15956.6
17552.2
19658.9
17957.4
17057
15691.6
15528
15881
16503.4
16170.1
15181.8
12673.5
8876.39
1860.31
-15.991
-7.3268
-2.33567
-3.87192
-9.73907
-17.8929
-26.7456
-35.402
-43.4068
-50.5353
-56.6998
-61.8987
-66.1862
-69.6384
-72.3453
-74.4048
-75.9158
-76.9738
-77.6658
-78.0692
-78.2519
-78.2745
-78.1831
-78.0165
-77.8123
-77.6015
-77.4072
-77.2413
-77.1014
-76.9763
-76.8481
-76.6758
-76.4465
-76.2062
-75.9755
-75.7289
-75.4313
-75.0793
-74.7619
-74.6303
-74.7449
14334.6
14326.6
14374.1
14853.6
15124.5
15537.5
15760.5
15220.4
17348.9
15269
14960.6
15278.3
15594.1
15829.4
15768.5
11863.7
9426.89
5039.28
129.583
-50.3977
-30.4078
-25.4932
-25.4295
-29.2538
-35.2286
-42.1082
-49.0895
-55.6897
-61.6513
-66.8533
-71.2618
-74.9003
-77.8268
-80.1112
-81.8366
-83.0864
-83.9418
-84.4774
-84.76
-84.8504
-84.8021
-84.6571
-84.452
-84.2208
-83.9904
-83.7829
-83.6063
-83.4605
-83.3348
-83.2105
-83.0607
-82.8719
-82.6663
-82.4526
-82.2183
-81.9464
-81.6419
-81.3667
-81.2159
-81.2366
14324.7
14318.2
14328.6
14272.8
14347
14375.8
14405.2
14352.1
14826.8
14751.4
14880.3
15079.9
15334.2
15959.7
13226.2
9786.92
6756.52
1913.95
-86.0605
-51.3997
-49.5013
-45.0666
-44.466
-46.9465
-51.3252
-56.6672
-62.2818
-67.7027
-72.6616
-77.0189
-80.7201
-83.7674
-86.2043
-88.0865
-89.4841
-90.4707
-91.1165
-91.4865
-91.6393
-91.6282
-91.5011
-91.2964
-91.0477
-90.7846
-90.5321
-90.3095
-90.1222
-89.9696
-89.8415
-89.7214
-89.5879
-89.4283
-89.2511
-89.0562
-88.8386
-88.5888
-88.3154
-88.0596
-87.8827
-87.815
14314.8
14309.5
14290.8
14296.3
14318.9
14338.6
14366.9
14376.9
14421.6
14502.5
14752.8
14927.4
15098.8
14651.9
10036.7
7770.6
4397.14
-120.055
-61.7403
-74.3345
-66.0211
-62.172
-61.3803
-62.998
-66.2263
-70.3861
-74.8979
-79.3407
-83.4508
-87.0807
-90.1638
-92.6875
-94.6829
-96.196
-97.2865
-98.0202
-98.4612
-98.666
-98.6874
-98.5725
-98.363
-98.0968
-97.8024
-97.505
-97.2292
-96.9902
-96.791
-96.6305
-96.4992
-96.3814
-96.2591
-96.1214
-95.9667
-95.7906
-95.5906
-95.3592
-95.106
-94.8565
-94.649
-94.5
14303.7
14297.9
14286.1
14293
14305.6
14324.7
14346.9
14369.4
14416.2
14488.7
14639.1
14786.5
14878.1
14652.6
8474.09
6028.94
2193.8
-747.675
-113.809
-84.8145
-80.4157
-77.3123
-76.5443
-77.6158
-80.0228
-83.2789
-86.9092
-90.5501
-93.9516
-96.9633
-99.5145
-101.584
-103.191
-104.376
-105.189
-105.69
-105.94
-105.988
-105.884
-105.668
-105.379
-105.053
-104.712
-104.381
-104.082
-103.825
-103.613
-103.443
-103.308
-103.191
-103.076
-102.954
-102.817
-102.659
-102.475
-102.259
-102.019
-101.768
-101.531
-101.31
14290.3
14284.8
14279.4
14282.6
14292.9
14307.9
14326.4
14351.2
14391.4
14456.3
14564.4
14675.4
14806.9
12972
7347.46
4373.46
97.5247
-349.347
-96.6285
-97.6488
-93.318
-90.9131
-90.2586
-90.9995
-92.8291
-95.3949
-98.3263
-101.314
-104.127
-106.62
-108.721
-110.403
-111.676
-112.576
-113.147
-113.442
-113.52
-113.427
-113.209
-112.9
-112.538
-112.156
-111.773
-111.41
-111.088
-110.814
-110.588
-110.408
-110.267
-110.148
-110.038
-109.926
-109.804
-109.662
-109.492
-109.291
-109.06
-108.805
-108.539
-108.259
14273.4
14270.9
14267.9
14271
14279.6
14290.7
14304.6
14326.8
14361.8
14412.4
14491.2
14563.2
14776.5
9377.13
6092.1
2704.62
-1593.71
-144.745
-108.487
-107.977
-104.958
-103.275
-102.789
-103.339
-104.76
-106.806
-109.183
-111.639
-113.967
-116.029
-117.754
-119.11
-120.1
-120.759
-121.124
-121.244
-121.175
-120.961
-120.643
-120.254
-119.829
-119.398
-118.977
-118.586
-118.242
-117.951
-117.712
-117.521
-117.373
-117.251
-117.143
-117.039
-116.928
-116.799
-116.643
-116.454
-116.23
-115.971
-115.683
-115.354
14255.7
14256.2
14253.9
14257.4
14265.9
14274.9
14281.3
14299
14327.4
14361.6
14415.9
14487.8
14209.3
7658.98
4783.64
942.442
-1987.85
-126.489
-120.34
-118.066
-115.874
-114.686
-114.365
-114.812
-115.944
-117.591
-119.53
-121.555
-123.483
-125.187
-126.6
-127.685
-128.442
-128.901
-129.097
-129.073
-128.884
-128.571
-128.171
-127.716
-127.241
-126.771
-126.318
-125.902
-125.54
-125.233
-124.981
-124.78
-124.624
-124.498
-124.39
-124.291
-124.189
-124.072
-123.928
-123.751
-123.534
-123.274
-122.968
-122.603
14236
14240.5
14238.3
14242.7
14248.4
14253.7
14256.4
14270.6
14283.6
14312.9
14349
14377.1
12721
6288.92
3393.24
-814.374
-912.135
-141.181
-129.977
-127.793
-126.165
-125.368
-125.186
-125.572
-126.495
-127.835
-129.425
-131.098
-132.694
-134.103
-135.258
-136.12
-136.687
-136.987
-137.047
-136.911
-136.63
-136.24
-135.778
-135.276
-134.763
-134.263
-133.787
-133.352
-132.973
-132.653
-132.388
-132.178
-132.015
-131.883
-131.775
-131.68
-131.585
-131.479
-131.348
-131.182
-130.973
-130.714
-130.398
-130.007
14215.7
14222.5
14221.3
14224.2
14224.4
14230.7
14239
14246.1
14255.7
14275.5
14295
14432.3
8777.47
5235.15
1951.69
-2497.07
-328.333
-128.465
-138.667
-137.037
-135.996
-135.491
-135.416
-135.764
-136.527
-137.626
-138.935
-140.316
-141.637
-142.802
-143.744
-144.423
-144.839
-145.013
-144.97
-144.75
-144.402
-143.959
-143.456
-142.923
-142.386
-141.867
-141.376
-140.928
-140.538
-140.207
-139.93
-139.712
-139.542
-139.406
-139.297
-139.205
-139.117
-139.021
-138.901
-138.747
-138.549
-138.294
-137.973
-137.569
14199.2
14205.9
14203.8
14199.8
14196.8
14215.1
14227.1
14225.2
14232.6
14247.6
14281.5
14034.4
6744.37
4143.19
427.379
-2943.08
-151.669
-149.052
-147.447
-146.191
-145.501
-145.202
-145.196
-145.508
-146.143
-147.047
-148.124
-149.261
-150.352
-151.312
-152.077
-152.609
-152.905
-152.982
-152.864
-152.587
-152.195
-151.721
-151.197
-150.648
-150.102
-149.575
-149.077
-148.623
-148.227
-147.888
-147.603
-147.377
-147.201
-147.062
-146.953
-146.864
-146.783
-146.696
-146.588
-146.447
-146.26
-146.013
-145.694
-145.285
14185
14191.3
14189.7
14183.8
14178.8
14190.5
14200.3
14195.9
14209.6
14219.8
14260.2
12010.5
5673.07
2947.77
-1229.27
-1739.84
-178.648
-155.824
-156.251
-155.285
-154.813
-154.619
-154.638
-154.909
-155.436
-156.176
-157.058
-157.991
-158.887
-159.673
-160.288
-160.699
-160.902
-160.907
-160.736
-160.425
-160.011
-159.526
-158.997
-158.449
-157.906
-157.383
-156.887
-156.434
-156.036
-155.693
-155.403
-155.173
-154.992
-154.852
-154.743
-154.657
-154.582
-154.504
-154.408
-154.28
-154.106
-153.87
-153.559
-153.152
14177.2
14180.6
14179.4
14175.3
14168.2
14174.3
14173.7
14170
14185.8
14201.9
14139.4
8047.43
4925.23
1643.11
-2879.79
-520.591
-157.978
-166.729
-165.203
-164.371
-163.993
-163.826
-163.835
-164.055
-164.484
-165.086
-165.804
-166.562
-167.29
-167.926
-168.413
-168.725
-168.853
-168.806
-168.601
-168.273
-167.856
-167.376
-166.858
-166.325
-165.797
-165.288
-164.802
-164.357
-163.964
-163.621
-163.33
-163.098
-162.915
-162.773
-162.665
-162.581
-162.513
-162.442
-162.359
-162.244
-162.085
-161.863
-161.564
-161.166
14172.4
14173.1
14171.2
14167.6
14161.4
14161.6
14161.5
14160.6
14168.1
14194.7
13465.2
6583.21
4024.34
209.117
-3449.84
-186.562
-176.308
-175.406
-174.073
-173.39
-173.052
-172.873
-172.853
-173.019
-173.361
-173.845
-174.422
-175.029
-175.612
-176.116
-176.495
-176.722
-176.79
-176.703
-176.479
-176.148
-175.742
-175.28
-174.787
-174.28
-173.778
-173.291
-172.824
-172.393
-172.01
-171.673
-171.384
-171.152
-170.969
-170.827
-170.719
-170.639
-170.575
-170.512
-170.438
-170.336
-170.191
-169.987
-169.704
-169.322
14171.9
14168.1
14164.7
14161.4
14157.5
14158
14165.9
14159.8
14158.9
14197.5
10292.5
5945.87
2903.25
-1395.63
-2058.9
-205.731
-182.737
-183.894
-182.887
-182.327
-182.005
-181.807
-181.754
-181.869
-182.133
-182.514
-182.969
-183.447
-183.903
-184.293
-184.576
-184.731
-184.747
-184.631
-184.397
-184.074
-183.688
-183.255
-182.796
-182.324
-181.855
-181.398
-180.956
-180.546
-180.179
-179.851
-179.569
-179.339
-179.159
-179.017
-178.909
-178.83
-178.769
-178.71
-178.644
-178.552
-178.421
-178.235
-177.974
-177.615
14177.6
14165.7
14159.5
14155.5
14153
14153.7
14157.6
14157.2
14167.2
13949.1
7878.97
5208.7
1570.74
-2982.46
-570.399
-184.482
-193.786
-192.483
-191.653
-191.188
-190.877
-190.664
-190.587
-190.656
-190.852
-191.144
-191.496
-191.863
-192.211
-192.501
-192.701
-192.792
-192.764
-192.624
-192.387
-192.079
-191.718
-191.321
-190.902
-190.47
-190.039
-189.616
-189.204
-188.819
-188.472
-188.159
-187.886
-187.663
-187.485
-187.344
-187.236
-187.155
-187.093
-187.036
-186.972
-186.887
-186.769
-186.601
-186.367
-186.04
14191.1
14165.6
14155.1
14149.9
14147.6
14148
14151.3
14153.3
14176.8
11797.8
7092.41
4107.96
29.0542
-3421.51
-212.768
-202.582
-202.265
-201.072
-200.41
-200.013
-199.708
-199.489
-199.395
-199.425
-199.562
-199.78
-200.045
-200.32
-200.577
-200.783
-200.912
-200.947
-200.882
-200.723
-200.487
-200.197
-199.865
-199.505
-199.127
-198.736
-198.344
-197.956
-197.577
-197.221
-196.897
-196.6
-196.34
-196.126
-195.952
-195.811
-195.7
-195.615
-195.549
-195.488
-195.421
-195.337
-195.226
-195.074
-194.869
-194.587
14169.1
14165.8
14150.6
14144.5
14142.5
14143.6
14146.3
14154.3
13973.1
9074.17
6312.33
2727.78
-1692.93
-1747.44
-230.443
-210.282
-210.814
-209.778
-209.217
-208.849
-208.544
-208.323
-208.216
-208.215
-208.305
-208.462
-208.655
-208.855
-209.038
-209.175
-209.245
-209.234
-209.14
-208.969
-208.737
-208.467
-208.166
-207.841
-207.498
-207.142
-206.785
-206.431
-206.082
-205.756
-205.457
-205.179
-204.935
-204.731
-204.561
-204.419
-204.303
-204.212
-204.135
-204.064
-203.988
-203.899
-203.788
-203.647
-203.468
-203.247
14075.2
14141.6
14140
14137.9
14137.5
14139.8
14143.6
14164.5
12224.9
8131.73
5110.1
1112.42
-3315.63
-424.401
-214.442
-221.018
-219.541
-218.609
-218.096
-217.727
-217.419
-217.2
-217.085
-217.061
-217.114
-217.222
-217.358
-217.498
-217.622
-217.705
-217.729
-217.685
-217.572
-217.396
-217.181
-216.941
-216.667
-216.369
-216.054
-215.725
-215.396
-215.067
-214.744
-214.443
-214.164
-213.904
-213.674
-213.48
-213.314
-213.17
-213.048
-212.946
-212.856
-212.769
-212.678
-212.575
-212.456
-212.315
-212.149
-211.987
14101.3
14088.4
14117.1
14127.6
14131.6
14136.2
14149.8
13906.7
9791.37
7133.63
3554.08
-708.329
-3057.59
-236.66
-230.055
-229.818
-228.342
-227.525
-227.04
-226.664
-226.358
-226.147
-226.028
-225.988
-226.014
-226.084
-226.175
-226.268
-226.347
-226.389
-226.381
-226.317
-226.196
-226.032
-225.833
-225.606
-225.354
-225.082
-224.794
-224.493
-224.19
-223.885
-223.585
-223.305
-223.041
-222.792
-222.57
-222.378
-222.21
-222.062
-221.932
-221.82
-221.717
-221.616
-221.511
-221.397
-221.27
-221.13
-220.976
-220.828
14083.7
14073.4
14096
14113.5
14122.9
14132
14145.6
11703
8769.34
5670.73
1726.97
-2602.61
-935.655
-243.139
-238.628
-238.181
-237.128
-236.492
-236.046
-235.676
-235.386
-235.186
-235.07
-235.021
-235.027
-235.07
-235.126
-235.183
-235.227
-235.238
-235.21
-235.133
-235.003
-234.838
-234.651
-234.44
-234.208
-233.959
-233.694
-233.419
-233.141
-232.859
-232.582
-232.321
-232.073
-231.837
-231.623
-231.435
-231.267
-231.115
-230.98
-230.86
-230.75
-230.642
-230.531
-230.417
-230.296
-230.169
-230.038
-229.92
14068.5
14069.6
14081.8
14099.1
14109.3
14151
13361
10057.3
7438.96
3811.75
-309.876
-3542.32
-235.318
-249.737
-248.632
-247.015
-246.106
-245.553
-245.137
-244.79
-244.523
-244.342
-244.231
-244.179
-244.172
-244.192
-244.222
-244.252
-244.269
-244.259
-244.216
-244.114
-243.977
-243.817
-243.64
-243.444
-243.23
-243
-242.757
-242.504
-242.248
-241.987
-241.73
-241.487
-241.253
-241.029
-240.825
-240.642
-240.475
-240.321
-240.184
-240.06
-239.945
-239.834
-239.723
-239.611
-239.497
-239.383
-239.272
-239.177
14054.2
14058.4
14067.4
14083.2
14094.7
13869.2
11143.2
8802.6
5560.83
1697.07
-2393.81
-1456.53
-269.568
-258.467
-257.42
-256.02
-255.235
-254.732
-254.34
-254.024
-253.789
-253.629
-253.528
-253.475
-253.459
-253.462
-253.473
-253.483
-253.48
-253.454
-253.385
-253.264
-253.125
-252.971
-252.804
-252.62
-252.421
-252.208
-251.984
-251.751
-251.514
-251.273
-251.035
-250.807
-250.586
-250.375
-250.179
-250.002
-249.838
-249.685
-249.547
-249.422
-249.305
-249.192
-249.082
-248.974
-248.868
-248.764
-248.669
-248.591
14032.4
14043.6
14050.8
14062.5
14045.1
11938.6
9790.64
6894.79
3267.11
-519.728
-3626.9
-299.205
-261.527
-267.544
-266.123
-265.127
-264.484
-264.032
-263.674
-263.395
-263.196
-263.058
-262.968
-262.918
-262.895
-262.886
-262.883
-262.879
-262.859
-262.817
-262.713
-262.587
-262.45
-262.301
-262.142
-261.97
-261.783
-261.585
-261.377
-261.162
-260.942
-260.719
-260.498
-260.284
-260.076
-259.876
-259.689
-259.518
-259.358
-259.208
-259.071
-258.945
-258.828
-258.716
-258.608
-258.504
-258.405
-258.311
-258.227
-258.161
14003.2
14022.4
14035.4
14014.7
12465.3
10498.8
7798.52
4427.53
892.786
-2681.6
-1642.91
-295.562
-276.511
-276.539
-275.257
-274.439
-273.889
-273.478
-273.158
-272.921
-272.755
-272.64
-272.564
-272.518
-272.491
-272.472
-272.459
-272.443
-272.414
-272.335
-272.217
-272.089
-271.954
-271.81
-271.658
-271.496
-271.321
-271.136
-270.943
-270.743
-270.538
-270.332
-270.125
-269.924
-269.729
-269.54
-269.362
-269.197
-269.041
-268.896
-268.761
-268.637
-268.521
-268.41
-268.305
-268.205
-268.113
-268.027
-267.952
-267.895
13966.2
13998.1
14010.3
12577.1
10836.1
8284.92
5163.54
1887.01
-1373.2
-3733.07
-266.301
-287.984
-288.19
-285.989
-284.74
-283.978
-283.464
-283.083
-282.802
-282.604
-282.47
-282.378
-282.318
-282.277
-282.248
-282.223
-282.202
-282.179
-282.13
-282.021
-281.898
-281.77
-281.638
-281.499
-281.354
-281.199
-281.034
-280.862
-280.682
-280.495
-280.305
-280.112
-279.918
-279.73
-279.547
-279.369
-279.2
-279.041
-278.891
-278.749
-278.618
-278.497
-278.383
-278.274
-278.173
-278.078
-277.99
-277.912
-277.844
-277.793
11775.5
13598.3
12660.9
11073.9
8546.6
5659.63
2680.82
-274.983
-3351.48
-1214.41
-304.22
-299.831
-297.514
-295.645
-294.517
-293.795
-293.293
-292.933
-292.68
-292.509
-292.395
-292.318
-292.265
-292.223
-292.187
-292.152
-292.12
-292.086
-291.997
-291.881
-291.758
-291.633
-291.504
-291.37
-291.23
-291.082
-290.927
-290.766
-290.596
-290.422
-290.245
-290.063
-289.882
-289.706
-289.534
-289.366
-289.205
-289.054
-288.909
-288.773
-288.646
-288.527
-288.416
-288.311
-288.213
-288.123
-288.041
-287.968
-287.906
-287.86
119723
124817
124785
124732
124655
124548
124404
124212
123959
123633
123215
122660
121887
120803
119293
117194
114235
109893
102886
90509
109530
114609
114574
114515
114430
114312
114153
113944
113669
113317
112869
112280
111469
110329
108722
106445
103149
98159.4
90055.7
76241
99362.6
104428
104390
104326
104234
104108
103939
103717
103429
103061
102597
101999
101191
100066
98485.8
96253.7
93064.6
88421.7
81558.9
71619.8
89223.4
94273.5
94233.4
94166.8
94070.3
93938.7
93764.1
93535.7
93241.3
92869.1
92404.6
91818.3
91047.3
89996.4
88539.9
86511.7
83681.7
79733.6
74281.3
67037
79113.4
84148.3
84107.2
84038.9
83940.3
83806.3
83629.5
83400
83107
82740.5
82288.4
81730.4
81019.7
80076.6
78794.1
77039.3
74648.1
71427.9
67192.4
61870.9
69033.1
74053.1
74011.9
73943.4
73844.8
73711.2
73535.8
73310
73025
72672.6
72242.3
71722
71079.6
70251
69148.1
67667.2
65692.1
63103.1
59805.7
55790.6
58982.2
63988
63947.7
63880.8
63784.1
63653.2
63482.5
63264.7
62993.4
62660.5
62255.8
61772.9
61190.2
60458.5
59508.9
58261.5
56631.9
54540.2
51931.4
48807.3
48959.5
53952.5
53914.5
53850.8
53757.7
53631.7
53468.7
53263.5
53008.4
52693.2
52309.5
51854.2
51313.3
50651.6
49817.5
48749.7
47383.9
45662.2
43546.6
41037
38962.4
43945.2
43911.8
43853
43764.3
43645
43491.3
43296.2
43050.3
42744.4
42375
41940.9
41431.6
40821.5
40071.5
39134.6
37961
36506.3
34742.3
32666.7
28984.5
33963.9
33938.9
33886.8
33803.5
33687.7
33536
33340.8
33096.5
32798.6
32444
32029.6
31546.6
30976.1
30288.6
29447.6
28414.1
27152.6
25642.7
23885.1
19007.5
24003.2
24000
23957.7
23868.2
23742.8
23584.9
23390.7
23153.6
22867.6
22528.3
22130.8
21668
21126.6
20484.6
19714.6
18785.2
17664.3
16342.4
14832.4
8987.78
14072.8
14112.3
14051.6
13938.9
13800.8
13642.4
13455.8
13229.7
12956.9
12630.5
12243.8
11792.3
11267.8
10651.2
9927.77
9080.66
8054.46
6773.95
5408.25
-268.116
4135.34
4290.06
4182.98
4021.58
3865.92
3719.55
3555.26
3343.42
3084.14
2816.7
2491.3
2130.37
1747.72
1347.49
946.981
595.648
316.489
131.223
-120.383
-424.637
-425.257
-426.163
-425.742
-425.206
-425.279
-425.722
-426.486
-427.248
-427.874
-428.96
-430.108
-431.436
-432.978
-434.692
-436.245
-435.792
-423.206
-417.223
-418.188
-439.895
-435.41
-434.304
-433.975
-433.773
-433.732
-433.806
-433.951
-434.104
-434.25
-434.442
-434.653
-434.881
-435.129
-435.385
-435.594
-435.524
-435.089
-436.176
-436.805
-449.355
-444.359
-443.929
-443.718
-443.603
-443.553
-443.558
-443.61
-443.693
-443.8
-443.936
-444.096
-444.278
-444.481
-444.694
-444.894
-445.026
-445.081
-445.354
-445.698
-459.1
-454.092
-453.894
-453.744
-453.646
-453.594
-453.585
-453.611
-453.667
-453.746
-453.848
-453.97
-454.109
-454.261
-454.419
-454.571
-454.706
-454.835
-455.016
-455.221
-468.971
-463.856
-463.753
-463.666
-463.601
-463.563
-463.553
-463.568
-463.606
-463.664
-463.74
-463.832
-463.938
-464.054
-464.177
-464.302
-464.425
-464.551
-464.691
-464.84
-478.852
-473.7
-473.601
-473.551
-473.513
-473.492
-473.488
-473.5
-473.529
-473.573
-473.631
-473.701
-473.782
-473.873
-473.97
-474.074
-474.182
-474.295
-474.414
-474.536
-488.72
-483.558
-483.456
-483.424
-483.406
-483.398
-483.401
-483.414
-483.439
-483.474
-483.521
-483.576
-483.641
-483.715
-483.795
-483.883
-483.977
-484.077
-484.181
-484.288
-498.566
-493.417
-493.321
-493.3
-493.296
-493.297
-493.304
-493.318
-493.341
-493.371
-493.41
-493.457
-493.511
-493.573
-493.643
-493.719
-493.802
-493.891
-493.984
-494.08
-508.363
-503.266
-503.198
-503.187
-503.19
-503.196
-503.205
-503.219
-503.24
-503.266
-503.3
-503.341
-503.389
-503.444
-503.505
-503.573
-503.648
-503.728
-503.813
-503.9
-518.1
-513.111
-513.086
-513.084
-513.09
-513.097
-513.107
-513.121
-513.139
-513.163
-513.193
-513.23
-513.273
-513.323
-513.379
-513.441
-513.51
-513.583
-513.661
-513.742
-527.777
-522.956
-522.971
-522.981
-522.99
-522.999
-523.009
-523.023
-523.04
-523.062
-523.09
-523.124
-523.164
-523.21
-523.263
-523.321
-523.384
-523.452
-523.524
-523.599
42943.6
38383.8
39776.4
45412.6
53333.1
61337.9
67893.9
72350.3
74713.3
75246.5
74191.6
71621.3
67271.5
60076.6
46466.6
50186.2
33720.8
30948.4
34961.4
42114.6
49529.6
55658.6
59862.5
62110.1
62601.4
61518.1
58890.4
54494.2
47740.9
37792.7
57307.8
41492.6
33707.9
33335.9
37225
42434.5
47014.8
50193.7
51814.5
51960.1
50725.6
48113.7
44003.6
38198.2
30663.8
58139.2
48004.1
40581.6
37238.2
37191.1
38921.7
40966.3
42466.8
43062.1
42629.5
41125.4
38505.4
34715
29746.6
23780.6
55580.8
48596.8
42703.3
38736.9
36711.1
36043.2
35975.6
35892.3
35406.4
34296.5
32436.7
29754.3
26224.1
21898.7
16966.3
51100.1
45838.7
41022.2
37134.9
34314
32376.8
30973
29735.4
28366.9
26655.7
24462.1
21704.9
18361.6
14484.1
10213.8
45165.2
40987.7
36926.6
33286.8
30210.4
27673.9
25526
23564.7
21593.1
19447
17003.2
14183.5
10956
7325.62
3327.43
38107.3
34677.7
31195.6
27863.6
24808.6
22061.9
19567.8
17222.3
14904.6
12499.9
9900.08
6998.84
3711.09
346.919
-1400.05
30242.7
27364.5
24356.6
21359.9
18476.1
15751.7
13170.6
10683.5
8206.8
5631.44
2849.35
220.073
-949.475
-548.01
-388.405
21839.4
19391.3
16786.6
14136.8
11499.7
8930.26
6374.13
3813.38
1305.61
-608.772
-589.039
-516.066
-395.307
-381.717
-388.453
13085.9
10979.8
8685.12
6345.46
3858.61
1588.76
-437.749
-1116.26
-481.416
-462.521
-393.181
-393.777
-397.698
-399.226
-399.116
3923.69
2225.75
394.009
-677.022
-821.702
-498.234
-467.916
-410.401
-403.102
-404.943
-408.721
-409.223
-408.574
-408.322
-408.314
-334.004
-474.414
-467.259
-449.911
-420.03
-410.242
-414.593
-417.477
-419.045
-418.269
-417.957
-417.941
-417.83
-417.785
-417.786
-419.123
-420.054
-424.22
-427.629
-426.966
-428.221
-427.665
-427.548
-427.503
-427.377
-427.339
-427.339
-427.319
-427.317
-427.336
-437.302
-437.176
-436.779
-437.089
-436.934
-436.907
-436.849
-436.872
-436.883
-436.871
-436.869
-436.882
-436.899
-436.923
-436.957
-445.979
-446.092
-446.118
-446.263
-446.317
-446.356
-446.374
-446.4
-446.425
-446.45
-446.478
-446.512
-446.547
-446.586
-446.629
-455.412
-455.555
-455.655
-455.76
-455.84
-455.902
-455.953
-456.002
-456.049
-456.096
-456.144
-456.192