/*--------------------------------*- C++ -*----------------------------------*\
| =========                 |                                                 |
| \\      /  F ield         | OpenFOAM: The Open Source CFD Toolbox           |
|  \\    /   O peration     | Version:  v1912                                 |
|   \\  /    A nd           | Website:  www.openfoam.com                      |
|    \\/     M anipulation  |                                                 |
\*---------------------------------------------------------------------------*/
FoamFile
{
    version     2.0;
    format      ascii;
    class       volScalarField;
    location    "16";
    object      p_rgh;
}
// * * * * * * * * * * * * * * * * * * * * * * * * * * * * * * * * * * * * * //

dimensions      [1 -1 -2 0 0 0 0];


internalField   nonuniform List<scalar> 
20320
(
431167
431244
431271
431324
431396
431484
431587
431701
431827
431959
432096
432235
432374
432510
432643
432772
432905
433038
433138
433156
431056
431155
431191
431245
431318
431408
431512
431628
431754
431888
432027
432168
432309
432449
432580
432699
432810
432917
433005
433066
430833
430973
431009
431065
431139
431229
431334
431451
431578
431713
431852
431995
432138
432276
432395
432498
432591
432678
432756
432835
430526
430705
430742
430797
430871
430961
431066
431183
431310
431445
431584
431727
431869
431995
432099
432187
432267
432343
432418
432505
430145
430360
430396
430451
430524
430613
430717
430833
430959
431093
431231
431373
431507
431620
431709
431786
431857
431927
432001
432095
429701
429946
429981
430035
430107
430194
430296
430410
430534
430665
430801
430938
431062
431161
431239
431306
431371
431436
431512
431612
429203
429473
429507
429559
429629
429714
429812
429923
430043
430169
430301
430431
430543
430628
430695
430755
430813
430876
430954
431062
428660
428951
428984
429033
429099
429180
429274
429379
429493
429614
429739
429859
429956
430028
430084
430135
430187
430248
430327
430442
428083
428389
428419
428465
428527
428602
428689
428787
428893
429005
429120
429226
429307
429364
429408
429448
429492
429549
429630
429753
427479
427796
427824
427865
427921
427989
428067
428155
428250
428350
428451
428539
428601
428639
428666
428692
428725
428775
428856
428986
426859
427182
427206
427242
427290
427348
427416
427490
427570
427654
427736
427802
427839
427853
427857
427861
427877
427917
427996
428133
426231
426555
426575
426604
426643
426690
426743
426801
426862
426924
426981
427018
427024
427005
426975
426949
426939
426960
427032
427177
425604
425924
425939
425961
425989
426022
426058
426096
426133
426167
426192
426192
426156
426092
426015
425943
425892
425883
425942
426092
424985
425298
425307
425320
425336
425353
425369
425382
425390
425390
425375
425328
425238
425111
424967
424826
424713
424654
424685
424837
424382
424684
424687
424690
424692
424691
424685
424671
424645
424604
424540
424435
424274
424064
423824
423581
423368
423225
423205
423345
423802
424088
424085
424078
424066
424046
424015
423970
423906
423818
423698
423522
423273
422953
422581
422186
421815
421528
421408
421509
423248
423518
423509
423491
423464
423425
423369
423291
423185
423046
422863
422608
422254
421795
421243
420630
420008
419465
419142
419128
422727
422978
422962
422935
422893
422834
422753
422643
422495
422303
422053
421712
421241
420618
419840
418922
417912
416915
416150
415797
422241
422471
422450
422413
422358
422281
422175
422034
421847
421603
421289
420864
420274
419474
418433
417127
415554
413775
412029
410610
421792
422001
421974
421929
421862
421768
421642
421473
421250
420960
420589
420089
419393
418430
417126
415391
413109
410133
406327
401578
81110.3
81142.4
81031.4
81206.7
82455.7
82028.5
81594.3
81191.1
81040.4
80325.3
76383.6
67652.4
58412.7
48918.1
45165.1
96657.6
256584
353906
342326
289188
225442
165531
117209
82760.6
60396.9
46794.4
38843.6
34403.6
32024.5
30798.1
30223.2
30017.1
30015.9
30128.7
30306.8
30519.5
30748.9
30984.7
31215.3
31434.7
31640.9
31832.5
32011.3
32179.1
32335
32478.2
32604.4
32707
32782.7
32829.6
32839.2
32800.9
32723.8
32630
32527.1
32411.1
32289.4
32192.2
32115.6
32088.1
81166.6
81769.2
82078.9
80955.5
81492.6
80343.7
81361.7
82539.4
83676
84886.8
83948.6
78112.7
70994.3
64485.2
45647.6
39154
146182
267352
289721
258246
207229
154952
111327
79731.1
59045.4
46392.9
38980.2
34732.5
32408.5
31183.5
30583.6
30342.8
30308.7
30394.5
30550.8
30745.4
30957.9
31176.9
31393
31599.8
31794.5
31976.4
32146.4
32306
32455.4
32591.6
32709.1
32799.9
32857
32883.6
32884.9
32853.4
32784.6
32690.8
32579.2
32451.5
32311.8
32176.8
32073.6
32024.8
81549.3
81777.6
82231.3
81201.8
81877.5
82334.7
81424.4
83106.8
84531.4
86176.7
86255.2
82015.6
78207.9
52321.1
28250.6
28131.8
98347
215503
247792
230672
189473
143143
103418
74681.2
56079.5
44802.7
38223.4
34487.1
32425
31325.7
30776.1
30548.3
30510
30585
30729.1
30912.9
31115.7
31326.2
31535.3
31735.3
31923.5
32099.7
32264.7
32419.6
32564.6
32695.6
32806.9
32889.6
32934.9
32950.2
32946.8
32913
32840.6
32743.9
32626.1
32487.8
32330.7
32176.2
32053.7
31987.2
82246.1
81818.8
81742.3
73578.1
83035.6
82693.4
83208.7
79847.8
84336.8
85700
85692.2
81491
73017
28101.3
27553
28074.5
77539.2
192992
217276
206811
171927
129525
92759.2
66896.9
50893.6
41586
36337.8
33431.5
31864.3
31050.8
30657
30514.4
30520.9
30617.5
30772.1
30961.9
31168.7
31383.8
31598
31800.2
31988.4
32164.5
32329.5
32484.1
32629.2
32758.8
32870.4
32952.5
32992
33006.4
33008.9
32965.2
32874
32775.1
32658.6
32512.3
32333
32163.7
32033.2
31950.5
83428.9
82083.6
81295.3
63485.9
83946.5
83424.6
83547.3
83745.8
84353.9
84733.2
84217.4
79717
66416.5
27296.7
27420.1
27295.1
58343.3
176974
190999
183129
152362
112605
78469.1
55904.5
43210.2
36570.5
33203.3
31533.7
30721.9
30376.5
30253.5
30276.2
30382.3
30535.6
30724.8
30937.8
31160.4
31391.1
31621.6
31832.9
32024.2
32203
32370.2
32526.4
32674.1
32803.1
32919.6
33008.7
33040.6
33060.6
33088.7
33026.9
32890.5
32793.5
32690.3
32539.1
32322
32136.3
32009.8
31907.6
85165.8
72289.1
60368.5
61676.2
84765.7
84309.3
84143
84254.6
81052.4
83643.4
82804.4
78438.3
66370.3
28403.2
27115.3
27057.6
58168.6
156994
166144
158824
130412
92074
59733.5
40402.4
32505.7
29778.8
28976.5
28888.4
29090
29474.8
29775.3
30002.5
30226.6
30437.5
30657.6
30891.9
31123.9
31371.1
31629.2
31852.5
32044.9
32227.5
32398.3
32557
32712.8
32836.4
32965.7
33074.6
33081.1
33113.8
33219.6
33116.3
32870.6
32797.2
32735.8
32587.7
32280.7
32075.7
31984
31852
87171.9
51285.4
51410.4
64423.1
86013.1
85325.1
84919.5
84624
83196.9
82726.4
81827.9
77891.6
68165.4
31258.4
26730.3
26967.4
63860.7
136323
142575
134645
107350
67456
28133
3898.37
121.456
88.6295
65.4257
48.0746
35.3049
26.044
30.0143
57.9037
120.508
238.616
456.13
825.287
1399.71
2268.08
3402.1
4540.6
5598.01
6677.38
7733.47
8761.94
10416.8
11333.6
12860.1
15435.3
14271.3
13706.9
18331.3
17212.1
10492
10922.5
11451.9
10523.8
3671.91
88.8357
1.91147
2.47079
89107.3
50923.6
51223.9
88685.5
87143.1
86453.2
85904.6
85284.2
83823.9
74964.1
81364.2
77964.1
70249.6
36149.8
26192.4
27016.1
75126.4
117940
121516
112500
84242.4
12425.9
212.15
171.091
131.053
105.328
81.4465
61.6034
45.6766
32.9141
22.7247
15.2439
9.61532
5.50417
2.55833
0.425358
-1.12568
-2.22151
-2.96138
-3.38967
-3.55416
-3.53575
-3.39972
-3.19236
-3.00972
-2.88092
-3.28302
-2.71457
-2.20985
-3.61852
-2.18637
0.323155
-0.294831
-0.624441
-0.60703
-0.40213
0.721646
4.89653
2.75065
1.85639
89968.4
88974.2
76616.2
89205.7
88110.5
87554.3
87243.5
86487.2
85016.1
78069.8
78809.7
78499.3
72335.1
34864.9
25470.8
25760.2
85349
102542
104159
94203.3
37615.1
248.289
190.518
155.398
121.148
96.7612
75.72
58.1284
43.7464
32.1166
22.8199
15.4633
9.79691
5.59833
2.56681
0.407185
-1.11037
-2.14432
-2.81529
-3.1948
-3.33604
-3.30447
-3.16242
-2.96339
-2.7905
-2.67155
-2.74551
-2.51164
-2.2291
-2.53711
-1.93237
-0.716285
-0.505047
-0.57788
-0.509224
-0.199159
0.931075
3.0091
2.43176
1.70174
89825.5
89468.6
90443.7
89552.5
88712.6
88501.5
88651.4
88175.5
86188.6
84130.6
72490.5
78590.8
75237.1
35392.1
24563.2
24878.8
86727.6
92175.7
91283.7
78288.1
782.725
171.668
164.848
136.553
110.071
88.6
70.2211
54.6149
41.5948
30.9062
22.2431
15.3304
9.9339
5.84014
2.8198
0.644012
-0.889729
-1.93201
-2.60115
-2.98066
-3.1341
-3.12227
-3.00011
-2.82213
-2.64817
-2.51005
-2.46135
-2.30794
-2.11663
-2.14397
-1.72908
-0.959759
-0.613308
-0.515531
-0.365967
0.00206128
0.894297
2.11048
2.00917
1.43152
89289.5
89063.9
89755.5
89467.3
88904.9
89112
90009.3
90619.5
87981.8
85077.7
82429.7
80282.8
78698.8
24473.7
22488.4
39357.4
83980.3
86048.2
82941.9
51911.9
156.422
151.943
136.392
116.886
96.8066
78.9137
63.2706
49.7508
38.2737
28.709
20.8621
14.5331
9.53095
5.67664
2.78798
0.683773
-0.805955
-1.81631
-2.45983
-2.82147
-2.96929
-2.96234
-2.8489
-2.67922
-2.50222
-2.34676
-2.24111
-2.10718
-1.9575
-1.87348
-1.56324
-1.04168
-0.684813
-0.491707
-0.285625
0.0841648
0.765204
1.54052
1.6033
1.16773
88751.9
88702.8
89257
89170.1
88845.5
89100.1
90766.3
93785
90871.7
86793.4
83008.2
80315.9
42331.2
18084.8
20844.6
66473.3
84573.9
83241.8
78198.4
11585.2
111.883
121.543
111.209
97.9947
83.0175
68.6337
55.609
44.1118
34.1865
25.8
18.842
13.1731
8.65002
5.12907
2.46184
0.503995
-0.884919
-1.82293
-2.41201
-2.73359
-2.85648
-2.83734
-2.71843
-2.54636
-2.36271
-2.19261
-2.05733
-1.92587
-1.79211
-1.67078
-1.4265
-1.04954
-0.724343
-0.491656
-0.253128
0.0977481
0.62783
1.1624
1.26881
0.951609
74212.9
88471.4
89230.2
89176.5
88648.9
74673.6
29552.4
30764.2
93738.2
89304.2
65175.7
16168.7
16283.5
17214.9
19067.8
84537.3
85793.8
82920.7
76377.7
297.446
84.4809
94.1771
89.7077
80.8341
69.7511
58.4099
47.7373
38.0967
29.6388
22.4037
16.344
11.3697
7.37566
4.24741
1.8661
0.112799
-1.12773
-1.95705
-2.46448
-2.7257
-2.80651
-2.75817
-2.62127
-2.43729
-2.2424
-2.0599
-1.90675
-1.77172
-1.64476
-1.51518
-1.31292
-1.02502
-0.743519
-0.50348
-0.253239
0.0719498
0.4957
0.891622
1.01133
0.798662
14433.3
21505
29971.6
26294.4
17749.9
16032.1
17627.6
45774.2
93409.1
92508.7
53055.6
15603.4
15956.4
16578.8
16245.5
90633.6
88125.3
84328.1
71172.4
59.4607
68.125
73.1161
71.5798
65.7127
57.5588
48.7061
40.0497
32.045
24.9164
18.752
13.553
9.26547
5.81329
3.10643
1.04696
-0.464084
-1.52198
-2.21409
-2.61744
-2.80018
-2.82282
-2.73137
-2.5647
-2.3605
-2.14974
-1.95546
-1.78949
-1.64964
-1.52455
-1.39634
-1.22405
-0.994736
-0.754357
-0.523738
-0.277163
0.0204595
0.372477
0.689847
0.821387
0.706908
14419.9
14408.5
14456
14935.5
50900.5
52524.2
17945.6
54420.4
99248.2
70780.4
15042.5
15360.2
15676
15911.3
50135.6
93763.1
91326.3
86938.7
28554.8
31.5017
51.4916
56.4063
56.4699
52.6456
46.6708
39.7911
32.8099
26.2097
20.2481
15.0461
10.6376
6.99911
4.0726
1.78825
0.0627967
-1.18701
-2.04236
-2.578
-2.8606
-2.95098
-2.90274
-2.75772
-2.55263
-2.32135
-2.09103
-1.8834
-1.70691
-1.56112
-1.43536
-1.31118
-1.16134
-0.972482
-0.766905
-0.553156
-0.31893
-0.0470347
0.257497
0.532743
0.683476
0.662844
14416.5
14406.7
14417.1
18705.6
15617.9
14464.2
14502.4
14988.5
19182.4
17056.6
14968.7
15168.4
15422.7
16048.2
88448.4
98249.5
95219.2
90376.6
4163.13
37.063
38.9614
43.3961
43.9967
41.5162
37.1375
31.7954
26.1809
20.7599
15.801
11.4438
7.74254
4.69525
2.25836
0.376154
-1.02144
-2.00797
-2.65386
-3.02386
-3.17659
-3.16553
-3.0385
-2.8337
-2.58504
-2.322
-2.06943
-1.84685
-1.65955
-1.50694
-1.3789
-1.25883
-1.12518
-0.965628
-0.788488
-0.593537
-0.375958
-0.126204
0.14727
0.403057
0.579965
0.647708
14413.3
14405
14491.6
14391.4
14414.1
14433.9
14462.1
14472.5
14520
14657.6
14847.9
15022.5
15194
14747
104908
102914
99540.7
95023.5
33.4033
20.8091
29.1225
32.9716
33.7634
32.1456
28.9173
24.7576
20.2457
15.803
11.6928
8.06294
4.97987
2.45611
0.460789
-1.0524
-2.14292
-2.87653
-3.31762
-3.5223
-3.54383
-3.42886
-3.21941
-2.95318
-2.65874
-2.36143
-2.08558
-1.8466
-1.64739
-1.48687
-1.35559
-1.23778
-1.11554
-0.977769
-0.82305
-0.646975
-0.446925
-0.215618
0.0376311
0.287148
0.494611
0.64361
14409.1
14403.2
14409.9
14395
14407.6
14426.7
14449.6
14473.2
14518.4
14591.1
14741.4
14888.5
14980
21538.2
110418
107973
104138
66746.5
-11.8649
17.1299
21.5286
24.632
25.4001
24.3285
21.9215
18.6655
15.0351
11.3942
7.99267
4.98102
2.42995
0.360493
-1.24666
-2.43169
-3.2448
-3.74589
-3.9952
-4.04344
-3.9398
-3.72354
-3.43435
-3.10816
-2.76808
-2.43685
-2.13758
-1.88099
-1.66882
-1.49911
-1.36341
-1.24635
-1.13173
-1.00915
-0.87272
-0.714251
-0.530279
-0.31517
-0.0749192
0.175937
0.413673
0.634257
14403.7
14408.3
14388.2
14391.5
14401.8
14416.8
14435.4
14460
14500.3
14565.2
14673.2
14784.3
14915.8
86114.4
116215
113241
108965
21575.4
12.2388
11.2185
15.5493
17.9541
18.6087
17.8677
16.0382
13.4724
10.5409
7.55316
4.74053
2.24754
0.146339
-1.53601
-2.80883
-3.70884
-4.27972
-4.57514
-4.65267
-4.55992
-4.34144
-4.0329
-3.67071
-3.28899
-2.90598
-2.54287
-2.2207
-1.94631
-1.72088
-1.54072
-1.39929
-1.28105
-1.17078
-1.05922
-0.937091
-0.794293
-0.624847
-0.423816
-0.192376
0.062326
0.327881
0.608661
14399.3
14389.1
14383.8
14386.9
14395.5
14406.6
14420.5
14442.7
14477.7
14528.6
14607.1
14679.4
14892.4
122836
122006
118618
114320
750.494
7.42654
7.93689
10.9559
12.6392
13.125
12.5748
11.1539
9.10816
6.73066
4.27435
1.94633
-0.11499
-1.83976
-3.19622
-4.18636
-4.84499
-5.21019
-5.33023
-5.26124
-5.04707
-4.72876
-4.33973
-3.91522
-3.48447
-3.06364
-2.67188
-2.32826
-2.03699
-1.79814
-1.60714
-1.45879
-1.33744
-1.22921
-1.12514
-1.01436
-0.885314
-0.728993
-0.540492
-0.316126
-0.0576332
0.230777
0.560128
14403.5
14379.8
14377
14380.5
14389
14397.9
14404.4
14422.1
14477
14485.7
14552
14610.9
14332.4
130746
127871
124030
119432
-3.40108
2.74749
5.02175
7.21298
8.4012
8.72235
8.27523
7.14351
5.49639
3.55722
1.53221
-0.395766
-2.09978
-3.51272
-4.59753
-5.35407
-5.81343
-6.00942
-5.98562
-5.79695
-5.48363
-5.08328
-4.62906
-4.15377
-3.68328
-3.231
-2.81503
-2.45234
-2.14565
-1.89327
-1.6923
-1.53658
-1.41037
-1.30233
-1.2037
-1.10179
-0.984741
-0.840996
-0.664085
-0.447002
-0.186605
0.119098
0.484319
14482
14372.1
14368.7
14373
14579.7
14475.7
14386.8
14473.7
14463.7
14456.3
14483.5
14507.5
90929.1
136678
133782
129575
52263.2
-10.7917
0.412449
2.59562
4.22393
5.02135
5.20256
4.81669
3.89369
2.55351
0.963727
-0.70869
-2.30532
-3.71439
-4.86931
-5.73109
-6.29826
-6.59759
-6.65852
-6.5222
-6.24065
-5.85146
-5.38942
-4.88685
-4.37392
-3.87357
-3.39779
-2.96286
-2.58446
-2.26422
-1.99886
-1.78875
-1.6257
-1.49425
-1.38582
-1.29116
-1.19642
-1.09012
-0.958621
-0.792957
-0.584345
-0.325114
-0.00850691
0.381733
14475.1
14362
14359.1
14410.6
14640
14368.6
14377.4
14428.3
14393.5
14427.9
14433.9
14570.1
141596
143057
139774
135325
8707.48
9.35703
-0.84468
0.78538
1.82645
2.33078
2.40622
2.05809
1.2947
0.195772
-1.11343
-2.49403
-3.81541
-4.98008
-5.92151
-6.60128
-7.01723
-7.19053
-7.14781
-6.9283
-6.57962
-6.13728
-5.63425
-5.10051
-4.56385
-4.04457
-3.55352
-3.10585
-2.716
-2.38448
-2.10819
-1.88962
-1.71944
-1.58387
-1.47496
-1.38321
-1.29542
-1.19881
-1.0793
-0.925392
-0.726738
-0.471778
-0.151284
0.252702
14472.1
14351.5
14349.2
14637.9
14417.5
14365.3
14395.2
14370.6
14378.4
14408.4
14426.9
14179.8
152132
149531
145815
142445
-6.28067
-3.66356
-2.05883
-0.803201
-0.112708
0.185902
0.192409
-0.119809
-0.754855
-1.65888
-2.73575
-3.87333
-4.96442
-5.92438
-6.6887
-7.22059
-7.5172
-7.5938
-7.47551
-7.19875
-6.80681
-6.33329
-5.80846
-5.26027
-4.71355
-4.18685
-3.68883
-3.23509
-2.83879
-2.49946
-2.21474
-1.98936
-1.81297
-1.67439
-1.56517
-1.47611
-1.39517
-1.30787
-1.20016
-1.05884
-0.871836
-0.62468
-0.306386
0.103185
14342
14344.4
14343
14339.6
14331.8
14537.5
14483.1
14349
14362.7
14383.3
14413.3
113467
158763
156038
151861
92281.8
-25.558
-2.73425
-3.16111
-2.19466
-1.72354
-1.52954
-1.54823
-1.81916
-2.34591
-3.08616
-3.96803
-4.90142
-5.79736
-6.58349
-7.19804
-7.60903
-7.81189
-7.81688
-7.64634
-7.33457
-6.92104
-6.43602
-5.907
-5.3595
-4.81606
-4.29303
-3.79676
-3.34386
-2.94631
-2.60304
-2.31357
-2.0832
-1.90252
-1.76188
-1.65276
-1.56662
-1.4921
-1.41362
-1.3182
-1.19017
-1.0162
-0.780211
-0.469274
-0.0624733
14342.1
14341.5
14340.4
14336.2
14329.1
14538.6
14596.9
14331.4
14359.3
14365.5
14300.3
168020
165855
162573
158050
21633.6
2.95151
-5.79931
-4.27349
-3.44112
-3.06299
-2.89639
-2.90511
-3.12581
-3.55449
-4.15673
-4.87435
-5.63238
-6.36039
-6.99597
-7.48364
-7.79541
-7.92346
-7.8759
-7.67163
-7.34335
-6.92638
-6.44645
-5.92849
-5.39572
-4.86777
-4.3584
-3.87252
-3.42752
-3.03443
-2.69153
-2.40083
-2.16804
-1.98532
-1.84356
-1.73488
-1.65188
-1.58316
-1.51283
-1.42927
-1.31459
-1.15503
-0.93336
-0.634098
-0.236233
14345.4
14342.1
14340.2
14336.5
14330.4
14490.2
14582.8
14329.5
14352.8
14363.6
44914.3
175493
172934
169119
165460
-17.6522
-7.39867
-6.49636
-5.16308
-4.48054
-4.14197
-3.96346
-3.9436
-4.10985
-4.45148
-4.93582
-5.51222
-6.11957
-6.70199
-7.20646
-7.58495
-7.8127
-7.87994
-7.79332
-7.5692
-7.23882
-6.83215
-6.37075
-5.87731
-5.37075
-4.86834
-4.38165
-3.91414
-3.48352
-3.10079
-2.76319
-2.47491
-2.24237
-2.05972
-1.9178
-1.80974
-1.72938
-1.66529
-1.60206
-1.5286
-1.42621
-1.28164
-1.07693
-0.794026
-0.412239
14353.1
14345.2
14341.8
14338.6
14334.5
14344.5
14343
14336.9
14339
14374.5
166200
182979
179937
175638
121572
-28.6975
-5.70325
-6.86108
-5.85341
-5.29404
-4.972
-4.77327
-4.72126
-4.83591
-5.09965
-5.48047
-5.93586
-6.41386
-6.86965
-7.25947
-7.54303
-7.69773
-7.71385
-7.5973
-7.36338
-7.04093
-6.65429
-6.22168
-5.76271
-5.29104
-4.82198
-4.36488
-3.92249
-3.51228
-3.14527
-2.81771
-2.53566
-2.30619
-2.12543
-1.98401
-1.87611
-1.79688
-1.73549
-1.67715
-1.61061
-1.51859
-1.38811
-1.20204
-0.941012
-0.582073
14367.1
14351
14344.8
14340.9
14338.3
14339.7
14342.9
14354.9
14353.8
14134.4
193182
190511
186873
182320
27287.9
0.820705
-8.48361
-7.17995
-6.35076
-5.88497
-5.574
-5.36096
-5.28483
-5.35331
-5.54912
-5.84128
-6.19296
-6.56044
-6.90788
-7.19825
-7.39867
-7.48936
-7.46151
-7.32127
-7.08415
-6.77594
-6.41549
-6.01794
-5.59919
-5.16766
-4.73667
-4.31367
-3.90141
-3.51663
-3.16969
-2.85606
-2.58367
-2.36044
-2.1828
-2.04172
-1.93298
-1.85263
-1.7908
-1.73362
-1.66955
-1.58459
-1.4659
-1.29825
-1.06394
-0.737371
14389.1
14359.3
14348.8
14343.7
14342.5
14342
14345
14363.7
14370.6
163214
200813
197828
193749
190299
-19.0482
-8.86204
-8.54474
-7.35219
-6.68943
-6.29274
-5.98824
-5.76869
-5.67489
-5.70493
-5.84231
-6.06013
-6.3249
-6.59983
-6.85717
-7.06314
-7.19218
-7.22677
-7.16159
-7.00316
-6.76716
-6.47662
-6.14528
-5.78488
-5.40698
-5.01568
-4.62357
-4.23619
-3.85645
-3.50047
-3.17662
-2.8799
-2.62032
-2.40584
-2.23221
-2.09057
-1.97942
-1.89527
-1.82861
-1.76745
-1.70042
-1.61713
-1.50574
-1.35398
-1.14885
-0.867285
15796.9
14368.1
14352.9
14346.7
14346.9
14346
14353.1
14358.9
14175.4
211362
208601
205016
200595
119347
-28.1546
-7.99361
-8.52551
-7.48955
-6.92842
-6.56078
-6.2558
-6.03441
-5.92767
-5.92691
-6.01663
-6.17373
-6.36657
-6.56709
-6.7498
-6.8869
-6.95705
-6.94591
-6.85205
-6.6808
-6.44924
-6.17892
-5.87765
-5.55227
-5.21021
-4.85412
-4.49714
-4.14241
-3.79396
-3.46798
-3.16844
-2.89088
-2.64676
-2.44259
-2.27313
-2.13044
-2.01477
-1.92339
-1.8471
-1.776
-1.69976
-1.61083
-1.49985
-1.35834
-1.17928
-0.958718
16169.3
14353.9
14351.1
14349
14349.2
14350.9
14372.3
14375.5
176270
219143
216121
212123
207695
18972.3
-3.43075
-10.0075
-8.53033
-7.5985
-7.08547
-6.7163
-6.4079
-6.18925
-6.07398
-6.05029
-6.10357
-6.21126
-6.34687
-6.48725
-6.61121
-6.69416
-6.71857
-6.67437
-6.56165
-6.38515
-6.17013
-5.93014
-5.65634
-5.35827
-5.04309
-4.71436
-4.38491
-4.05573
-3.73287
-3.43215
-3.15331
-2.89302
-2.66353
-2.46902
-2.30325
-2.15932
-2.0374
-1.93551
-1.84532
-1.75863
-1.66692
-1.56439
-1.44506
-1.30404
-1.13798
-0.975859
16283.9
14754.1
14337
14347.8
14351.5
14359.1
14372.8
15571.3
229680
227023
223443
219181
216831
-16.7714
-10.1662
-9.92922
-8.4533
-7.63625
-7.15126
-6.77533
-6.46939
-6.25752
-6.13879
-6.09955
-6.12473
-6.19551
-6.28655
-6.37954
-6.45798
-6.5
-6.4921
-6.42805
-6.30715
-6.1432
-5.94438
-5.71733
-5.46501
-5.19312
-4.90461
-4.60375
-4.30115
-3.99622
-3.69647
-3.41609
-3.15233
-2.90324
-2.68098
-2.48911
-2.32142
-2.17277
-2.04318
-1.93086
-1.82805
-1.72725
-1.62192
-1.50769
-1.38128
-1.24111
-1.08659
-0.939348
14907.6
14302.4
14324.9
14342.5
14352.3
14373.1
14374.5
214590
237696
234597
230653
226324
70138.7
-14.2127
-9.70185
-9.25417
-8.20132
-7.56528
-7.11923
-6.74982
-6.45933
-6.25988
-6.14331
-6.09446
-6.1006
-6.14329
-6.19958
-6.25654
-6.30013
-6.31177
-6.28324
-6.2067
-6.07651
-5.91209
-5.7242
-5.51332
-5.28152
-5.03251
-4.76774
-4.49245
-4.21454
-3.93273
-3.65552
-3.39487
-3.14676
-2.91046
-2.69657
-2.50866
-2.3405
-2.18842
-2.05351
-1.93401
-1.82341
-1.71523
-1.60501
-1.49039
-1.36937
-1.24241
-1.11142
-0.993911
14331.7
14308.3
14320.5
14337.2
14347.9
14391
96686.6
248183
245565
241938
237816
234584
2.80838
-11.611
-10.5053
-8.88822
-7.97962
-7.4271
-7.0107
-6.66366
-6.39702
-6.2155
-6.10498
-6.05222
-6.04587
-6.0661
-6.09574
-6.12562
-6.14251
-6.13271
-6.08992
-5.98778
-5.85056
-5.69104
-5.51367
-5.31734
-5.10324
-4.87373
-4.63034
-4.37774
-4.12156
-3.86093
-3.60412
-3.36081
-3.12692
-2.90312
-2.69815
-2.51538
-2.34847
-2.19504
-2.05759
-1.93393
-1.81906
-1.70773
-1.59637
-1.48475
-1.37117
-1.25679
-1.14566
-1.05097
14307.2
14313.2
14314.9
14330.6
14354.5
15318.3
258635
256294
253052
249188
245098
128618
-22.0766
-10.9752
-9.92843
-8.5285
-7.74315
-7.24041
-6.84851
-6.53256
-6.2979
-6.13778
-6.03628
-5.98386
-5.96761
-5.9707
-5.98127
-5.99178
-5.98817
-5.9629
-5.89351
-5.77252
-5.63402
-5.47993
-5.31216
-5.12865
-4.92943
-4.71673
-4.49241
-4.25967
-4.0227
-3.78188
-3.5436
-3.31559
-3.09496
-2.8831
-2.68718
-2.51021
-2.34624
-2.19377
-2.05579
-1.93004
-1.81316
-1.70091
-1.59015
-1.48242
-1.37629
-1.27278
-1.17717
-1.09912
14294.2
14300.6
14333
14342.2
14302.1
261184
266814
263918
260290
256504
253396
3395.16
-4.50314
-10.5208
-9.09945
-8.10384
-7.46096
-7.00879
-6.65044
-6.37177
-6.17223
-6.03436
-5.94477
-5.89466
-5.87174
-5.86259
-5.8598
-5.85519
-5.83609
-5.79411
-5.68977
-5.56368
-5.42654
-5.27752
-5.11835
-4.9462
-4.75978
-4.56176
-4.35409
-4.13859
-3.91878
-3.69607
-3.47436
-3.26045
-3.05291
-2.85254
-2.6655
-2.49443
-2.33448
-2.18485
-2.04781
-1.92199
-1.80505
-1.69312
-1.58422
-1.48075
-1.3817
-1.2877
-1.2039
-1.13766
14274.8
14332.7
14314.6
14281.5
255462
277226
274526
271155
267620
264046
161986
-28.8348
-9.7837
-9.81162
-8.5291
-7.71145
-7.16113
-6.75027
-6.43028
-6.19307
-6.02762
-5.9125
-5.83669
-5.79057
-5.76335
-5.74499
-5.73164
-5.7158
-5.68613
-5.60731
-5.48976
-5.36125
-5.22662
-5.08256
-4.93104
-4.76829
-4.59312
-4.40881
-4.21559
-4.01512
-3.811
-3.60421
-3.39716
-3.19643
-3.00164
-2.8126
-2.63441
-2.46937
-2.31397
-2.16819
-2.03335
-1.90925
-1.79361
-1.68292
-1.57712
-1.47802
-1.38516
-1.29942
-1.22459
-1.16713
14250.9
14287.2
14287
270359
287441
284890
281769
278492
275232
272872
1078.35
-11.3789
-11.5852
-9.38403
-8.13522
-7.37323
-6.85845
-6.47779
-6.19687
-5.99884
-5.86485
-5.77322
-5.71245
-5.67197
-5.64271
-5.61792
-5.59723
-5.57389
-5.52478
-5.41546
-5.29268
-5.16519
-5.03327
-4.89387
-4.74875
-4.59383
-4.4292
-4.25712
-4.07641
-3.88967
-3.70003
-3.50682
-3.31292
-3.12477
-2.9419
-2.76373
-2.59439
-2.4358
-2.28542
-2.14414
-2.01277
-1.89138
-1.77769
-1.66924
-1.56747
-1.47276
-1.38529
-1.30659
-1.23879
-1.18791
74235.7
53946.5
299320
297733
295206
292319
289340
286384
283308
114643
-17.5606
-13.172
-10.8545
-8.98559
-7.85787
-7.13552
-6.63382
-6.27397
-6.02012
-5.84963
-5.73603
-5.65884
-5.6053
-5.56384
-5.52752
-5.49277
-5.46094
-5.42615
-5.33794
-5.22136
-5.09861
-4.97311
-4.84418
-4.71
-4.57062
-4.42271
-4.26749
-4.10598
-3.93696
-3.76252
-3.58534
-3.40382
-3.22242
-3.04681
-2.87481
-2.70657
-2.54589
-2.3942
-2.24953
-2.11322
-1.98614
-1.86789
-1.75665
-1.65144
-1.55388
-1.46364
-1.38139
-1.30859
-1.2464
-1.2007
421381
421569
421538
421485
421407
421300
421156
420964
420712
420386
419968
419412
418640
417556
416046
413947
410987
406645
399638
387262
420997
421172
421137
421078
420992
420874
420716
420506
420232
419879
419431
418842
418032
416892
415285
413008
409712
404722
396618
382804
420640
420800
420762
420699
420606
420480
420312
420090
419802
419434
418970
418371
417563
416438
414858
412626
409437
404794
397931
387992
420311
420456
420416
420349
420253
420121
419947
419718
419424
419052
418587
418001
417230
416179
414722
412694
409864
405916
400464
393220
420011
420141
420100
420031
419933
419799
419622
419392
419099
418733
418281
417723
417012
416069
414787
413032
410641
407420
403185
397863
419741
419856
419814
419746
419647
419514
419338
419113
418827
418475
418045
417525
416882
416053
414951
413470
411495
408906
405608
401593
419500
419600
419560
419493
419397
419266
419095
418877
418606
418273
417868
417385
416803
416071
415121
413874
412244
410153
407544
404420
419287
419375
419337
419273
419180
419054
418891
418686
418431
418116
417732
417277
416736
416074
415240
414172
412806
411085
408969
406460
419100
419178
419144
419086
418997
418878
418724
418529
418283
417977
417608
417173
416664
416054
415304
414367
413193
411739
409975
407899
418932
419006
418981
418929
418846
418730
418578
418383
418139
417841
417486
417072
416589
416019
415331
414490
413457
412195
410685
408928
418765
418856
418852
418810
418721
418595
418437
418243
418006
417720
417381
416983
416521
415979
415337
414567
413638
412517
411195
409685
418555
418735
418775
418714
418601
418463
418305
418118
417892
417619
417293
416906
416455
415930
415314
414590
413743
412717
411436
410071
100028
418608
418763
418655
418494
418338
418192
418028
417816
417523
416096
413138
408476
401632
392122
378836
360548
335490
293313
229509
4.55044
258.811
-1.88078
-1.45917
-0.92383
-0.996232
-1.4394
-2.20367
-2.96566
-3.59101
-4.67799
-5.82537
-7.15305
-8.69536
-10.4095
-11.9621
-11.5094
1.07679
7.05939
6.09429
-0.897234
-1.3179
-0.211201
0.117263
0.319515
0.360081
0.286731
0.141884
-0.0119073
-0.157654
-0.349251
-0.560162
-0.788151
-1.03619
-1.29271
-1.50151
-1.43117
-0.996771
-2.08392
-2.71209
-0.547424
-0.456092
-0.026499
0.184757
0.299858
0.34973
0.344223
0.292496
0.209202
0.102084
-0.0332705
-0.193355
-0.37582
-0.578133
-0.791568
-0.991547
-1.12393
-1.17851
-1.45115
-1.79579
-0.482994
-0.379016
-0.18186
-0.0318132
0.0666261
0.118046
0.127538
0.101068
0.0457676
-0.0335155
-0.135242
-0.257121
-0.396272
-0.548439
-0.706338
-0.858765
-0.993305
-1.12244
-1.303
-1.50887
-0.543711
-0.333861
-0.230416
-0.143406
-0.0781687
-0.0403768
-0.0302874
-0.04575
-0.0837317
-0.141727
-0.217696
-0.309562
-0.415171
-0.531501
-0.654433
-0.779398
-0.902953
-1.02879
-1.16847
-1.3176
-0.614212
-0.367154
-0.268884
-0.218462
-0.18051
-0.15911
-0.155114
-0.167973
-0.196804
-0.240749
-0.29857
-0.36873
-0.449752
-0.540067
-0.637929
-0.741585
-0.849679
-0.962416
-1.08117
-1.20397
-0.672804
-0.41555
-0.313616
-0.281885
-0.263507
-0.255591
-0.258252
-0.271687
-0.296239
-0.331875
-0.378043
-0.433984
-0.498879
-0.572021
-0.652819
-0.740624
-0.834771
-0.934528
-1.03886
-1.146
-0.708016
-0.464234
-0.368553
-0.347844
-0.343101
-0.344138
-0.351364
-0.365744
-0.388071
-0.418555
-0.457235
-0.50407
-0.558745
-0.620873
-0.690219
-0.766616
-0.849667
-0.938455
-1.03163
-1.1276
-0.695054
-0.503105
-0.435919
-0.424505
-0.427475
-0.433134
-0.44249
-0.456949
-0.477297
-0.503967
-0.537576
-0.578431
-0.626325
-0.681064
-0.742637
-0.810912
-0.88548
-0.965621
-1.05014
-1.13767
-0.622523
-0.538423
-0.5137
-0.511931
-0.517323
-0.524818
-0.534696
-0.54839
-0.566811
-0.590704
-0.620865
-0.657618
-0.700764
-0.750366
-0.806577
-0.86899
-0.937135
-1.0106
-1.08831
-1.1691
-0.489161
-0.573784
-0.58853
-0.59851
-0.607324
-0.616316
-0.626774
-0.640166
-0.6576
-0.679975
-0.707976
-0.741892
-0.781771
-0.827822
-0.880097
-0.938089
-1.00136
-1.06953
-1.14163
-1.21675
339696
335136
336529
342165
350086
358090
364646
369103
371466
371999
370944
368374
364024
356829
343219
356749
340283
337511
341524
348677
356092
362221
366425
368673
369164
368081
365453
361057
354303
344355
373680
357865
350080
349708
353597
358807
363387
366566
368187
368333
367098
364486
360376
354570
347036
384321
374186
366764
363421
363374
365104
367149
368649
369245
368812
367308
364688
360897
355929
349963
391573
384589
378696
374729
372704
372036
371968
371885
371399
370289
368429
365747
362217
357891
352959
396903
391641
386825
382937
380116
378179
376776
375538
374169
372458
370265
367507
364164
360287
356016
400778
396600
392539
388899
385823
383286
381138
379177
377206
375060
372616
369796
366568
362938
358940
403530
400100
396618
393286
390231
387484
384990
382645
380327
377922
375323
372421
369134
365769
334462
405475
402597
399589
396592
393709
390984
388403
385916
383439
380864
378082
375453
332471
60139.2
-13.172
406882
404434
401829
399179
396542
393973
391417
388856
386348
384434
305367
20321.6
-10.2644
3.32572
-3.41004
407938
405832
403538
401198
398711
396441
394415
366797
188540
-67.6689
1.67131
1.07581
-2.84544
-4.37327
-4.26306
408586
406888
405057
397224
336209
178030
-63.2532
-5.7384
1.56089
-0.280848
-4.05834
-4.56011
-3.91174
-3.65933
-3.6517
151775
68023.2
-52.7863
-35.4383
-5.55789
4.23017
-0.120665
-3.00485
-4.5723
-3.79682
-3.4844
-3.46867
-3.35754
-3.31226
-3.31338
5.15914
4.22849
0.0629558
-3.34637
-2.68318
-3.93859
-3.38259
-3.2656
-3.22076
-3.09498
-3.05636
-3.05639
-3.03662
-3.03424
-3.05381
-3.20991
-3.08363
-2.68652
-2.9963
-2.8411
-2.81482
-2.75696
-2.77962
-2.79064
-2.77864
-2.77678
-2.78999
-2.80647
-2.83081
-2.86485
-2.07671
-2.18909
-2.21507
-2.36034
-2.41439
-2.45336
-2.47148
-2.4972
-2.52265
-2.54739
-2.57577
-2.60903
-2.6448
-2.68358
-2.72639
-1.69983
-1.8421
-1.94218
-2.04749
-2.12726
-2.18928
-2.24032
-2.2891
-2.33678
-2.38396
-2.43134
-2.4791
-2.52687
-2.57438
-2.62243
-1.46561
-1.60386
-1.72124
-1.82776
-1.91991
-1.99973
-2.0715
-2.13903
-2.20362
-2.26553
-2.32507
-2.38254
-2.43787
-2.49079
-2.54208
-1.32908
-1.45642
-1.57356
-1.68145
-1.77965
-1.86958
-1.95361
-2.03311
-2.10825
-2.17903
-2.2459
-2.30936
-2.36914
-2.42511
-2.47812
-1.25653
-1.37341
-1.4857
-1.59214
-1.69207
-1.78631
-1.87599
-1.96146
-2.04198
-2.11701
-2.18732
-2.2535
-2.31516
-2.37204