/*--------------------------------*- C++ -*----------------------------------*\
| =========                 |                                                 |
| \\      /  F ield         | OpenFOAM: The Open Source CFD Toolbox           |
|  \\    /   O peration     | Version:  v1912                                 |
|   \\  /    A nd           | Website:  www.openfoam.com                      |
|    \\/     M anipulation  |                                                 |
\*---------------------------------------------------------------------------*/
FoamFile
{
    version     2.0;
    format      ascii;
    class       surfaceScalarField;
    location    "16";
    object      phi;
}
// * * * * * * * * * * * * * * * * * * * * * * * * * * * * * * * * * * * * * //

dimensions      [0 3 -1 0 0 0 0];
oriented        oriented;


internalField   nonuniform List<scalar> 
40282
(
0.00282744
0.0025832
1.94216
-1.94888
1.94347
0.00541073
-1.93479
1.92296
0.0118329
-1.90818
1.89081
0.0173674
-1.87068
1.84767
0.0230117
-1.82216
1.7942
0.0279555
-1.76365
1.7307
0.032947
-1.69558
1.6583
0.0372836
-1.61889
1.57753
0.0413612
-1.53431
1.4893
0.0450052
-1.44264
1.39453
0.0481132
-1.34519
1.29471
0.0504767
-1.24328
1.19138
0.0519019
-1.13942
1.08753
0.0518957
-1.03598
0.985285
0.0506911
-0.93435
0.879623
0.0547266
-0.816507
0.739688
0.0768191
-0.645127
0.531363
0.113765
-0.396059
0.245492
0.150568
-0.108045
0.016241
0.0918035
-0.00413089
0.00547775
1.87645
-1.87208
1.86532
-0.0137262
0.0204915
-1.8559
1.84382
-0.0248662
0.0369433
-1.82908
1.81167
-0.035633
0.0530477
-1.79168
1.7692
-0.0461547
0.0686405
-1.74418
1.71673
-0.0561554
0.0836061
-1.68694
1.65479
-0.0657313
0.0978826
-1.62037
1.5838
-0.0747081
0.111273
-1.54508
1.50433
-0.0829242
0.123681
-1.46168
1.41709
-0.0904061
0.134989
-1.37073
1.32278
-0.0970383
0.144988
-1.2731
1.22186
-0.102349
0.153594
-1.16955
1.11611
-0.106302
0.159738
-1.06147
1.00582
-0.107615
0.163262
-0.948011
0.885376
-0.109261
0.171896
-0.816151
0.740855
-0.122879
0.198174
-0.66138
0.579894
-0.15785
0.239335
-0.498257
0.417989
-0.204683
0.284952
-0.340722
0.265736
-0.235843
0.310829
-0.187328
0.0996837
-0.190276
0.27792
-0.00686535
0.00819801
1.80919
-1.80509
1.79841
-0.027479
0.0341591
-1.78914
1.7773
-0.0492452
0.0610918
-1.7629
1.74598
-0.0705904
0.0875065
-1.72655
1.70464
-0.0912882
0.113199
-1.6803
1.65355
-0.111183
0.137935
-1.62445
1.59308
-0.130215
0.161586
-1.55944
1.5236
-0.148103
0.183948
-1.48566
1.44565
-0.164719
0.204734
-1.4036
1.35971
-0.180003
0.223892
-1.31399
1.26643
-0.193534
0.241091
-1.21737
1.16693
-0.205216
0.255655
-1.11492
1.06142
-0.213997
0.2675
-1.00583
0.946281
-0.221696
0.281241
-0.88153
0.81201
-0.24077
0.31029
-0.739074
0.664168
-0.27583
0.350735
-0.588604
0.513554
-0.319185
0.394235
-0.439999
0.368535
-0.361256
0.43272
-0.299004
0.230052
-0.383211
0.452164
-0.159118
0.0833005
-0.360128
0.435945
-0.00947205
0.010737
1.74441
-1.7406
1.73425
-0.0407641
0.047109
-1.72538
1.71401
-0.0729223
0.0842857
-1.70017
1.68384
-0.104427
0.120755
-1.66507
1.6439
-0.135135
0.156306
-1.62033
1.59441
-0.164786
0.190704
-1.5662
1.53566
-0.19313
0.223666
-1.50287
1.46792
-0.220061
0.255004
-1.43081
1.39156
-0.245166
0.284417
-1.35033
1.30712
-0.268277
0.311495
-1.26193
1.2151
-0.289283
0.336115
-1.16667
1.11646
-0.306957
0.35717
-1.06451
1.01013
-0.322335
0.376719
-0.951776
0.888929
-0.343952
0.406799
-0.822462
0.753659
-0.381195
0.449998
-0.683616
0.61318
-0.424793
0.495229
-0.543039
0.473747
-0.467507
0.536799
-0.405679
0.338921
-0.502838
0.569596
-0.273145
0.207558
-0.520571
0.586158
-0.141003
0.0722052
-0.509114
0.577911
-0.011951
0.0131589
1.68192
-1.67828
1.67222
-0.0534412
0.0595084
-1.66375
1.65288
-0.09561
0.106486
-1.63959
1.62395
-0.137061
0.152701
-1.60597
1.58563
-0.177456
0.197796
-1.56298
1.53804
-0.216607
0.241544
-1.5108
1.48131
-0.254274
0.283758
-1.44967
1.41582
-0.290041
0.323893
-1.37978
1.3417
-0.323818
0.361898
-1.30156
1.25936
-0.355048
0.397245
-1.21539
1.16969
-0.383275
0.428978
-1.12206
1.07261
-0.40803
0.457479
-1.02077
0.965181
-0.432738
0.488329
-0.905463
0.842536
-0.471157
0.534083
-0.777613
0.711633
-0.518715
0.584695
-0.64525
0.57894
-0.564753
0.631062
-0.513067
0.44789
-0.605085
0.670263
-0.383534
0.319957
-0.635815
0.699392
-0.256911
0.193956
-0.65151
0.714465
-0.130517
0.0659922
-0.645531
0.710056
-0.014312
0.0154474
1.6218
-1.61818
1.61246
-0.0655156
0.0712431
-1.60443
1.59411
-0.117298
0.127615
-1.58155
1.56673
-0.168219
0.18304
-1.54961
1.53025
-0.218039
0.237399
-1.50868
1.48487
-0.266396
0.29021
-1.45885
1.43068
-0.313139
0.341305
-1.40031
1.36774
-0.357762
0.390337
-1.33311
1.29643
-0.399984
0.436662
-1.25764
1.21696
-0.439507
0.480184
-1.17449
1.13004
-0.474947
0.5194
-1.0837
1.03514
-0.507357
0.555916
-0.983136
0.927149
-0.545279
0.601265
-0.867964
0.806732
-0.597419
0.65865
-0.744347
0.681393
-0.650315
0.713269
-0.618266
0.555251
-0.696806
0.759821
-0.492555
0.430309
-0.735018
0.797264
-0.368559
0.307249
-0.762876
0.824186
-0.246222
0.185229
-0.777464
0.838457
-0.123968
0.0621578
-0.774186
0.835997
-0.0165199
0.0175675
1.56351
-1.56046
1.55509
-0.0768997
0.082265
-1.54759
1.53798
-0.137777
0.147391
-1.52622
1.51228
-0.197701
0.211636
-1.49622
1.47805
-0.256532
0.274695
-1.45774
1.43527
-0.31381
0.336278
-1.41071
1.38401
-0.369268
0.395968
-1.35514
1.32421
-0.422715
0.453638
-1.29127
1.25619
-0.473231
0.508311
-1.21911
1.18022
-0.520744
0.559637
-1.13935
1.09651
-0.563922
0.606761
-1.05163
1.00368
-0.605031
0.652981
-0.951838
0.896583
-0.658025
0.71328
-0.839
0.779999
-0.719892
0.778893
-0.720168
0.659883
-0.775966
0.836251
-0.599402
0.538913
-0.82262
0.883108
-0.478553
0.418403
-0.859489
0.919639
-0.358489
0.298779
-0.885704
0.945415
-0.239179
0.179549
-0.899716
0.959345
-0.119728
0.0596317
-0.897826
0.957922
-0.0185517
0.0195065
1.50766
-1.50486
1.49994
-0.0875135
0.0924333
-1.49307
1.48422
-0.156799
0.165654
-1.47334
1.46049
-0.225304
0.238154
-1.4457
1.42888
-0.29252
0.309338
-1.41
1.38911
-0.358384
0.379274
-1.3662
1.3412
-0.422328
0.447326
-1.31417
1.28517
-0.484167
0.513165
-1.25408
1.22091
-0.543107
0.57628
-1.18588
1.14892
-0.598291
0.635244
-1.10992
1.06895
-0.649455
0.690425
-1.02535
0.978063
-0.701497
0.748789
-0.927076
0.873318
-0.76884
0.822598
-0.817738
0.760977
-0.837809
0.89457
-0.703431
0.645362
-0.896446
0.954515
-0.586958
0.528362
-0.943656
1.00225
-0.46968
0.410983
-0.980052
1.03875
-0.352303
0.293633
-1.00556
1.06423
-0.234932
0.176124
-1.01939
1.0782
-0.117125
0.058
-1.01824
1.07736
-0.0203942
0.0212428
1.45371
-1.45102
1.44661
-0.0971869
0.101591
-1.44042
1.43242
-0.174258
0.182265
-1.42262
1.41106
-0.250604
0.262169
-1.39765
1.38232
-0.325731
0.341058
-1.36512
1.34605
-0.399648
0.418709
-1.32504
1.30206
-0.471797
0.49478
-1.27717
1.25028
-0.541643
0.56853
-1.22131
1.19042
-0.608949
0.639838
-1.15768
1.1229
-0.671821
0.706609
-1.08608
1.047
-0.731183
0.770257
-1.00465
0.958437
-0.796454
0.842665
-0.908933
0.857073
-0.876401
0.92826
-0.80358
0.748903
-0.951282
1.00596
-0.693327
0.637053
-1.01268
1.06895
-0.580235
0.523001
-1.06116
1.11839
-0.465448
0.407655
-1.09797
1.15576
-0.34967
0.291519
-1.12356
1.18171
-0.233199
0.174682
-1.13759
1.1961
-0.115933
0.0571631
-1.13686
1.19563
-0.0220169
0.0227407
1.40184
-1.39948
1.39563
-0.1058
0.109651
-1.3902
1.3832
-0.189929
0.196933
-1.37464
1.36446
-0.27325
0.283427
-1.35257
1.33897
-0.355822
0.369419
-1.32371
1.3067
-0.437104
0.454112
-1.28784
1.26716
-0.517051
0.537736
-1.24463
1.22011
-0.594747
0.619269
-1.19363
1.16536
-0.670007
0.698281
-1.13514
1.10281
-0.740836
0.773162
-1.06839
1.03122
-0.809092
0.846255
-0.990359
0.945756
-0.888969
0.933572
-0.898173
0.848392
-0.980027
1.02981
-0.796937
0.744137
-1.06066
1.11346
-0.690211
0.635331
-1.1255
1.18038
-0.579637
0.523255
-1.17617
1.23256
-0.466291
0.408839
-1.21435
1.2718
-0.350974
0.292756
-1.24078
1.299
-0.234223
0.175385
-1.25541
1.31425
-0.116255
0.0572585
-1.25503
1.31403
-0.0233847
0.0239704
1.35167
-1.34968
1.34644
-0.113273
0.116517
-1.34187
1.33601
-0.2035
0.209365
-1.32879
1.32011
-0.293047
0.301726
-1.30995
1.29835
-0.38228
0.393876
-1.28527
1.27053
-0.470307
0.485043
-1.2541
1.236
-0.557524
0.575625
-1.21611
1.19433
-0.6429
0.664683
-1.17076
1.14541
-0.725633
0.750987
-1.118
1.08849
-0.804709
0.834224
-1.05667
1.02165
-0.883056
0.918073
-0.982772
0.940323
-0.977964
1.02041
-0.895025
0.84747
-1.07939
1.12694
-0.798036
0.746969
-1.16633
1.2174
-0.694453
0.64064
-1.23569
1.2895
-0.585671
0.529676
-1.28971
1.34571
-0.472777
0.415093
-1.33033
1.38801
-0.356733
0.297798
-1.35847
1.4174
-0.238374
0.178518
-1.37418
1.43403
-0.118312
0.0586151
-1.37425
1.43395
-0.0244749
0.0249158
1.30338
-1.3016
1.29904
-0.119487
0.122055
-1.29544
1.2908
-0.214726
0.219374
-1.28499
1.27798
-0.30974
0.316752
-1.26979
1.26041
-0.404583
0.413969
-1.24967
1.23744
-0.498806
0.511029
-1.22375
1.20854
-0.59263
0.607843
-1.19164
1.17301
-0.685314
0.703939
-1.15274
1.13063
-0.775204
0.797307
-1.10645
1.08014
-0.862713
0.889024
-1.05125
1.01886
-0.952476
0.984867
-0.9826
0.942868
-1.06233
1.10207
-0.900234
0.855117
-1.17417
1.21929
-0.807779
0.758407
-1.26855
1.31792
-0.707154
0.654162
-1.34387
1.39686
-0.599568
0.543513
-1.40271
1.45877
-0.486138
0.427592
-1.4471
1.50564
-0.368026
0.307597
-1.478
1.53843
-0.246453
0.184729
-1.49545
1.55717
-0.122648
0.0619772
-1.49636
1.55703
-0.0252759
0.0255677
1.25698
-1.25563
1.25379
-0.124303
0.126136
-1.25123
1.24784
-0.223469
0.22685
-1.24357
1.2384
-0.322976
0.328143
-1.23236
1.22532
-0.422348
0.429384
-1.21711
1.20766
-0.5221
0.531546
-1.197
1.18498
-0.621748
0.633761
-1.17145
1.15639
-0.721145
0.736204
-1.13978
1.12133
-0.818017
0.836463
-1.10085
1.07821
-0.914023
0.936661
-1.05277
1.02369
-1.01627
1.04535
-0.990795
0.954421
-1.14091
1.17729
-0.914948
0.872631
-1.26388
1.30619
-0.827634
0.780083
-1.36731
1.41486
-0.730097
0.677796
-1.45048
1.50278
-0.623308
0.566777
-1.51606
1.57259
-0.50836
0.448238
-1.56598
1.6261
-0.386614
0.323713
-1.60109
1.66399
-0.259783
0.195085
-1.62123
1.68593
-0.130139
0.0683806
-1.62375
1.6855
-0.0257797
0.0259195
1.2119
-1.21118
1.21011
-0.127614
0.12868
-1.20859
1.20652
-0.22963
0.231698
-1.20388
1.20068
-0.332415
0.335611
-1.19688
1.1923
-0.435315
0.439898
-1.18679
1.18038
-0.539654
0.546068
-1.17302
1.16451
-0.644249
0.65276
-1.1547
1.1436
-0.749576
0.760679
-1.13106
1.11677
-0.853204
0.867496
-1.10056
1.08218
-0.957635
0.97601
-1.06091
1.03603
-1.07295
1.09783
-1.00741
0.97524
-1.21232
1.2445
-0.939676
0.900817
-1.34764
1.3865
-0.858718
0.81343
-1.46223
1.50751
-0.765012
0.71354
-1.55567
1.60714
-0.65911
0.601843
-1.63053
1.6878
-0.541896
0.47947
-1.68844
1.75087
-0.414819
0.348258
-1.72984
1.79641
-0.280172
0.211035
-1.75415
1.82329
-0.141883
0.0789344
-1.75952
1.82247
-0.0259818
0.0259696
1.16869
-1.16843
1.16813
-0.129373
0.129673
-1.16765
1.16693
-0.233122
0.233846
-1.16597
1.16479
-0.337842
0.339024
-1.16326
1.16121
-0.443284
0.445337
-1.15857
1.15538
-0.550979
0.554174
-1.15151
1.14675
-0.659547
0.664308
-1.14099
1.13419
-0.769834
0.776627
-1.12615
1.11655
-0.879735
0.889343
-1.1052
1.09179
-0.992295
1.00571
-1.07557
1.05594
-1.12064
1.14026
-1.03271
1.00583
-1.27473
1.3016
-0.975253
0.940896
-1.42395
1.45831
-0.90268
0.860545
-1.55218
1.59432
-0.814451
0.764382
-1.65896
1.70903
-0.710349
0.652403
-1.74651
1.80446
-0.590647
0.525262
-1.81593
1.88132
-0.456525
0.384843
-1.86684
1.93853
-0.310787
0.235159
-1.89772
1.97335
-0.159819
0.0954849
-1.90808
1.97241
-0.0258843
0.0257252
1.12698
-1.12698
1.12742
-0.129596
0.129156
-1.12796
1.12858
-0.233899
0.233287
-1.1293
1.13009
-0.339211
0.338413
-1.13081
1.13132
-0.446123
0.445617
-1.13162
1.13173
-0.55575
0.555644
-1.13147
1.13062
-0.667179
0.668027
-1.12912
1.12693
-0.781235
0.78343
-1.12377
1.11934
-0.896548
0.900973
-1.11347
1.10577
-1.01656
1.02426
-1.09558
1.08238
-1.15714
1.17034
-1.06583
1.04565
-1.32577
1.34595
-1.02155
0.993261
-1.49045
1.51874
-0.960521
0.923113
-1.63508
1.67249
-0.880842
0.833525
-1.75886
1.80618
-0.781005
0.72316
-1.86361
1.92146
-0.659931
0.591363
-1.94965
2.01821
-0.517655
0.439246
-2.01522
2.09363
-0.356896
0.271857
-2.05692
2.14196
-0.187229
0.121445
-2.07561
2.14139
-0.0255001
0.0252047
1.08675
-1.08737
1.0885
-0.128349
0.127218
-1.09002
1.09191
-0.232001
0.230109
-1.09422
1.09689
-0.336629
0.333957
-1.09977
1.10278
-0.443811
0.440797
-1.10598
1.10934
-0.553864
0.550504
-1.11267
1.11577
-0.666873
0.663767
-1.11864
1.12121
-0.783253
0.780688
-1.1232
1.12433
-0.902685
0.901547
-1.12443
1.12314
-1.02893
1.03022
-1.11993
1.11433
-1.18007
1.18567
-1.10587
1.09403
-1.36247
1.37431
-1.0783
1.05816
-1.54371
1.56384
-1.03319
1.00295
-1.70732
1.73756
-0.967022
0.924989
-1.85211
1.89415
-0.8764
0.820806
-1.97966
2.03525
-0.757786
0.687006
-2.08957
2.16035
-0.608317
0.521919
-2.17826
2.26466
-0.428586
0.330052
-2.2388
2.33734
-0.231327
0.163576
-2.27314
2.34089
-0.0248533
0.0244377
1.04783
-1.04883
1.05059
-0.12574
0.123987
-1.05298
1.05604
-0.227571
0.224512
-1.0598
1.06418
-0.33034
0.325958
-1.06906
1.07443
-0.436502
0.431134
-1.08036
1.08679
-0.545485
0.539051
-1.09354
1.10048
-0.658624
0.651682
-1.10763
1.11494
-0.775647
0.768345
-1.12214
1.12901
-0.897473
0.890605
-1.13537
1.14098
-1.02807
1.02246
-1.14549
1.1485
-1.1871
1.18409
-1.14946
1.14768
-1.38146
1.38324
-1.14242
1.13298
-1.57924
1.58867
-1.11875
1.09908
-1.76347
1.78313
-1.07334
1.0408
-1.93279
1.96533
-1.00064
0.951928
-2.0892
2.13791
-0.893627
0.824634
-2.23253
2.30152
-0.743901
0.650677
-2.3578
2.45103
-0.54493
0.428214
-2.45306
2.56978
-0.307924
0.234499
-2.5193
2.59272
-0.0239774
0.0234612
1.01039
-1.01191
1.0142
-0.121917
0.119628
-1.01736
1.02143
-0.220859
0.216786
-1.02645
1.03232
-0.320705
0.314829
-1.03898
1.04645
-0.424557
0.417085
-1.05482
1.06402
-0.531045
0.521846
-1.07389
1.08438
-0.642758
0.63227
-1.09553
1.10732
-0.758577
0.746791
-1.11954
1.13201
-0.880719
0.868247
-1.14462
1.15724
-1.01316
1.00053
-1.16978
1.18198
-1.17638
1.16418
-1.1933
1.20294
-1.37938
1.36973
-1.21008
1.21388
-1.59184
1.58803
-1.21362
1.20854
-1.79626
1.80134
-1.19786
1.18068
-1.99149
2.00867
-1.15589
1.12212
-2.18122
2.21499
-1.07764
1.02032
-2.36786
2.42519
-0.947592
0.856598
-2.5486
2.63959
-0.744476
0.609714
-2.70925
2.84402
-0.459972
0.368598
-2.84915
2.94053
-0.0229126
0.0223174
0.974429
-0.976033
0.978761
-0.11706
0.114332
-0.982553
0.987456
-0.212192
0.207289
-0.993493
1.00061
-0.308181
0.301068
-1.00875
1.01799
-0.408529
0.399288
-1.02841
1.03995
-0.511226
0.499682
-1.05251
1.06608
-0.619953
0.606382
-1.08075
1.09651
-0.732685
0.71692
-1.11326
1.13085
-0.852854
0.835256
-1.14926
1.16852
-0.984215
0.96495
-1.18879
1.21004
-1.14708
1.12583
-1.23187
1.25353
-1.35379
1.33213
-1.27418
1.29301
-1.57665
1.55782
-1.30932
1.32243
-1.79763
1.78452
-1.33168
1.33629
-2.01584
2.01122
-1.33532
1.3275
-2.23768
2.2455
-1.31109
1.28367
-2.4714
2.49883
-1.24184
1.18089
-2.72421
2.78516
-1.09401
0.972174
-2.99763
3.11947
-0.812872
0.721688
-3.319
3.41018
0.130617
-0.192814
0.0621972
-0.11432
0.0433711
0.0709487
0.0542372
-0.150451
0.096214
0.228442
-0.22555
-0.00289239
0.136683
-0.0518147
-0.0848685
-0.008664
0.0346164
-0.0259523
-0.0386877
0.0273566
0.0113312
0.00801452
-0.0772953
0.0692808
0.184717
-0.335632
0.150916
0.538335
-0.799718
0.261384
1.11902
-1.4824
0.363389
1.86476
-2.2387
0.373938
2.58567
-2.90597
0.320297
3.22535
-3.56435
0.339002
3.89088
-4.16359
0.272711
4.32707
-4.1603
-0.16677
3.41445
-2.11341
-1.30104
0.702083
0.507858
-1.20994
-1.5215
2.37748
-0.855981
-3.10801
3.73682
-0.628805
-4.2783
4.74089
-0.462591
-5.12982
5.44992
-0.320098
-5.70678
5.9071
-0.20032
-6.05832
6.16815
-0.109834
-6.2438
6.2922
-0.0484002
-6.31898
6.32975
-0.0107724
-6.32855
6.31685
0.011698
-6.29929
6.27764
0.0216507
-6.25333
6.22752
0.0258108
-6.20102
6.17441
0.0266101
-6.1481
6.12237
0.0257292
-6.09738
6.07317
0.0242126
-6.04975
6.02708
0.0226618
-6.00513
5.98382
0.0213075
-5.96311
5.94294
0.0201739
-5.92328
5.90416
0.0191245
-5.88559
5.86761
0.017977
-5.85024
5.83348
0.0167635
-5.81731
5.80172
0.0155889
-5.78668
5.77215
0.014529
-5.7581
5.74451
0.0135882
-5.73137
5.71865
0.0127148
-5.70635
5.69445
0.011903
-5.68292
5.67174
0.0111814
-5.66089
5.65036
0.0105332
-5.64016
5.6303
0.00986193
-5.62084
5.61181
0.00902683
-5.6033
5.59538
0.00792058
-5.58819
5.58187
0.0063257
-5.57645
5.57188
0.00456977
-5.56782
5.56397
0.00384894
-5.55982
5.55527
0.0045506
-5.55017
5.54479
0.00537928
-5.53936
5.53404
0.0053198
-5.52924
5.52462
0.00461879
-5.52075
5.517
0.00374961
-5.51398
5.51158
0.00240328
-5.50986
5.50989
-3.00131e-05
-5.51008
5.51284
-0.0027679
-5.51434
5.51828
-0.00393945
0.236157
-0.26977
0.0336125
-0.0554923
0.0400133
-0.103803
0.119282
-0.00253901
-0.0486735
-0.163561
0.214774
0.100944
-0.130684
-0.0150153
0.0447551
0.130588
-0.10358
0.135816
-0.162824
0.0648502
-0.0254907
0.0615338
-0.100893
0.00199992
-0.000917113
-0.0185978
0.017515
0.0188695
-0.0583512
-0.122485
0.161967
0.123642
-0.218756
-0.271137
0.366251
0.347343
-0.51306
-0.467911
0.633629
0.717054
-0.957707
-0.655996
0.896649
1.22918
-1.5185
-0.6987
0.988023
1.80814
-2.08404
-0.605519
0.881421
2.34582
-2.59745
-0.59735
0.848984
2.81814
-2.94215
-0.43413
0.558133
2.95015
-2.85976
0.249225
-0.339612
2.55477
-1.84566
2.21778
-2.92689
0.846965
0.186911
2.32864
-3.36252
-1.13995
1.99223
1.71124
-2.56352
-2.7463
3.41005
1.27545
-1.93921
-3.99119
4.49449
0.946135
-1.44943
-4.92422
5.28321
0.661496
-1.02048
-5.57601
5.80869
0.419582
-0.652256
-5.98833
6.12267
0.234578
-0.368923
-6.21958
6.28626
0.108123
-0.174804
-6.32916
6.35361
0.0299355
-0.0543852
-6.365
6.36601
-0.0148906
0.0138745
-6.3598
6.34854
-0.0371315
0.0483975
-6.33398
6.31736
-0.0463361
0.0629501
-6.29962
6.28145
-0.0484915
0.066668
-6.26325
6.24532
-0.0471181
0.0650397
-6.2279
6.21104
-0.0443611
0.0612227
-6.19479
6.17912
-0.0414399
0.0571067
-6.164
6.14939
-0.0388689
0.0534824
-6.13522
6.12145
-0.0367207
0.050488
-6.10808
6.09505
-0.0347769
0.0478075
-6.08237
6.07007
-0.0327056
0.0450007
-6.05816
6.04664
-0.0304878
0.0420072
-6.03552
6.02476
-0.0283748
0.0391356
-6.01432
6.00419
-0.0264988
0.0366277
-5.99433
5.98471
-0.0248372
0.0344482
-5.97535
5.9662
-0.0233139
0.032465
-5.95727
5.94855
-0.0219168
0.0306289
-5.94004
5.93176
-0.0206337
0.0289189
-5.92368
5.91583
-0.0194553
0.0273126
-5.90822
5.90088
-0.0181949
0.0255278
-5.8939
5.88733
-0.016573
0.0231414
-5.88119
5.87553
-0.0144765
0.0201413
-5.87039
5.86586
-0.0115602
0.0160899
-5.86203
5.85891
-0.00828338
0.0114057
-5.85635
5.85404
-0.00679945
0.00911491
-5.85164
5.84886
-0.00803175
0.0108136
-5.84567
5.84218
-0.00959258
0.0130837
-5.83862
5.83525
-0.00942931
0.0127993
-5.83216
5.8295
-0.00799978
0.0106537
-5.82709
5.82501
-0.00644541
0.00852399
-5.82309
5.82148
-0.00436106
0.00596742
-5.82041
5.81988
-0.000584953
0.00112178
-5.82038
5.82126
0.00407504
-0.00495528
-5.82318
5.8252
0.00659485
-0.00861317
0.298858
-0.324306
0.0254472
-0.0408002
0.0388221
-0.125798
0.127776
-0.0222436
-0.00874718
-0.253737
0.284727
0.0480778
-0.0910149
-0.0820147
0.124952
0.106251
-0.103002
0.17536
-0.17861
0.0848344
-0.055989
0.135695
-0.16454
0.0260653
-0.00579165
-0.00701383
-0.0132598
0.00560189
-0.020463
-0.187955
0.202816
0.0507621
-0.0999263
-0.43649
0.485654
0.169219
-0.260162
-0.759134
0.850076
0.375143
-0.516182
-1.08509
1.22613
0.685299
-0.880991
-1.23175
1.42744
1.09563
-1.32111
-1.13928
1.36476
1.56529
-1.87937
-1.13209
1.44616
2.32163
-2.56245
-0.69844
0.939257
2.43882
-2.05597
0.535624
-0.918472
1.72712
-1.21099
3.49409
-4.01022
0.507728
0.2853
4.27586
-5.06889
-1.09069
1.86198
3.37784
-4.14913
-2.5787
3.2311
2.59788
-3.25027
-3.81611
4.33166
1.95771
-2.47326
-4.77522
5.14734
1.38554
-1.75766
-5.45086
5.69161
0.889306
-1.13006
-5.87731
6.01666
0.506364
-0.645719
-6.11811
6.18969
0.244435
-0.316013
-6.23826
6.26938
0.0825251
-0.113644
-6.28757
6.29635
-0.00897714
0.000197407
-6.29836
6.29564
-0.0554818
0.058198
-6.28975
6.28184
-0.075325
0.0832349
-6.27274
6.263
-0.0807133
0.0904534
-6.25305
6.24311
-0.0790196
0.0889647
-6.23333
6.22385
-0.0744084
0.083892
-6.21467
6.20577
-0.0693418
0.0782382
-6.19715
6.18876
-0.0649392
0.0733336
-6.18055
6.1725
-0.0613092
0.0693631
-6.16457
6.15673
-0.058118
0.0659549
-6.14901
6.14141
-0.054844
0.0624446
-6.13395
6.12668
-0.0512787
0.0585484
-6.1196
6.11267
-0.0478523
0.0547899
-6.10587
6.09916
-0.0449404
0.051647
-6.09252
6.08594
-0.0424268
0.0489993
-6.07943
6.07296
-0.0401514
0.0466201
-6.06656
6.06022
-0.0380612
0.0444047
-6.05395
6.04778
-0.0360535
0.0422198
-6.04173
6.03582
-0.034092
0.0400081
-6.03007
6.02453
-0.0318662
0.0374013
-6.0193
6.01445
-0.0287745
0.0336281
-6.00998
6.00587
-0.0249478
0.029061
-6.00211
5.9988
-0.0199445
0.0232639
-5.99604
5.99395
-0.0139691
0.0160593
-5.99248
5.99133
-0.0108212
0.01197
-5.99011
5.98849
-0.0129704
0.0145947
-5.98638
5.98396
-0.0159666
0.0183855
-5.98151
5.97929
-0.0155269
0.0177492
-5.97742
5.97598
-0.012663
0.0141044
-5.97478
5.97374
-0.0100577
0.0111044
-5.97262
5.97153
-0.00727983
0.00837601
-5.97062
5.97009
-0.00163777
0.00216851
-5.97022
5.97071
0.00561473
-0.00610047
-5.97196
5.97323
0.0102097
-0.0114774
0.346366
-0.363926
0.0175607
-0.0327709
0.0338475
-0.127512
0.126435
-0.0251223
0.0052345
-0.308813
0.3287
0.0199134
-0.0692591
-0.171812
0.221158
0.0845074
-0.0923665
0.175082
-0.167223
0.0872891
-0.0697867
0.186932
-0.204434
0.0442683
-0.0160399
0.0391154
-0.0673438
-0.00842476
0.0174537
-0.206961
0.197932
-0.0136915
0.00096729
-0.515186
0.52791
0.0222472
-0.0552449
-0.909457
0.942454
0.0980224
-0.1534
-1.32081
1.37619
0.22409
-0.312256
-1.56715
1.65531
0.413004
-0.484824
-1.51682
1.58864
0.361048
0.375862
-1.67235
0.935444
0.505519
-2.2689
-1.37687
3.14025
3.02445
-2.79954
1.14721
-1.37212
1.18558
-0.416392
4.64379
-5.41297
-0.149678
0.731401
5.73717
-6.31889
-1.35364
1.99312
4.8502
-5.48968
-2.62167
3.22194
3.87467
-4.47494
-3.77748
4.27753
2.97923
-3.47928
-4.71101
5.07416
2.12471
-2.48786
-5.36689
5.59613
1.3653
-1.59454
-5.77051
5.9011
0.78081
-0.911406
-5.99709
6.06716
0.386602
-0.456673
-6.11779
6.15412
0.14686
-0.183185
-6.17988
6.19795
0.0126659
-0.030734
-6.21035
6.21861
-0.0558777
0.0476188
-6.2239
6.22705
-0.0859262
0.0827702
-6.2288
6.22947
-0.0951738
0.0945023
-6.22942
6.22881
-0.0943301
0.0949328
-6.22786
6.22663
-0.0892685
0.0905019
-6.2252
6.22356
-0.0834643
0.085102
-6.22174
6.21969
-0.0784825
0.0805304
-6.21745
6.215
-0.0745387
0.0769894
-6.21234
6.20944
-0.0712024
0.0741004
-6.20634
6.20305
-0.0677643
0.0710523
-6.19966
6.1962
-0.0637898
0.067256
-6.19271
6.18919
-0.059897
0.0634256
-6.1856
6.1819
-0.0567349
0.0604353
-6.1781
6.17416
-0.0541451
0.0580876
-6.17012
6.16596
-0.0518214
0.055975
-6.16173
6.15741
-0.0496346
0.0539524
-6.15306
6.1487
-0.047389
0.0517518
-6.14439
6.14013
-0.0450034
0.0492579
-6.13596
6.13191
-0.0421083
0.0461592
-6.12814
6.12473
-0.0376844
0.0410937
-6.1217
6.11892
-0.032446
0.0352255
-6.11631
6.11391
-0.0260588
0.0284586
-6.11193
6.11062
-0.0177043
0.0190212
-6.11007
6.11003
-0.0125479
0.0125946
-6.10995
6.10932
-0.0156971
0.0163205
-6.10802
6.10633
-0.0203817
0.022071
-6.10466
6.10332
-0.0194819
0.0208222
-6.10247
6.10211
-0.0149811
0.0153414
-6.10204
6.10196
-0.011658
0.0117351
-6.10155
6.10079
-0.00927885
0.0100447
-6.09992
6.09927
-0.00273663
0.00338316
-6.09908
6.09921
0.00640837
-0.00653634
-6.09982
6.10046
0.01242
-0.0130558
0.377089
-0.385764
0.00867456
-0.0208671
0.0194875
-0.125853
0.127232
-0.01103
-0.00867562
-0.347923
0.367628
0.0702426
-0.0713029
-0.261886
0.262947
0.0846108
-0.0911891
0.159011
-0.152433
0.0894925
-0.0777937
0.218172
-0.229871
0.0562055
-0.027051
0.0959573
-0.125112
-0.00696797
0.0419105
-0.173956
0.139013
-0.0664465
0.0804219
-0.526284
0.512308
-0.0893678
0.0966451
-0.952908
0.945631
-0.104151
0.110065
-1.39713
1.39122
-0.11172
0.105076
-1.6977
1.70434
-0.089753
0.0692189
-1.62961
1.65014
-0.0374049
-0.104593
-0.863828
1.00583
-0.419376
-0.681881
-4.69782
5.79908
1.75432
-1.55135
1.75785
-1.96082
0.674413
0.228702
6.27883
-7.18195
-0.797568
1.27139
6.83205
-7.30587
-1.76118
2.27491
6.05728
-6.57101
-2.80541
3.33288
5.03433
-5.5618
-3.83964
4.30283
3.95838
-4.42157
-4.70583
5.03721
2.8345
-3.16588
-5.29864
5.49785
1.80868
-2.00789
-5.64877
5.76308
1.03267
-1.14698
-5.85134
5.92134
0.52513
-0.595139
-5.97807
6.02477
0.223197
-0.269902
-6.0636
6.09623
0.0550034
-0.0876251
-6.12366
6.1469
-0.032514
0.00927382
-6.16656
6.18322
-0.0731481
0.0564839
-6.19757
6.20996
-0.0880644
0.0756804
-6.22065
6.22987
-0.0905944
0.0813793
-6.23786
6.24478
-0.087554
0.0806332
-6.25079
6.25595
-0.0832003
0.0780434
-6.26033
6.26395
-0.0795807
0.0759582
-6.26689
6.26923
-0.0768887
0.0745506
-6.27097
6.27219
-0.0747785
0.0735576
-6.27287
6.27307
-0.0724363
0.0722308
-6.27287
6.27239
-0.0690732
0.0695528
-6.27169
6.27081
-0.0654844
0.0663634
-6.26969
6.26833
-0.0628352
0.0641991
-6.26667
6.26475
-0.0608808
0.0628062
-6.26258
6.26021
-0.0591252
0.0614981
-6.25762
6.25486
-0.0573833
0.0601477
-6.25196
6.24897
-0.0553221
0.0583091
-6.246
6.24305
-0.0527686
0.0557166
-6.24012
6.23719
-0.0495595
0.0524872
-6.23446
6.23216
-0.0438655
0.0461633
-6.23032
6.22866
-0.0373914
0.0390505
-6.22697
6.22519
-0.03049
0.0322725
-6.22358
6.22258
-0.0200956
0.0210929
-6.2226
6.22344
-0.0121546
0.0113097
-6.22439
6.22464
-0.0164871
0.0162326
-6.2239
6.22266
-0.0234895
0.0247295
-6.22151
6.22083
-0.0217964
0.0224749
-6.22077
6.22132
-0.015215
0.0146607
-6.22227
6.22314
-0.0113361
0.0104675
-6.22337
6.2228
-0.0106912
0.0112543
-6.22182
6.22094
-0.00412741
0.00500596
-6.22044
6.22018
0.00647313
-0.00621001
-6.22013
6.22005
0.0133528
-0.013279
0.386592
-0.364029
-0.0225628
-0.00621227
-0.0041252
-0.132776
0.143114
0.0363368
-0.0635184
-0.381501
0.408682
0.167627
-0.111792
-0.228199
0.172364
0.102212
-0.102245
0.149369
-0.149336
0.100014
-0.0903408
0.240347
-0.25002
0.0709473
-0.0419675
0.153907
-0.182887
0.00472767
0.0389534
-0.0988574
0.0551763
-0.0863336
0.12794
-0.48493
0.443323
-0.162368
0.196365
-0.923892
0.889894
-0.234757
0.27707
-1.36441
1.3221
-0.320155
0.35828
-1.68456
1.64644
-0.383367
0.380162
-1.6606
1.6638
-0.32619
0.190508
-1.16272
1.2984
-0.516473
0.129148
-6.42519
6.81252
0.375298
-0.060771
2.13245
-2.44698
-0.42862
0.924673
7.90799
-8.40404
-1.36894
1.76488
7.7396
-8.13554
-2.16208
2.58245
7.03152
-7.4519
-3.02754
3.48472
6.05022
-6.50741
-3.93558
4.3501
4.85974
-5.27426
-4.70384
4.98412
3.47178
-3.75206
-5.19551
5.35346
2.18617
-2.34413
-5.47819
5.58325
1.25346
-1.35851
-5.67775
5.76479
0.669226
-0.756264
-5.84376
5.91429
0.325742
-0.39627
-5.97652
6.03101
0.129964
-0.184453
-6.07837
6.11933
0.0224045
-0.0633645
-6.15455
6.18453
-0.0330742
0.0030999
-6.2108
6.23348
-0.057837
0.0351571
-6.25324
6.27044
-0.0678497
0.0506542
-6.2854
6.2984
-0.0703246
0.0573181
-6.30974
6.31962
-0.0701947
0.0603192
-6.32817
6.33553
-0.0701724
0.0628151
-6.3418
6.34714
-0.070489
0.0651558
-6.35162
6.35536
-0.0708672
0.0671362
-6.35837
6.36068
-0.0707966
0.0684892
-6.36237
6.36357
-0.0690235
0.067822
-6.36443
6.365
-0.0663557
0.0657869
-6.36528
6.36523
-0.0647678
0.0648205
-6.36482
6.36406
-0.0640223
0.0647802
-6.363
6.36166
-0.0632486
0.064591
-6.36007
6.35825
-0.0623301
0.0641529
-6.35621
6.35404
-0.0607808
0.0629519
-6.35188
6.34981
-0.058151
0.0602169
-6.34772
6.34553
-0.0549722
0.0571656
-6.34339
6.34173
-0.0480484
0.0497085
-6.34072
6.33992
-0.0402229
0.0410226
-6.33897
6.33761
-0.0338178
0.0351808
-6.33601
6.33472
-0.0221433
0.023428
-6.33458
6.33571
-0.0102134
0.00908454
-6.33728
6.33826
-0.0155974
0.014614
-6.33793
6.33701
-0.0258122
0.0267351
-6.33632
6.33617
-0.0228856
0.0230322
-6.33665
6.33774
-0.013781
0.0126915
-6.33935
6.34101
-0.00917726
0.00751298
-6.34191
6.34155
-0.0117295
0.0120809
-6.34043
6.3393
-0.00600924
0.00713766
-6.3385
6.33778
0.00573881
-0.00501655
-6.33692
6.33591
0.0127865
-0.0117786
0.289762
-0.153171
-0.136591
0.0995094
-0.122676
-0.138864
0.162031
0.474687
-0.555127
-0.589383
0.669823
0.153511
-0.113736
-0.0997222
0.0599477
0.11155
-0.115448
0.148957
-0.145058
0.116861
-0.110846
0.258242
-0.264258
0.0942578
-0.0659624
0.211465
-0.23976
0.0266724
0.0217807
-0.00954079
-0.0389123
-0.0774914
0.138902
-0.390084
0.328674
-0.197713
0.250235
-0.845975
0.793453
-0.304635
0.364238
-1.26938
1.20978
-0.426982
0.486381
-1.59609
1.53669
-0.531058
0.544388
-1.65804
1.64471
-0.507507
0.410276
-1.41696
1.51419
-0.361407
-0.189051
-7.17953
7.72999
0.245402
0.800333
3.06832
-4.11406
-1.26462
1.58956
8.81142
-9.13636
-1.88353
2.18003
8.47789
-8.77439
-2.49563
2.83939
7.82935
-8.1731
-3.21342
3.60818
6.93107
-7.32583
-4.00114
4.35325
5.6575
-6.00962
-4.63552
4.83906
3.99588
-4.19942
-4.98372
5.09799
2.47649
-2.59075
-5.23306
5.37186
1.47108
-1.60987
-5.52184
5.65668
0.863891
-0.998729
-5.77298
5.8755
0.483277
-0.58579
-5.9644
6.04057
0.250179
-0.326346
-6.1056
6.161
0.111781
-0.16718
-6.20789
6.24723
0.032324
-0.0716602
-6.28029
6.30874
-0.00944676
-0.0190025
-6.33345
6.35476
-0.0310982
0.0097903
-6.37303
6.38865
-0.0427246
0.0271108
-6.40202
6.41354
-0.049343
0.0378253
-6.42351
6.43212
-0.0546179
0.046008
-6.43952
6.44585
-0.0591473
0.052818
-6.45127
6.45589
-0.0628168
0.0581934
-6.45981
6.46305
-0.0656328
0.0623902
-6.46563
6.4676
-0.0661846
0.0642157
-6.46906
6.47011
-0.0649091
0.063857
-6.47084
6.47124
-0.0645764
0.0641739
-6.47133
6.47109
-0.0652506
0.0654936
-6.47054
6.46969
-0.065656
0.0664999
-6.4686
6.46729
-0.0656961
0.0670044
-6.46575
6.46403
-0.0648925
0.0666171
-6.46231
6.46079
-0.0619863
0.0635094
-6.45939
6.45787
-0.0590472
0.0605596
-6.45618
6.45478
-0.0512554
0.0526525
-6.4542
6.45379
-0.0415557
0.0419652
-6.45347
6.45272
-0.0362721
0.0370201
-6.45144
6.44971
-0.0250217
0.0267537
-6.4485
6.44848
-0.00832693
0.00834755
-6.44916
6.45045
-0.0133695
0.0120774
-6.45068
6.45063
-0.0273375
0.027386
-6.45103
6.45167
-0.0228563
0.022208
-6.4525
6.4534
-0.0116269
0.0107262
-6.45465
6.45645
-0.00568375
0.00388939
-6.45823
6.45865
-0.0121773
0.0117514
-6.45768
6.45663
-0.00827153
0.00932884
-6.45543
6.45398
0.0039698
-0.00252554
-6.45196
6.44973
0.010201
-0.00797188
-0.00215458
0.139979
-0.137824
0.229875
-0.330251
-0.243523
0.343899
0.122132
-0.0326685
-0.514554
0.42509