/*--------------------------------*- C++ -*----------------------------------*\
| =========                 |                                                 |
| \\      /  F ield         | OpenFOAM: The Open Source CFD Toolbox           |
|  \\    /   O peration     | Version:  v1912                                 |
|   \\  /    A nd           | Website:  www.openfoam.com                      |
|    \\/     M anipulation  |                                                 |
\*---------------------------------------------------------------------------*/
FoamFile
{
    version     2.0;
    format      ascii;
    class       volVectorField;
    location    "16";
    object      U;
}
// * * * * * * * * * * * * * * * * * * * * * * * * * * * * * * * * * * * * * //

dimensions      [0 1 -1 0 0 0 0];


internalField   nonuniform List<vector> 
20320
(
(1.87709 0.006176 0)
(1.87571 -0.00545904 0)
(1.86097 0.0040863 0)
(1.83245 0.0110138 0)
(1.79303 0.0185806 0)
(1.74343 0.0243181 0)
(1.68494 0.0309966 0)
(1.61767 0.0361235 0)
(1.54121 0.0412815 0)
(1.45761 0.0455667 0)
(1.36794 0.0490956 0)
(1.27241 0.0522967 0)
(1.17306 0.0531473 0)
(1.07269 0.0531507 0)
(0.972976 0.0520576 0)
(0.875821 0.0595836 0)
(0.755399 0.0905591 0)
(0.573471 0.147835 0)
(0.309747 0.232381 0)
(0.0427978 0.077077 0)
(1.87723 0.0110384 0)
(1.86877 0.0345927 0)
(1.84983 0.0645677 0)
(1.82055 0.0943277 0)
(1.78063 0.123309 0)
(1.73065 0.151136 0)
(1.67114 0.177686 0)
(1.60232 0.20266 0)
(1.52495 0.225832 0)
(1.43964 0.246807 0)
(1.34698 0.26553 0)
(1.24771 0.281329 0)
(1.14327 0.29284 0)
(1.03383 0.298108 0)
(0.917574 0.307485 0)
(0.779215 0.355129 0)
(0.620958 0.442776 0)
(0.457993 0.547141 0)
(0.30235 0.608914 0)
(0.143612 0.519749 0)
(1.87722 0.0167132 0)
(1.86877 0.0681444 0)
(1.84958 0.12193 0)
(1.81977 0.174841 0)
(1.77948 0.226304 0)
(1.72905 0.275811 0)
(1.66876 0.323232 0)
(1.59903 0.36793 0)
(1.52037 0.409509 0)
(1.43317 0.447889 0)
(1.33843 0.482051 0)
(1.237 0.511342 0)
(1.12931 0.534062 0)
(1.01321 0.556515 0)
(0.878676 0.610832 0)
(0.727603 0.69632 0)
(0.5711 0.793622 0)
(0.418623 0.883016 0)
(0.27382 0.928504 0)
(0.126148 0.885895 0)
(1.87721 0.0224475 0)
(1.86898 0.0976328 0)
(1.84995 0.174758 0)
(1.82026 0.250295 0)
(1.77989 0.323941 0)
(1.72923 0.395119 0)
(1.6686 0.46319 0)
(1.5981 0.527958 0)
(1.51827 0.588493 0)
(1.42964 0.644183 0)
(1.33266 0.694959 0)
(1.22897 0.737745 0)
(1.11672 0.775924 0)
(0.990563 0.833102 0)
(0.847625 0.923467 0)
(0.697134 1.02276 0)
(0.546355 1.11652 0)
(0.399925 1.19196 0)
(0.258101 1.22987 0)
(0.115127 1.20853 0)
(1.87722 0.0278864 0)
(1.86903 0.125488 0)
(1.8502 0.224536 0)
(1.82064 0.321991 0)
(1.78054 0.416973 0)
(1.73004 0.509095 0)
(1.66932 0.59788 0)
(1.59878 0.682159 0)
(1.5184 0.761936 0)
(1.42894 0.835866 0)
(1.33127 0.902405 0)
(1.22523 0.961456 0)
(1.1087 1.02254 0)
(0.975149 1.11658 0)
(0.830456 1.2262 0)
(0.682485 1.32904 0)
(0.53558 1.41736 0)
(0.391977 1.48368 0)
(0.251102 1.51779 0)
(0.110231 1.50662 0)
(1.87722 0.0330492 0)
(1.8692 0.151901 0)
(1.85066 0.272109 0)
(1.82168 0.390287 0)
(1.78209 0.506084 0)
(1.73223 0.618505 0)
(1.67207 0.727234 0)
(1.60184 0.831289 0)
(1.52179 0.929664 0)
(1.43219 1.02198 0)
(1.33442 1.10483 0)
(1.22695 1.18114 0)
(1.10582 1.27343 0)
(0.968768 1.39561 0)
(0.824572 1.51528 0)
(0.678588 1.61866 0)
(0.53355 1.70262 0)
(0.390634 1.76336 0)
(0.24926 1.7954 0)
(0.108393 1.78946 0)
(1.87722 0.0378507 0)
(1.86946 0.176779 0)
(1.85149 0.316826 0)
(1.82335 0.454815 0)
(1.78481 0.59031 0)
(1.73611 0.722402 0)
(1.67723 0.850354 0)
(1.60798 0.97388 0)
(1.52901 1.09072 0)
(1.44032 1.20058 0)
(1.34267 1.30086 0)
(1.23436 1.39747 0)
(1.10936 1.52347 0)
(0.971214 1.66538 0)
(0.82777 1.79145 0)
(0.682697 1.89529 0)
(0.537875 1.97673 0)
(0.394068 2.0344 0)
(0.250922 2.06549 0)
(0.108388 2.0627 0)
(1.87722 0.042255 0)
(1.86981 0.199865 0)
(1.85273 0.358233 0)
(1.82574 0.514986 0)
(1.78893 0.668794 0)
(1.74198 0.819748 0)
(1.68504 0.96644 0)
(1.61783 1.10834 0)
(1.54055 1.24398 0)
(1.45376 1.37081 0)
(1.35695 1.4889 0)
(1.2477 1.6112 0)
(1.12039 1.76824 0)
(0.98217 1.92494 0)
(0.839064 2.05663 0)
(0.693767 2.16202 0)
(0.547751 2.2429 0)
(0.401685 2.29947 0)
(0.255498 2.33049 0)
(0.109783 2.33019 0)
(1.87722 0.0462268 0)
(1.87032 0.220772 0)
(1.85436 0.396096 0)
(1.82913 0.569793 0)
(1.79453 0.740969 0)
(1.75016 0.909462 0)
(1.69598 1.0742 0)
(1.63179 1.23377 0)
(1.55713 1.38787 0)
(1.47305 1.53188 0)
(1.37804 1.66842 0)
(1.26799 1.82118 0)
(1.13991 2.00526 0)
(1.00193 2.17476 0)
(0.858547 2.31285 0)
(0.711919 2.4215 0)
(0.563371 2.5038 0)
(0.413655 2.56099 0)
(0.263024 2.5928 0)
(0.112538 2.59504 0)
(1.87722 0.0496898 0)
(1.87099 0.239281 0)
(1.85645 0.429827 0)
(1.8336 0.618577 0)
(1.80178 0.805972 0)
(1.76097 0.990461 0)
(1.71053 1.17228 0)
(1.65028 1.34923 0)
(1.57959 1.52073 0)
(1.49909 1.68261 0)
(1.40679 1.83946 0)
(1.29674 2.02515 0)
(1.16917 2.23329 0)
(1.03152 2.41571 0)
(0.887228 2.56194 0)
(0.738169 2.67604 0)
(0.585689 2.7619 0)
(0.430745 2.82143 0)
(0.273977 2.85496 0)
(0.116839 2.86019 0)
(1.87722 0.0525703 0)
(1.8718 0.255209 0)
(1.85912 0.458725 0)
(1.83913 0.660924 0)
(1.81093 0.862597 0)
(1.77463 1.06176 0)
(1.72906 1.25941 0)
(1.67389 1.45329 0)
(1.60869 1.64117 0)
(1.53297 1.82151 0)
(1.44436 2.00154 0)
(1.33581 2.22069 0)
(1.20991 2.45169 0)
(1.07274 2.64861 0)
(0.926981 2.80556 0)
(0.774384 2.92781 0)
(0.616412 3.01974 0)
(0.454331 3.08357 0)
(0.28927 3.11995 0)
(0.123084 3.12886 0)
(1.87723 0.0548267 0)
(1.87276 0.268268 0)
(1.8624 0.482318 0)
(1.84573 0.696204 0)
(1.82216 0.909737 0)
(1.79127 1.12236 0)
(1.75187 1.33429 0)
(1.70325 1.54413 0)
(1.64511 1.74779 0)
(1.57577 1.94695 0)
(1.49229 2.15305 0)
(1.38729 2.40534 0)
(1.26442 2.6597 0)
(1.12815 2.8739 0)
(0.980583 3.04499 0)
(0.823374 3.17888 0)
(0.658139 3.28003 0)
(0.486543 3.35064 0)
(0.31039 3.39138 0)
(0.132029 3.40484 0)
(1.87724 0.0564373 0)
(1.87389 0.278154 0)
(1.8662 0.500342 0)
(1.85347 0.723603 0)
(1.83544 0.946628 0)
(1.81093 1.1711 0)
(1.77914 1.39551 0)
(1.73875 1.61988 0)
(1.68939 1.83896 0)
(1.62851 2.05701 0)
(1.55223 2.29135 0)
(1.45344 2.57644 0)
(1.33547 2.85608 0)
(1.20113 3.09143 0)
(1.05187 3.28114 0)
(0.889157 3.4312 0)
(0.714691 3.54578 0)
(0.530591 3.62663 0)
(0.339607 3.67394 0)
(0.144773 3.69285 0)
(1.87724 0.0573866 0)
(1.87518 0.284658 0)
(1.87045 0.512584 0)
(1.86229 0.742413 0)
(1.85054 0.97274 0)
(1.83353 1.2068 0)
(1.81078 1.44168 0)
(1.78043 1.67874 0)
(1.74183 1.91263 0)
(1.6919 2.14933 0)
(1.62571 2.41289 0)
(1.53655 2.73072 0)
(1.42629 3.03862 0)
(1.29592 3.30001 0)
(1.14596 3.51407 0)
(0.977365 3.68636 0)
(0.791669 3.82029 0)
(0.591349 3.91647 0)
(0.380425 3.97382 0)
(0.162793 3.99915 0)
(1.87724 0.057667 0)
(1.8766 0.287715 0)
(1.87505 0.518862 0)
(1.87201 0.752245 0)
(1.86713 0.987663 0)
(1.8587 1.22843 0)
(1.84634 1.47156 0)
(1.82786 1.71903 0)
(1.80223 1.96649 0)
(1.76611 2.22101 0)
(1.71372 2.51331 0)
(1.63856 2.86385 0)
(1.54021 3.20354 0)
(1.41745 3.49673 0)
(1.26938 3.74228 0)
(1.09579 3.94494 0)
(0.897377 4.10674 0)
(0.676484 4.22619 0)
(0.438634 4.29938 0)
(0.188641 4.33266 0)
(1.87724 0.057289 0)
(1.87809 0.287391 0)
(1.87989 0.519112 0)
(1.88234 0.753088 0)
(1.88476 0.991146 0)
(1.88582 1.23539 0)
(1.88499 1.48421 0)
(1.88005 1.73931 0)
(1.8697 1.99819 0)
(1.85048 2.26877 0)
(1.81629 2.58761 0)
(1.76059 2.97025 0)
(1.68014 3.34507 0)
(1.571 3.67622 0)
(1.43012 3.96171 0)
(1.25506 4.20536 0)
(1.0443 4.40743 0)
(0.798553 4.56296 0)
(0.524251 4.66252 0)
(0.227359 4.70581 0)
(1.87724 0.056287 0)
(1.87959 0.283855 0)
(1.88481 0.513476 0)
(1.89286 0.745262 0)
(1.90284 0.983227 0)
(1.91396 1.22758 0)
(1.92549 1.47915 0)
(1.93546 1.73854 0)
(1.94249 2.00573 0)
(1.94322 2.2893 0)
(1.93192 2.63044 0)
(1.90213 3.04304 0)
(1.84754 3.45502 0)
(1.76116 3.82957 0)
(1.63697 4.16391 0)
(1.46899 4.46152 0)
(1.25108 4.72129 0)
(0.978897 4.9339 0)
(0.656493 5.08024 0)
(0.28848 5.14178 0)
(1.87724 0.0547204 0)
(1.88105 0.277372 0)
(1.88963 0.502334 0)
(1.90317 0.729375 0)
(1.92071 0.964358 0)
(1.94203 1.20553 0)
(1.96627 1.45655 0)
(1.99197 1.71638 0)
(2.01796 1.98783 0)
(2.0412 2.27985 0)
(2.0572 2.63677 0)
(2.06009 3.07455 0)
(2.04097 3.52284 0)
(1.98984 3.94365 0)
(1.89748 4.33397 0)
(1.75341 4.69883 0)
(1.5442 5.03845 0)
(1.25425 5.34112 0)
(0.87496 5.57503 0)
(0.395339 5.68317 0)
(1.87724 0.0526677 0)
(1.8824 0.26829 0)
(1.89416 0.486288 0)
(1.91287 0.706287 0)
(1.93767 0.93545 0)
(1.96885 1.17033 0)
(2.0056 1.41731 0)
(2.04714 1.67344 0)
(2.09273 1.94438 0)
(2.14004 2.23899 0)
(2.18654 2.60291 0)
(2.22807 3.05763 0)
(2.2543 3.53687 0)
(2.25319 4.0015 0)
(2.21344 4.44915 0)
(2.12119 4.88929 0)
(1.9556 5.3296 0)
(1.68442 5.76614 0)
(1.26596 6.16514 0)
(0.622755 6.41405 0)
(1.87725 0.05022 0)
(1.88361 0.257019 0)
(1.89825 0.466101 0)
(1.92161 0.677063 0)
(1.95307 0.897829 0)
(1.99333 1.12362 0)
(2.04181 1.36315 0)
(2.09843 1.61142 0)
(2.16315 1.87672 0)
(2.23456 2.16725 0)
(2.31269 2.52775 0)
(2.39635 2.9876 0)
(2.47567 3.48692 0)
(2.53844 3.98533 0)
(2.57409 4.48085 0)
(2.57039 4.98915 0)
(2.50716 5.53217 0)
(2.34586 6.1327 0)
(2.00791 6.8041 0)
(1.28531 7.44538 0)
(0.288642 -0.326465 0)
(0.275299 0.120244 0)
(-0.466335 0.145454 0)
(-0.960817 -0.0231274 -5.60546e-21)
(-0.290071 -0.133256 0)
(0.130819 -0.0294442 0)
(0.135776 0.0159391 0)
(-0.172275 0.0999547 0)
(-1.04298 0.216145 0)
(-2.65885 0.377561 1.96741e-22)
(-5.19157 0.520582 0)
(-8.1672 0.521023 0)
(-10.7414 0.448615 -1.04463e-20)
(-13.3134 0.495189 -1.05699e-20)
(-15.9326 0.379981 0)
(-16.5607 -0.435424 -2.01136e-19)
(-9.77684 -2.25999 2.61834e-19)
(0.3491 -1.8439 -3.00128e-20)
(7.97794 -1.27387 0)
(13.5318 -0.927522 1.52704e-19)
(17.6323 -0.683421 -1.49712e-19)
(20.5734 -0.477941 -2.53315e-19)
(22.5158 -0.306949 9.45062e-20)
(23.6519 -0.178298 -6.35129e-20)
(24.2091 -0.0900462 0)
(24.3956 -0.0334708 -2.33505e-20)
(24.3678 -0.00023776 0)
(24.226 0.0107387 7.05093e-21)
(24.0338 0.0168164 7.29847e-21)
(23.8271 0.0194331 0)
(23.6234 0.0200258 6.83338e-22)
(23.4305 0.019616 -9.11774e-23)
(23.25 0.0190451 -1.13162e-22)
(23.0809 0.0186139 2.0222e-22)
(22.9216 0.0182076 0)
(22.7704 0.0176863 0)
(22.6277 0.0168598 2.82501e-22)
(22.4941 0.015776 0)
(22.3699 0.0147008 -2.6699e-22)
(22.2543 0.013718 0)
(22.1463 0.0127794 0)
(22.0454 0.0119158 -2.15511e-22)
(21.9509 0.0111283 0)
(21.8622 0.0104273 0)
(21.7788 0.00987784 1.72814e-22)
(21.7005 0.00928563 1.5591e-22)
(21.6279 0.00846621 0)
(21.5626 0.00708688 -5.14655e-23)
(21.5077 0.00498715 3.5837e-23)
(21.4662 0.00293792 -1.74397e-23)
(21.435 0.00243612 0)
(21.4028 0.00374682 -3.17364e-23)
(21.3633 0.00508784 0)
(21.3217 0.00522816 2.61272e-23)
(21.2856 0.00445529 0)
(21.2581 0.00328487 0)
(21.2388 0.00137282 1.12399e-26)
(21.23 -0.00161541 2.51709e-26)
(21.2344 -0.00603926 0)
(21.2466 -0.00729871 0)
(0.329079 -0.502428 0)
(0.0929174 0.225239 0)
(-0.258022 0.381225 1.74829e-21)
(-0.502564 0.0565236 0)
(-0.315127 -0.303732 0)
(-0.0888637 -0.163149 -1.30555e-21)
(-0.00513847 0.0405182 1.24958e-21)
(-0.250976 0.289927 0)
(-0.895879 0.646255 2.24168e-23)
(-2.05927 1.11364 -5.35639e-21)
(-3.78285 1.5658 5.26531e-23)
(-5.88467 1.69495 9.56342e-21)
(-7.96529 1.48616 3.89854e-21)
(-9.93689 1.48977 0)
(-11.4058 0.986906 0)
(-10.9182 -0.686155 2.00081e-20)
(-6.7062 -5.22745 0)
(0.815168 -5.71556 0)
(7.48585 -4.27075 5.37561e-22)
(12.8042 -3.2027 0)
(16.9062 -2.38227 0)
(19.9096 -1.6707 0)
(21.924 -1.06371 7.57899e-20)
(23.134 -0.598072 -5.18056e-20)
(23.7677 -0.27926 3.2531e-20)
(24.0325 -0.082589 1.91221e-20)
(24.0835 0.0294681 0)
(24.0207 0.0871111 0)
(23.9044 0.11096 2.9849e-21)
(23.7694 0.116804 4.80081e-24)
(23.6333 0.113712 0)
(23.5038 0.107027 -5.02414e-24)
(23.3833 0.0998874 3.36511e-22)
(23.2711 0.0936067 0)
(23.1658 0.0883591 0)
(23.0663 0.0836333 5.95622e-22)
(22.972 0.0786723 0)
(22.8835 0.0733718 0)
(22.8009 0.0683012 0)
(22.7233 0.0638481 2.59171e-22)
(22.6499 0.0599242 2.39019e-22)
(22.58 0.0563519 -4.43421e-22)
(22.5134 0.0530584 2.05136e-22)
(22.4499 0.0500147 0)
(22.3896 0.047191 -1.75409e-22)
(22.3328 0.0441158 0)
(22.2808 0.0400914 1.29925e-22)
(22.2353 0.0349629 -4.78669e-23)
(22.1973 0.0279337 -2.91151e-23)
(22.1693 0.0199263 1.36424e-23)
(22.1504 0.0161711 1.2352e-24)
(22.1321 0.0191185 2.03477e-23)
(22.1078 0.0229443 -7.38176e-23)
(22.0812 0.0224958 0)
(22.0585 0.0189205 0)
(22.0412 0.0151927 0)
(22.0277 0.0104362 0)
(22.0201 0.00155626 1.38288e-23)
(22.0229 -0.00906798 -1.27852e-23)
(22.0341 -0.0153562 0)
(0.367187 -0.617379 0)
(0.0371158 0.25253 2.55917e-21)
(-0.218376 0.53668 0)
(-0.368384 0.202542 -2.53817e-21)
(-0.238169 -0.353523 8.50304e-22)
(-0.13038 -0.300085 2.78304e-21)
(-0.0414401 -0.00346775 0)
(-0.208464 0.392023 3.29363e-21)
(-0.659373 0.922605 0)
(-1.45605 1.60894 0)
(-2.58742 2.31037 0)
(-3.97607 2.65816 0)
(-5.43602 2.52022 0)
(-7.44595 2.35766 0)
(-9.81537 1.34863 0)
(-8.22798 -0.802512 0)
(-2.82508 -7.35472 0)
(2.82489 -9.30704 7.01337e-20)
(8.12323 -7.47968 0)
(12.819 -5.79916 0)
(16.6548 -4.3889 0)
(19.5061 -3.11241 0)
(21.39 -2.00063 0)
(22.4926 -1.14216 0)
(23.063 -0.555367 0)
(23.3143 -0.193471 0)
(23.3902 0.0108835 0)
(23.3765 0.114704 0)
(23.3217 0.159261 2.91747e-21)
(23.252 0.171701 0)
(23.1801 0.168376 -6.42757e-22)
(23.1113 0.158599 0)
(23.0468 0.147808 0)
(22.986 0.138402 0)
(22.9278 0.130722 0)
(22.8713 0.124058 0)
(22.8162 0.117195 2.18276e-22)
(22.7633 0.109692 0)
(22.7128 0.102489 0)
(22.6641 0.0963892 0)
(22.6164 0.0911887 -1.90146e-22)
(22.5695 0.0865086 1.77823e-22)
(22.5232 0.0821679 -1.66489e-22)
(22.4779 0.0779617 0)
(22.4342 0.0737969 -1.43702e-22)
(22.3926 0.0689682 0)
(22.3551 0.0621561 0)
(22.3233 0.0538165 0)
(22.2969 0.0430347 0)
(22.2779 0.0299492 7.0242e-24)
(22.2678 0.0228267 0)
(22.2586 0.027535 -4.27659e-23)
(22.2427 0.0342197 0)
(22.2249 0.0331827 0)
(22.2117 0.0267646 -2.84199e-23)
(22.2034 0.0211791 3.31319e-23)
(22.1957 0.015603 -7.10816e-23)
(22.1894 0.00376746 1.53577e-23)
(22.19 -0.0116788 0)
(22.1975 -0.0216186 2.23802e-25)
(0.37892 -0.702118 0)
(0.00730303 0.249958 0)
(-0.239659 0.629108 0)
(-0.318691 0.384336 0)
(-0.174418 -0.337527 2.95649e-21)
(-0.119354 -0.387826 0)
(-0.0639522 -0.104276 0)
(-0.119155 0.406796 -5.44203e-24)
(-0.407252 1.03455 0)
(-0.909084 1.83737 1.69518e-23)
(-1.55422 2.6765 -8.65042e-21)
(-2.26614 3.19985 0)
(-2.84063 3.07629 0)
(-3.24247 3.00616 -4.75922e-21)
(-6.91454 4.4766 6.42361e-23)
(-14.3346 -3.60832 -5.5755e-21)
(1.51657 -9.8927 3.03006e-19)
(5.75281 -11.918 0)
(9.66259 -10.2284 1.12361e-20)
(13.497 -8.25016 0)
(16.8669 -6.37598 -1.81733e-22)
(19.3945 -4.55388 1.54201e-22)
(20.986 -2.92429 -1.2971e-22)
(21.8558 -1.67248 4.01283e-20)
(22.2933 -0.83235 -2.48399e-20)
(22.5088 -0.323898 0)
(22.6142 -0.0400221 0)
(22.6645 0.105172 -1.68217e-23)
(22.6869 0.1694 9.80502e-24)
(22.6955 0.189815 0)
(22.6967 0.18905 6.15957e-22)
(22.6936 0.17934 0)
(22.6872 0.167987 0)
(22.6774 0.158304 0)
(22.664 0.150694 5.92176e-22)
(22.647 0.144394 0)
(22.6268 0.137839 0)
(22.6047 0.130048 1.93608e-22)
(22.5817 0.122339 -3.80674e-22)
(22.5575 0.116184 1.79133e-22)
(22.5315 0.111231 3.36352e-22)
(22.5035 0.106787 0)
(22.4741 0.102576 2.96776e-22)
(22.4438 0.0981447 0)
(22.4137 0.0933055 1.29019e-22)
(22.3847 0.0873542 -1.13453e-22)
(22.3589 0.0779905 0)
(22.3386 0.06702 -3.03617e-23)
(22.3214 0.0539438 0)
(22.3089 0.0363548 8.19396e-24)
(22.3062 0.0250285 -2.29493e-24)
(22.3052 0.0317873 2.79077e-23)
(22.2954 0.0420055 -3.97448e-23)
(22.2837 0.0399242 -4.40678e-23)
(22.2782 0.0301358 0)
(22.2783 0.023289 3.47173e-23)
(22.2756 0.0191166 3.85757e-23)
(22.2698 0.00599172 -1.57164e-23)
(22.2684 -0.0128579 0)
(22.2718 -0.0252773 0)
(0.373074 -0.745378 -1.71934e-21)
(-0.0436766 0.252749 1.34907e-21)
(-0.331649 0.706415 0)
(-0.567453 0.578837 1.04957e-19)
(-0.17186 -0.305775 5.91384e-21)
(-0.108491 -0.440537 0)
(-0.0580094 -0.217027 0)
(-0.0420479 0.310187 -9.99377e-24)
(-0.174129 1.02647 -3.01415e-24)
(-0.456819 1.87085 1.22407e-21)
(-0.751773 2.74764 9.97857e-21)
(-0.964599 3.3533 2.87593e-23)
(-1.00436 3.22674 -3.60873e-20)
(-0.859249 1.81674 0)
(-3.26263 10.4769 1.90344e-21)
(-11.186 -3.55235 2.38779e-18)
(5.08798 -13.2411 0)
(8.57309 -13.8959 3.37775e-20)
(11.5391 -12.4232 -1.19007e-20)
(14.5515 -10.4206 0)
(17.3727 -8.2379 7.1991e-20)
(19.4396 -5.90144 -1.67103e-22)
(20.5929 -3.75551 0)
(21.1504 -2.14232 0)
(21.4546 -1.09759 2.15202e-20)
(21.6735 -0.480136 6.51709e-23)
(21.8511 -0.135854 0)
(21.9974 0.0451563 0)
(22.1161 0.130451 1.65304e-23)
(22.2116 0.163232 0)
(22.2877 0.17078 -9.37726e-22)
(22.3473 0.166654 -4.02426e-24)
(22.3934 0.159538 -6.55965e-23)
(22.4274 0.153713 3.76118e-22)
(22.4507 0.149535 -5.46262e-22)
(22.4652 0.146371 -6.4224e-22)
(22.4721 0.142662 0)
(22.473 0.136627 -7.79306e-26)
(22.4703 0.129905 0)
(22.4643 0.12513 -1.69402e-22)
(22.454 0.121803 -1.57493e-22)
(22.44 0.118737 -1.48999e-22)
(22.423 0.115651 -1.39482e-22)
(22.4036 0.111784 1.32061e-22)
(22.3839 0.106728 -1.22298e-22)
(22.3644 0.100373 -1.05437e-22)
(22.3471 0.0885611 1.97079e-22)
(22.3359 0.0752573 -3.65356e-25)
(22.3257 0.0617221 -1.10274e-23)
(22.3165 0.0404144 1.54541e-23)
(22.3184 0.0231492 -3.55633e-24)
(22.3246 0.0323082 0)
(22.3188 0.0474374 4.73339e-23)
(22.3112 0.0435931 -3.75071e-23)
(22.3118 0.0294939 0)
(22.3191 0.0216109 3.76953e-23)
(22.3209 0.0216222 4.44289e-23)
(22.3144 0.00891572 2.89698e-26)
(22.311 -0.0125489 0)
(22.3101 -0.0263311 -3.1276e-24)
(0.268022 -0.757435 -7.57699e-21)
(-0.105329 0.247565 0)
(-0.556603 0.734827 -1.31155e-22)
(-0.691754 0.349268 0)
(-0.22119 -0.290719 0)
(-0.124821 -0.479594 1.08951e-21)
(-0.0594778 -0.329227 0)
(-0.0126646 0.152189 -1.91741e-21)
(-0.0116841 0.912744 -4.08001e-21)
(-0.119018 1.77606 6.71052e-21)
(-0.191591 2.63051 -9.6018e-21)
(-0.12204 3.26137 -2.35026e-20)
(0.0735639 3.25366 9.8791e-20)
(0.0654386 2.41184 1.96574e-20)
(-3.11187 12.9899 0)
(-2.97361 -4.34667 -7.96031e-19)
(8.81951 -16.0072 0)
(10.9931 -15.5373 0)
(13.2683 -14.1727 2.98447e-20)
(15.6383 -12.2889 0)
(17.9219 -9.9163 0)
(19.4144 -7.07299 -7.31961e-20)
(20.0167 -4.43686 -1.12461e-19)
(20.2895 -2.57238 0)
(20.5906 -1.41207 -1.3929e-20)
(20.9324 -0.717659 0)
(21.2507 -0.313473 2.1558e-21)
(21.5197 -0.0864799 0)
(21.7356 0.032 2.44859e-22)
(21.9049 0.089638 0)
(22.0386 0.115116 8.15429e-23)
(22.1428 0.124278 -1.34046e-22)
(22.223 0.127189 0)
(22.2839 0.129669 1.22401e-22)
(22.3286 0.132303 -1.50155e-22)
(22.3609 0.134682 1.72377e-22)
(22.3829 0.136 7.37507e-25)
(22.3964 0.133695 -1.24295e-22)
(22.4044 0.12918 1.35742e-22)
(22.4078 0.126755 -1.91923e-25)
(22.4061 0.126068 0)
(22.3998 0.125206 1.07987e-22)
(22.3898 0.123943 1.03189e-22)
(22.3769 0.12129 0)
(22.3634 0.116028 6.05785e-26)
(22.3504 0.109934 8.31676e-23)
(22.338 0.0957797 -1.12024e-22)
(22.3331 0.0795613 -4.32705e-23)
(22.3281 0.067623 2.35288e-24)
(22.3195 0.0446356 3.4452e-23)
(22.321 0.018716 -2.1376e-23)
(22.3313 0.0294852 8.08212e-23)
(22.3284 0.0514574 -6.19472e-23)
(22.3242 0.0448954 0)
(22.3289 0.0257365 3.38091e-23)
(22.3407 0.0161432 0)
(22.3467 0.0232682 5.95914e-23)
(22.3396 0.0129878 0)
(22.334 -0.0104041 0)
(22.3278 -0.0239491 0)
(-0.283879 -0.439871 6.93967e-22)
(-0.314258 0.2375 0)
(-3.6665 1.73017 0)
(-0.491612 0.152111 -7.54154e-21)
(-0.25951 -0.287562 0)
(-0.169674 -0.509569 0)
(-0.0907274 -0.439316 0)
(-0.00349047 -0.0278119 0)
(0.0726066 0.700687 0)
(0.100742 1.59878 0)
(0.152998 2.41297 0)
(0.349159 3.04938 -1.88012e-20)
(0.610399 3.21508 0)
(0.568375 2.86569 0)
(-5.09098 14.4674 -1.22207e-20)
(1.10525 -6.84046 0)
(11.8252 -17.4869 -2.27376e-23)
(12.9665 -16.8051 0)
(14.6299 -15.5805 -1.97362e-22)
(16.5074 -13.8818 0)
(18.2685 -11.3647 0)
(19.025 -7.99489 -8.13461e-20)
(19.0316 -5.03426 -4.76768e-20)
(19.2491 -2.92847 6.23069e-21)
(19.8588 -1.64164 3.65596e-20)
(20.43 -0.890676 0)
(20.9125 -0.442582 -3.0395e-22)
(21.288 -0.182247 -2.73134e-22)
(21.5731 -0.0393563 0)
(21.7836 0.03348 2.73225e-20)
(21.9438 0.0774051 0)
(22.0662 0.0971932 2.03422e-20)
(22.1574 0.106746 -5.9733e-23)
(22.2257 0.113911 1.49134e-20)
(22.2766 0.120189 0)
(22.314 0.125371 -9.70231e-21)
(22.3414 0.129408 7.38323e-21)
(22.3603 0.12959 5.40008e-21)
(22.372 0.126641 1.95015e-21)
(22.3782 0.125723 1.43011e-21)
(22.3797 0.126881 0)
(22.3767 0.12768 -8.30602e-22)
(22.3702 0.127826 -6.34677e-22)
(22.3609 0.12639 -1.71034e-24)
(22.3508 0.120913 0)
(22.3426 0.115264 -2.50296e-22)
(22.3341 0.100254 3.36406e-22)
(22.3318 0.0813876 -8.10461e-23)
(22.3308 0.0709919 0)
(22.3247 0.0492484 -1.0868e-22)
(22.3196 0.0166279 0)
(22.3237 0.0260907 0)
(22.326 0.053157 0)
(22.3289 0.0446444 0)
(22.3359 0.0227931 0)
(22.3453 0.0109678 0)
(22.3556 0.0231515 0)
(22.3518 0.0150729 5.17527e-23)
(22.3433 -0.0090199 6.44319e-23)
(22.3292 -0.0218625 -1.33185e-23)
(-0.460588 0.151169 0)
(-1.00368 0.665963 8.03562e-22)
(-0.477978 0.883782 2.79001e-19)
(-0.372268 0.115856 7.53288e-21)
(-0.291802 -0.25457 0)
(-0.244699 -0.517017 0)
(-0.167611 -0.541799 0)
(-0.0434272 -0.222019 5.6817e-22)
(0.0764812 0.447276 0)
(0.194366 1.35387 0)
(0.316223 2.15746 0)
(0.534275 2.78914 -1.44211e-20)
(0.780661 3.12603 0)
(0.708543 3.13998 0)
(-6.27324 17.0298 -4.17459e-20)
(5.76873 -11.8972 0)
(13.7862 -18.4524 0)
(14.3841 -17.6971 0)
(15.586 -16.7019 -1.83108e-20)
(17.0644 -15.2191 -4.43437e-20)
(18.2363 -12.5166 0)
(18.1242 -8.78867 -1.61261e-19)
(19.3142 -5.14916 -2.19306e-19)
(19.6957 -3.78698 -6.58001e-20)
(20.1917 -2.47469 -4.35933e-20)
(20.7612 -1.47356 0)
(21.1456 -0.8527 0)
(21.3989 -0.469642 0)
(21.5633 -0.232767 0)
(21.6661 -0.0924146 0)
(21.7219 -0.0147019 0)
(21.752 0.0179229 9.567e-21)
(21.776 0.0319897 0)
(21.7976 0.0459213 0)
(21.8175 0.0629386 -2.76426e-21)
(21.8312 0.0806771 -1.82072e-21)
(21.8375 0.0965585 1.48127e-23)
(21.8367 0.108359 0)
(21.8287 0.115154 0)
(21.8148 0.120819 0)
(21.7987 0.127492 0)
(21.7817 0.133242 0)
(21.7642 0.137039 0)
(21.7477 0.138111 0)
(21.7336 0.131371 0)
(21.7245 0.123689 0)
(21.733 0.104813 0)
(21.7701 0.082256 0)
(21.7644 0.0723925 0)
(21.8282 0.0508528 2.42762e-22)
(21.8799 0.0214937 0)
(21.7908 0.0288545 0)
(21.6923 0.050856 0)
(21.6765 0.0367663 0)
(21.6674 0.0160234 -5.7175e-23)
(21.6463 0.0025085 0)
(21.5851 0.0581195 0)
(21.4375 0.146929 0)
(21.3183 0.0422162 0)
(21.2553 -0.00476344 1.41481e-23)
(-0.499567 0.576197 -3.79242e-21)
(-0.829594 0.607542 0)
(-0.539858 0.631006 5.45725e-20)
(-0.348728 0.210486 0)
(-0.340619 -0.176522 0)
(-0.351188 -0.484748 0)
(-0.300857 -0.622403 1.19642e-21)
(-0.151775 -0.423625 0)
(0.0131763 0.180029 6.29042e-21)
(0.161896 1.04572 0)
(0.310425 1.90093 -9.57715e-21)
(0.493819 2.52681 1.03535e-20)
(0.685766 2.99617 0)
(0.576839 3.36906 0)
(-6.46096 18.3876 -4.23455e-19)
(14.5348 -17.5838 6.90711e-19)
(14.8752 -18.8307 -1.38361e-19)
(15.3079 -18.3281 -4.67003e-22)
(16.1885 -17.5869 -1.8058e-20)
(17.3334 -16.2962 0)
(17.727 -13.5191 1.18793e-19)
(20.1738 -9.01726 -1.13182e-18)
(19.4299 -6.50104 0)
(19.8172 -4.15418 7.2387e-20)
(20.089 -2.8407 0)
(20.3542 -1.79781 -3.87473e-20)
(20.6433 -1.0779 3.15993e-20)
(20.868 -0.614865 0)
(21.0167 -0.32332 0)
(21.1017 -0.14439 0)
(21.1343 -0.0397296 1.21115e-20)
(21.1284 0.0186939 9.35982e-21)
(21.0973 0.0494756 -1.39292e-20)
(21.0534 0.0691825 0)
(21.0062 0.0876427 3.61753e-21)
(20.9599 0.105747 -5.13005e-21)
(20.9142 0.121178 -1.76908e-21)
(20.8685 0.132089 2.31222e-21)
(20.8216 0.138285 -6.77542e-22)
(20.7737 0.142205 -2.83683e-22)
(20.7273 0.145703 -7.45461e-24)
(20.6844 0.148211 1.07517e-24)
(20.6456 0.148855 1.65645e-22)
(20.6125 0.146469 1.74757e-22)
(20.5853 0.13841 1.33727e-22)
(20.5653 0.12488 -7.64372e-23)
(20.5539 0.0966968 0)
(20.5422 0.0799521 -3.72459e-22)
(20.5464 0.0597955 4.28849e-25)
(20.5514 0.0223343 0)
(20.5281 0.0391991 0)
(20.4899 0.0833255 0)
(20.4646 0.0760689 0)
(20.4399 0.0529126 2.78186e-24)
(20.4104 0.0368371 0)
(20.361 0.041356 0)
(20.2837 0.109543 7.25729e-22)
(20.2518 0.173382 1.18166e-22)
(20.2235 0.0839463 -7.71145e-23)
(20.1826 0.0129046 -3.33081e-23)
(-0.569327 0.861676 0)
(-0.709917 0.57379 0)
(-0.569859 0.564329 0)
(-0.402865 0.275826 0)
(-0.404376 -0.0639476 0)
(-0.475285 -0.397727 0)
(-0.487117 -0.656353 0)
(-0.34065 -0.62183 0)
(-0.14364 -0.0944213 0)
(9.72434e-05 0.73822 0)
(0.14591 1.62946 0)
(0.278951 2.29968 0)
(0.370344 2.83769 0)
(0.254533 3.62432 0)
(-10.662 19.4059 0)
(15.5199 -18.6081 0)
(15.5671 -18.973 0)
(15.8847 -18.7561 0)
(16.525 -18.2677 0)
(17.312 -17.1509 0)
(17.4665 -14.7441 0)
(18.6533 -10.442 0)
(18.2185 -7.12795 0)
(18.5455 -4.70577 0)
(18.9239 -3.19932 0)
(19.2387 -2.11687 0)
(19.5477 -1.33557 2.85733e-20)
(19.8126 -0.798537 0)
(20.0096 -0.441636 0)
(20.1378 -0.210376 0)
(20.2048 -0.0654375 0)
(20.2214 0.0213251 0)
(20.199 0.0703488 0)
(20.1496 0.0991887 0)
(20.0857 0.120304 0)
(20.0166 0.138599 0)
(19.9469 0.154013 0)
(19.8779 0.165281 0)
(19.8097 0.172001 0)
(19.7427 0.175468 0)
(19.6788 0.1771 0)
(19.6199 0.176943 0)
(19.5673 0.174365 0)
(19.5221 0.168243 0)
(19.4844 0.156707 0)
(19.4539 0.138852 0)
(19.4282 0.111273 0)
(19.4024 0.0883886 0)
(19.388 0.0636578 4.92795e-23)
(19.3629 0.0392405 1.19323e-22)
(19.3234 0.0578238 0)
(19.3 0.0915564 0)
(19.2889 0.0878232 0)
(19.266 0.0696523 0)
(19.2301 0.0610174 8.64758e-23)
(19.1783 0.0771388 -1.04916e-22)
(19.1255 0.135544 2.23207e-22)
(19.1279 0.167873 0)
(19.1306 0.100482 -4.03477e-23)
(19.1075 0.0303469 0)
(-0.62323 1.06199 3.21823e-21)
(-0.649254 0.612959 0)
(-0.577552 0.500517 -7.79703e-22)
(-0.455647 0.31096 2.2208e-21)
(-0.457321 0.0579204 0)
(-0.580115 -0.24959 0)
(-0.693108 -0.606281 0)
(-0.60767 -0.793935 -2.86831e-21)
(-0.403898 -0.368235 5.09826e-21)
(-0.264542 0.440459 0)
(-0.155236 1.35687 -6.56118e-21)
(-0.0783434 2.11189 0)
(-0.0836414 2.7137 0)
(-0.417422 3.69115 4.86406e-20)
(-16.8044 20.1965 -5.37611e-18)
(15.6212 -18.6174 -1.08953e-20)
(15.9291 -19.0802 -2.49225e-23)
(16.1913 -19.0475 0)
(16.6634 -18.7666 -3.5368e-20)
(17.0512 -17.8396 1.00834e-19)
(17.5773 -15.7122 2.17805e-21)
(16.6899 -11.0216 -3.53459e-20)
(16.4573 -7.67566 4.73686e-20)
(16.7508 -5.30302 4.21002e-20)
(17.2193 -3.66522 0)
(17.6601 -2.49495 7.96139e-23)
(18.0596 -1.64194 2.5167e-20)
(18.4031 -1.03197 0)
(18.6761 -0.60672 1.69824e-20)
(18.8752 -0.316875 1.36434e-20)
(19.0052 -0.124253 -1.08557e-20)
(19.0752 -0.000144958 8.4858e-21)
(19.0955 0.0767874 0)
(19.0771 0.123974 0)
(19.0322 0.15496 0)
(18.9719 0.177591 0)
(18.9042 0.194693 1.72214e-21)
(18.8333 0.206628 -1.11678e-21)
(18.7614 0.213473 -9.359e-25)
(18.69 0.21609 -3.02575e-22)
(18.6212 0.215545 -4.27872e-23)
(18.557 0.212191 0)
(18.4991 0.205739 -1.27958e-22)
(18.4485 0.195404 0)
(18.4053 0.180019 0)
(18.3686 0.158809 0)
(18.3356 0.131214 0)
(18.3033 0.104786 0)
(18.2749 0.0796038 0)
(18.238 0.0630833 -1.38432e-22)
(18.198 0.0760796 0)
(18.1768 0.0977777 -1.68576e-22)
(18.1656 0.0973205 -8.53662e-23)
(18.1443 0.086932 6.43718e-23)
(18.1107 0.0855241 9.60786e-23)
(18.0689 0.104987 0)
(18.0395 0.145486 1.44919e-22)
(18.0499 0.157208 7.72147e-23)
(18.0599 0.105696 0)
(18.0458 0.0450433 -1.45762e-23)
(-0.599531 1.19654 -2.63221e-21)
(-0.615909 0.686757 0)
(-0.57455 0.481748 0)
(-0.487261 0.325063 -1.6929e-21)
(-0.472563 0.1612 0)
(-0.612604 -0.0517233 -2.39803e-21)
(-0.832796 -0.428718 -4.71224e-21)
(-0.912548 -0.86573 0)
(-0.78067 -0.612204 1.96275e-20)
(-0.669532 0.14812 -7.6121e-21)
(-0.578124 1.0901 1.67809e-20)
(-0.521344 1.91878 0)
(-0.582469 2.64767 0)
(-14.2013 10.4589 0)
(-1.02815 6.23934 -4.46696e-19)
(15.9997 -18.8524 8.00346e-24)
(16.1282 -19.1434 0)
(16.3242 -19.2425 0)
(16.6563 -19.1073 3.92896e-20)
(16.84 -18.4666 0)
(16.8961 -15.276 -3.12666e-19)
(15.0355 -11.3274 0)
(14.7613 -8.22082 3.30345e-20)
(14.9962 -5.9096 3.21631e-20)
(15.4548 -4.20568 2.93511e-20)
(15.9486 -2.94794 2.55048e-20)
(16.4136 -2.01371 0)
(16.8244 -1.32641 0)
(17.1664 -0.829065 -1.51245e-20)
(17.4347 -0.475392 0)
(17.6313 -0.228618 9.90469e-21)
(17.7629 -0.0601219 7.82313e-21)
(17.8383 0.052032 0)
(17.8672 0.125358 4.57391e-21)
(17.8604 0.173789 3.3688e-21)
(17.829 0.206915 -2.5303e-24)
(17.7821 0.229946 1.65853e-21)
(17.726 0.245164 1.0743e-21)
(17.6649 0.253651 0)
(17.6017 0.256435 2.87429e-22)
(17.539 0.254551 -4.02328e-23)
(17.4793 0.24861 -1.36099e-22)
(17.4243 0.238721 1.2377e-22)
(17.3754 0.224564 -1.45937e-22)
(17.3326 0.205632 1.43893e-22)
(17.2951 0.181712 1.27493e-22)
(17.2606 0.153499 0)
(17.2267 0.125621 1.16327e-22)
(17.1931 0.101217 -9.994e-23)
(17.155 0.0875125 -1.33611e-22)
(17.1193 0.09347 0)
(17.0986 0.105535 0)
(17.0856 0.10653 0)
(17.0667 0.102372 0)
(17.0397 0.105596 0)
(17.0112 0.122973 7.63186e-23)
(16.9974 0.14761 1.01143e-22)
(17.0087 0.147528 0)
(17.0184 0.107 1.90909e-25)
(17.0093 0.0567642 -1.18018e-23)
(-0.712042 1.13089 0)
(-0.553818 0.791915 0)
(-0.551974 0.506456 -1.13193e-21)
(-0.509883 0.327324 0)
(-0.455828 0.208808 0)
(-0.537996 0.120689 -8.8849e-21)
(-0.906498 -0.172593 -7.52844e-20)
(-1.58905 -0.748108 0)
(-1.37604 -0.79352 0)
(-1.25101 -0.13693 -4.42283e-23)
(-1.15659 0.814441 0)
(-1.11133 1.71703 0)
(-10.0672 7.04611 1.67944e-18)
(-16.9263 12.9538 1.21364e-18)
(16.0165 -18.5462 6.6681e-20)
(16.0491 -18.907 -1.92413e-21)
(16.178 -19.1876 -2.97962e-21)
(16.3364 -19.3623 1.00708e-23)
(16.5246 -19.335 -3.26551e-20)
(16.6172 -18.8374 0)
(15.0105 -15.1865 0)
(13.749 -11.5361 -3.46874e-20)
(13.3798 -8.69123 -4.53555e-20)
(13.4947 -6.47087 4.8363e-20)
(13.8619 -4.75266 2.32947e-20)
(14.3213 -3.43485 0)
(14.7897 -2.429 -1.83588e-20)
(15.2256 -1.66835 1.57726e-20)
(15.6068 -1.10035 -1.32462e-20)
(15.9232 -0.681987 0)
(16.1726 -0.378352 8.86954e-21)
(16.3583 -0.161502 -7.05222e-21)
(16.4863 -0.00938037 0)
(16.5645 0.0956007 4.2089e-21)
(16.6019 0.167516 -3.12316e-21)
(16.6083 0.216894 -2.23693e-21)
(16.5926 0.250613 3.07534e-21)
(16.562 0.272644 0)
(16.5218 0.285268 5.62371e-22)
(16.4761 0.290086 0)
(16.4281 0.288402 -1.24564e-23)
(16.3806 0.281164 4.58544e-25)
(16.3357 0.268921 1.26675e-22)
(16.2947 0.251894 -1.47361e-22)
(16.2582 0.23019 0)
(16.2253 0.204228 -1.3362e-22)
(16.1945 0.175332 -1.14853e-22)
(16.1638 0.147032 6.35404e-25)
(16.1323 0.123215 1.00425e-22)
(16.0993 0.109384 0)
(16.0703 0.109101 0)
(16.0521 0.114145 0)
(16.0398 0.115102 8.94484e-23)
(16.0252 0.114544 -8.19352e-23)