/*--------------------------------*- C++ -*----------------------------------*\
| =========                 |                                                 |
| \\      /  F ield         | OpenFOAM: The Open Source CFD Toolbox           |
|  \\    /   O peration     | Version:  v1912                                 |
|   \\  /    A nd           | Website:  www.openfoam.com                      |
|    \\/     M anipulation  |                                                 |
\*---------------------------------------------------------------------------*/
FoamFile
{
    version     2.0;
    format      ascii;
    class       surfaceScalarField;
    location    "8";
    object      alphaPhi0.water;
}
// * * * * * * * * * * * * * * * * * * * * * * * * * * * * * * * * * * * * * //

dimensions      [0 3 -1 0 0 0 0];
oriented        oriented;


internalField   nonuniform List<scalar> 
40282
(
0.00316115
0.00190046
1.9624
-1.97023
1.967
0.00323054
-1.9614
1.95329
0.00810312
-1.94373
1.93297
0.0107679
-1.92002
1.90557
0.0144461
-1.89069
1.87541
0.0152785
-1.86004
1.84468
0.0153631
-1.82964
1.81603
0.0136059
-1.80394
1.79182
0.0121258
-1.77761
1.75931
0.0183027
-1.73485
1.70215
0.0326977
-1.65933
1.6048
0.0545277
-1.53725
1.45567
0.0815798
-1.35945
1.2484
0.111044
-1.12283
0.983743
0.139091
-0.833555
0.676754
0.156801
-0.519567
0.368743
0.150823
-0.230513
0.110483
0.12003
-0.0140984
-0.0525101
0.0666085
0.0830601
-0.0696102
-0.0134499
-0.00308965
0.00419315
1.89587
-1.89269
1.88779
-0.00998962
0.0148898
-1.88085
1.87202
-0.0172813
0.0261116
-1.86133
1.84882
-0.0233813
0.0358852
-1.83512
1.82028
-0.0289496
0.0437849
-1.80403
1.78656
-0.0320106
0.0494813
-1.76789
1.74754
-0.0331762
0.0535243
-1.72425
1.69592
-0.0343985
0.0627319
-1.66097
1.61898
-0.0411554
0.083147
-1.57052
1.51653
-0.0580904
0.112072
-1.45796
1.39551
-0.0854998
0.147948
-1.32973
1.26105
-0.121102
0.189782
-1.18988
1.11665
-0.161776
0.234999
-1.04188
0.966161
-0.203079
0.278801
-0.890166
0.814567
-0.238259
0.313857
-0.73985
0.666167
-0.256992
0.330675
-0.593377
0.521237
-0.248506
0.320647
-0.449533
0.378017
-0.209215
0.280731
-0.306233
0.233374
-0.140722
0.213581
-0.158442
0.0807709
-0.0422652
0.119937
-0.00531949
0.00653826
1.82779
-1.82442
1.81891
-0.0204681
0.0259811
-1.81166
1.80219
-0.0354058
0.0448807
-1.79068
1.77779
-0.0488955
0.0617893
-1.76301
1.74601
-0.0597553
0.0767487
-1.72723
1.70584
-0.0688326
0.0902263
-1.67959
1.64703
-0.0796667
0.112221
-1.60828
1.56416
-0.101696
0.145815
-1.51553
1.46309
-0.133369
0.185816
-1.40739
1.34898
-0.17081
0.229224
-1.28838
1.22617
-0.212628
0.274839
-1.16293
1.09924
-0.257804
0.321493
-1.03566
0.972716
-0.30392
0.366869
-0.910828
0.850322
-0.346469
0.406974
-0.791363
0.733906
-0.378822
0.436278
-0.677664
0.622086
-0.39318
0.448758
-0.566388
0.509618
-0.383181
0.439951
-0.450743
0.388732
-0.347025
0.409036
-0.322616
0.251538
-0.287751
0.358829
-0.174757
0.091469
-0.20588
0.289168
-0.00772858
0.00874807
1.76248
-1.75925
1.75357
-0.0311808
0.0368589
-1.74539
1.73598
-0.055048
0.0644565
-1.72461
1.71046
-0.0753422
0.0894941
-1.69413
1.67471
-0.0947711
0.114196
-1.65007
1.61931
-0.116772
0.147526
-1.58295
1.54191
-0.151003
0.192038
-1.49707
1.44909
-0.193663
0.241643
-1.39849
1.34573
-0.239997
0.292762
-1.29119
1.23526
-0.287789
0.343721
-1.17832
1.12078
-0.335903
0.393445
-1.06303
1.00544
-0.383074
0.440659
-0.948373
0.892108
-0.427134
0.4834
-0.836849
0.782689
-0.46469
0.518851
-0.729579
0.677317
-0.491359
0.54362
-0.625542
0.57374
-0.502702
0.554504
-0.521277
0.467448
-0.495742
0.549572
-0.411526
0.352829
-0.470298
0.528996
-0.290762
0.22485
-0.428725
0.494636
-0.15473
0.0800198
-0.370029
0.444739
-0.00984426
0.0111669
1.69899
-1.69548
1.69007
-0.0430463
0.0484507
-1.68301
1.67299
-0.0738748
0.0838935
-1.66043
1.64524
-0.104352
0.119539
-1.62541
1.59963
-0.137128
0.162901
-1.56827
1.53229
-0.182235
0.218212
-1.49261
1.44992
-0.235191
0.277881
-1.40476
1.35754
-0.29043
0.337645
-1.30862
1.25832
-0.345403
0.395709
-1.20691
1.15467
-0.39882
0.451056
-1.10188
1.04877
-0.449685
0.50279
-0.995602
0.942587
-0.496786
0.549801
-0.889908
0.837698
-0.538398
0.590608
-0.786027
0.734887
-0.57224
0.62338
-0.684188
0.633748
-0.595743
0.646183
-0.583305
0.532519
-0.606649
0.657434
-0.481004
0.428343
-0.603761
0.656421
-0.374131
0.317995
-0.587429
0.643564
-0.259628
0.198799
-0.559056
0.619885
-0.135348
0.0691261
-0.51623
0.582452
-0.0124187
0.0134312
1.63849
-1.63522
1.62996
-0.0534596
0.0587222
-1.62189
1.6118
-0.0944479
0.10454
-1.59835
1.57939
-0.136603
0.155567
-1.55453
1.52468
-0.1917
0.221548
-1.49089
1.45395
-0.255709
0.292645
-1.41446
1.37283
-0.321027
0.362654
-1.32941
1.28449
-0.384667
0.429586
-1.23832
1.1911
-0.445391
0.492606
-1.14305
1.09436
-0.502406
0.551097
-1.0452
0.995742
-0.554922
0.604382
-0.946126
0.896476
-0.60196
0.65161
-0.846886
0.797417
-0.642273
0.691743
-0.748084
0.698861
-0.67441
0.723633
-0.649673
0.600398
-0.696933
0.746208
-0.550872
0.5009
-0.708752
0.758724
-0.450265
0.398745
-0.709479
0.760999
-0.346128
0.292228
-0.699546
0.753446
-0.236899
0.180037
-0.67966
0.736521
-0.121588
0.0615186
-0.646461
0.706531
-0.0142328
0.0150726
1.57969
-1.57668
1.57114
-0.0645379
0.0700817
-1.56393
1.55284
-0.114886
0.125977
-1.53583
1.51312
-0.177064
0.199773
-1.48588
1.45514
-0.252719
0.283456
-1.42162
1.3858
-0.329874
0.365695
-1.34804
1.3086
-0.404024
0.443456
-1.26773
1.22562
-0.473942
0.516057
-1.18243
1.13833
-0.539097
0.583196
-1.09346
1.04796
-0.599024
0.64453
-1.00193
0.955495
-0.653153
0.699591
-0.908736
0.86173
-0.700762
0.747768
-0.814531
0.767168
-0.740998
0.788361
-0.719646
0.671946
-0.772958
0.820658
-0.62402
0.575799
-0.795849
0.84407
-0.527193
0.478099
-0.809174
0.858268
-0.428405
0.378003
-0.812887
0.863289
-0.326791
0.274686
-0.807365
0.85947
-0.221629
0.167589
-0.792861
0.846901
-0.112565
0.0565901
-0.765399
0.821375
-0.0160471
0.0171436
1.52292
-1.52015
1.51575
-0.0750765
0.079483
-1.50751
1.49327
-0.138845
0.153083
-1.4735
1.44952
-0.223853
0.247838
-1.42234
1.39262
-0.314409
0.344126
-1.36078
1.3271
-0.401169
0.434847
-1.29181
1.25508
-0.482272
0.518999
-1.21707
1.17792
-0.557442
0.596593
-1.13775
1.09666
-0.626551
0.667638
-1.05476
1.01215
-0.689365
0.731983
-0.96889
0.925069
-0.745503
0.789324
-0.880743
0.83596
-0.794458
0.83924
-0.790757
0.745156
-0.835657
0.881259
-0.699162
0.65277
-0.868539
0.91493
-0.605961
0.558702
-0.892664
0.939923
-0.510954
0.462674
-0.907825
0.956106
-0.413814
0.364333
-0.914107
0.963588
-0.314195
0.263379
-0.911803
0.962619
-0.211876
0.159698
-0.900868
0.953045
-0.106882
0.0535028
-0.876886
0.930265
-0.018163
0.0189932
1.46858
-1.46633
1.46124
-0.0840304
0.0891177
-1.45041
1.43414
-0.168872
0.185145
-1.41382
1.39051
-0.272105
0.295411
-1.36485
1.33718
-0.373436
0.401099
-1.30777
1.27677
-0.467828
0.498829
-1.24432
1.21055
-0.554918
0.588691
-1.17555
1.13941
-0.634931
0.671066
-1.10223
1.06406
-0.707981
0.746145
-1.02499
0.985071
-0.773989
0.813908
-0.944364
0.902914
-0.832717
0.874166
-0.860766
0.817956
-0.883814
0.926625
-0.774509
0.730447
-0.926889
0.970951
-0.685782
0.640521
-0.961573
1.00683
-0.594666
0.548215
-0.987612
1.03406
-0.501162
0.453502
-1.00492
1.05258
-0.405233
0.356358
-1.01362
1.0625
-0.306884
0.256832
-1.01391
1.06396
-0.206229
0.155122
-1.00554
1.05665
-0.103573
0.0516941
-0.983733
1.03561
-0.0195392
0.0198581
1.41656
-1.41422
1.40725
-0.0952507
0.102227
-1.39486
1.37843
-0.202006
0.218429
-1.35914
1.33763
-0.318334
0.339843
-1.31425
1.2892
-0.427994
0.453048
-1.2626
1.23457
-0.528918
0.55695
-1.20518
1.17449
-0.621528
0.652212
-1.14258
1.10949
-0.70632
0.73941
-1.07528
1.03998
-0.783548
0.818841
-1.00365
0.966325
-0.853234
0.890562
-0.928034
0.888811
-0.915232
0.954455
-0.848684
0.807678
-0.96929
1.0103
-0.765814
0.723113
-1.01511
1.05781
-0.679592
0.635267
-1.05243
1.09675
-0.590157
0.54428
-1.08104
1.12692
-0.497656
0.45031
-1.10092
1.14826
-0.402274
0.353582
-1.11212
1.16081
-0.304279
0.254418
-1.11476
1.16462
-0.204062
0.153285
-1.10843
1.15921
-0.10218
0.050892
-1.08803
1.13932
-0.0200343
0.0201974
1.3659
-1.36276
1.35453
-0.110118
0.118354
-1.34212
1.32687
-0.234687
0.24994
-1.30952
1.29043
-0.360575
0.379662
-1.26979
1.24768
-0.477096
0.499202
-1.22418
1.19932
-0.583907
0.608763
-1.17315
1.14568
-0.68184
0.709303
-1.11696
1.08699
-0.771532
0.801496
-1.05581
1.02343
-0.853312
0.885693
-0.989872
0.955144
-0.927262
0.961989
-0.919264
0.882246
-0.993283
1.0303
-0.844102
0.804845
-1.05117
1.09042
-0.76449
0.723051
-1.10065
1.14209
-0.680547
0.637
-1.14148
1.18502
-0.592437
0.546891
-1.17344
1.21899
-0.500404
0.453023
-1.19645
1.24383
-0.404807
0.355824
-1.21048
1.25947
-0.30615
0.255875
-1.21553
1.2658
-0.205096
0.153923
-1.21103
1.2622
-0.102484
0.0509644
-1.19157
1.24309
-0.0204386
0.0208369
1.31674
-1.31267
1.30433
-0.126936
0.135277
-1.29303
1.27972
-0.26456
0.277872
-1.26482
1.24853
-0.397716
0.414006
-1.23092
1.212
-0.520119
0.539036
-1.19179
1.1703
-0.632391
0.653886
-1.14751
1.12343
-0.735575
0.759657
-1.09805
1.07136
-0.83037
0.857061
-1.04335
1.01402
-0.917142
0.946472
-0.98336
0.951358
-0.995995
1.028
-0.918006
0.883295
-1.06685
1.10156
-0.84722
0.809775
-1.1295
1.16694
-0.77096
0.730779
-1.18366
1.22384
-0.689243
0.646372
-1.22902
1.2719
-0.602193
0.556749
-1.2653
1.31074
-0.510092
0.46229
-1.29225
1.34005
-0.413427
0.363601
-1.30971
1.35953
-0.312927
0.261535
-1.31748
1.36887
-0.209568
0.157184
-1.31483
1.36721
-0.104562
0.0519402
-1.29601
1.34864
-0.0213991
0.0221407
1.26937
-1.26503
1.25751
-0.143449
0.150969
-1.24798
1.23705
-0.29026
0.301191
-1.22493
1.21169
-0.429076
0.442324
-1.19731
1.18177
-0.556604
0.572139
-1.16505
1.1471
-0.673999
0.691947
-1.12789
1.10739
-0.782392
0.802896
-1.08555
1.06235
-0.882503
0.905703
-1.03775
1.01171
-0.974707
1.00075
-0.984202
0.955179
-1.05912
1.08814
-0.924609
0.892455
-1.13566
1.16781
-0.858684
0.823264
-1.20409
1.23951
-0.78617
0.747383
-1.26409
1.30287
-0.706893
0.664703
-1.31523
1.35742
-0.620831
0.575311
-1.35705
1.40257
-0.528198
0.479572
-1.38911
1.43773
-0.429535
0.378217
-1.41095
1.46227
-0.325776
0.272393
-1.42211
1.47549
-0.218277
0.163658
-1.42157
1.47619
-0.108798
0.0540294
-1.40323
1.458
-0.0229961
0.0239513
1.22346
-1.21957
1.21347
-0.157964
0.16407
-1.20611
1.19782
-0.311004
0.319294
-1.18867
1.17864
-0.454198
0.464228
-1.16767
1.15568
-0.586173
0.598154
-1.14263
1.12843
-0.708347
0.722548
-1.11302
1.09634
-0.821866
0.838544
-1.07833
1.05893
-0.927444
0.946847
-1.03807
1.01569
-1.02546
1.04784
-0.991723
0.966104
-1.11603
1.14165
-0.93876
0.909622
-1.1991
1.22824
-0.878617
0.845677
-1.2744
1.30734
-0.810737
0.773735
-1.34154
1.37854
-0.734624
0.693366
-1.39997
1.44122
-0.649944
0.604362
-1.44899
1.49457
-0.556656
0.506892
-1.48781
1.53758
-0.455179
0.401669
-1.51556
1.56907
-0.346562
0.290107
-1.53128
1.58773
-0.232605
0.174405
-1.53348
1.59168
-0.115918
0.057697
-1.5156
1.57382
-0.0249118
0.0258614
1.17966
-1.17648
1.17212
-0.169427
0.173788
-1.16712
1.1616
-0.326335
0.331852
-1.15553
1.14882
-0.472761
0.47947
-1.14137
1.13307
-0.608494
0.616792
-1.12383
1.11356
-0.735032
0.745302
-1.10217
1.08958
-0.853483
0.866074
-1.0757
1.06046
-0.964539
0.979786
-1.04376
1.02551
-1.06859
1.08684
-1.00562
0.983986
-1.1658
1.18743
-0.960507
0.935068
-1.25613
1.28157
-0.907554
0.877844
-1.33936
1.36907
-0.845815
0.811345
-1.41506
1.44953
-0.774319
0.734628
-1.48256
1.52225
-0.692182
0.646912
-1.54091
1.58618
-0.598786
0.547813
-1.58889
1.63986
-0.494063
0.437672
-1.62496
1.68135
-0.378863
0.317952
-1.64732
1.70823
-0.255364
0.191644
-1.65359
1.71731
-0.12751
0.0640808
-1.63645
1.69988
-0.0267111
0.0274543
1.13758
-1.13521
1.13274
-0.177276
0.179748
-1.13015
1.12743
-0.336044
0.338763
-1.12446
1.1211
-0.484597
0.487959
-1.11721
1.11266
-0.623337
0.627883
-1.10735
1.10115
-0.753703
0.759899
-1.09397
1.08572
-0.876718
0.884972
-1.07629
1.06559
-0.993049
1.00375
-1.05351
1.03994
-1.10312
1.11668
-1.02477
1.00787
-1.20716
1.22406
-0.989088
0.968286
-1.30525
1.32605
-0.945295
0.919936
-1.39729
1.42264
-0.892017
0.861336
-1.48291
1.51359
-0.827679
0.79083
-1.56144
1.59829
-0.750572
0.706702
-1.63178
1.67565
-0.659038
0.60744
-1.69224
1.74383
-0.551835
0.49224
-1.74043
1.80003
-0.4288
0.361834
-1.7732
1.84016
-0.29188
0.21978
-1.78638
1.85848
-0.146873
0.0757822
-1.77118
1.84227
-0.0280275
0.028434
1.09714
-1.09611
1.09553
-0.181296
0.181878
-1.09531
1.09531
-0.340131
0.340129
-1.09535
1.09527
-0.489701
0.489789
-1.09488
1.09406
-0.630608
0.631427
-1.09268
1.09062
-0.764107
0.766169
-1.08777
1.08404
-0.891095
0.894827
-1.07932
1.07351
-1.0122
1.01801
-1.0665
1.05818
-1.1279
1.13623
-1.04841
1.03705
-1.23857
1.24993
-1.02394
1.0089
-1.34446
1.3595
-0.991732
0.972201
-1.44572
1.46525
-0.950052
0.924998
-1.54225
1.5673
-0.896717
0.864857
-1.63362
1.66548
-0.829032
0.788827
-1.71886
1.75906
-0.743812
0.693551
-1.7961
1.84636
-0.637635
0.575726
-1.86218
1.92409
-0.507618
0.433345
-1.91215
1.98642
-0.353327
0.268654
-1.93861
2.02328
-0.181796
0.099047
-1.92946
2.01221
-0.0286429
0.028664
1.05809
-1.05823
1.05942
-0.181546
0.180352
-1.06139
1.06393
-0.338806
0.336266
-1.06681
1.06982
-0.488272
0.485265
-1.07278
1.07555
-0.630408
0.627636
-1.07801
1.08003
-0.766174
0.764151
-1.08152
1.08239
-0.896288
0.895421
-1.08254
1.08188
-1.02133
1.02199
-1.0803
1.07771
-1.14184
1.14443
-1.07398
1.06897
-1.25836
1.26337
-1.06252
1.05446
-1.37141
1.37948
-1.04457
1.0326
-1.48152
1.49348
-1.01828
1.00126
-1.58907
1.60609
-0.981144
0.957475
-1.69424
1.7179
-0.929708
0.897205
-1.79673
1.82924
-0.859223
0.814905
-1.89534
1.93966
-0.76328
0.703282
-1.9871
2.0471
-0.633807
0.553849
-2.06585
2.14581
-0.462775
0.361041
-2.11995
2.22168
-0.252351
0.150151
-2.13058
2.23278
-0.0284982
0.0281565
1.02053
-1.02193
1.02469
-0.178306
0.175545
-1.02861
1.03341
-0.332489
0.327693
-1.03882
1.04463
-0.480731
0.47492
-1.05066
1.05677
-0.623075
0.616971
-1.06283
1.06875
-0.760075
0.754155
-1.07444
1.07983
-0.892215
0.886824
-1.08485
1.08942
-1.02
1.01543
-1.09347
1.09692
-1.14402
1.14057
-1.09968
1.10163
-1.26499
1.26303
-1.10266
1.10261
-1.38372
1.38376
-1.10133
1.0986
-1.50116
1.50389
-1.09418
1.08777
-1.61834
1.62475
-1.079
1.06743
-1.73636
1.74793
-1.0525
1.03352
-1.85629
1.87528
-1.00957
0.979526
-1.97886
2.00891
-0.941896
0.89476
-2.10373
2.15087
-0.835647
0.761443
-2.22752
2.30172
-0.668446
0.553315
-2.33888
2.45401
-0.417874
0.28241
-2.41587
2.55134
-0.0276657
0.027034
0.984408
-0.986535
0.99058
-0.172039
0.167995
-0.996102
1.00278
-0.321799
0.315121
-1.01033
1.01855
-0.467724
0.459512
-1.02724
1.03629
-0.609198
0.600147
-1.0456
1.05508
-0.746263
0.73678
-1.06468
1.07435
-0.879115
0.869447
-1.08404
1.09372
-1.00814
0.998464
-1.10334
1.11287
-1.13395
1.12443
-1.12226
1.13144
-1.25737
1.24819
-1.14037
1.14897
-1.37945
1.37085
-1.15714
1.1648
-1.50147
1.49382
-1.17182
1.17805
-1.62504
1.61881
-1.18331
1.18737
-1.75212
1.74805
-1.18995
1.19067
-1.88529
1.88457
-1.18902
1.18429
-2.02805
2.03278
-1.17544
1.16095
-2.18536
2.19986
-1.13841
1.10404
-2.36452
2.39889
-1.05149
0.969921
-2.57628
2.65785
-0.847417
0.742924
-2.85287
2.95737
-0.00894117
0.0164934
-0.00725198
0.00398544
-0.00398544
-1.21277e-20
-0.00332105
-0.0245014
0.00656778
0.159697
-0.251149
0.0901118
0.0584256
-0.076555
-1.02859e-06
0.0913066
-0.0416077
-0.0287734
0.150661
-0.761067
0.610996
1.8774
-1.93692
0.609597
2.30022
-1.44613
-2.06376
-1.11979
2.91172
-2.09921
-3.93394
4.35707
-0.448803
-4.72406
4.99333
-0.406331
-5.46356
5.55114
-0.255022
-5.71673
5.53514
0.0141579
-1.34419
0.475445
0.00419334
-1.04234
0.93777
-0.00109381
-1.1086
-3.01463e-05
-0.00113606
1.86284e-08
5.62354e-07
-2.68005e-09
-4.99136e-07
3.92145e-07
1.04612e-07
-4.25142e-13
5.17977e-12
3.08843e-12
-1.88691e-11
9.18524e-13
6.4884e-13
-6.82904e-16
7.08714e-21
4.69792e-19
-6.0337e-26
4.11816e-31
5.16632e-30
-3.12518e-36
1.92407e-41
1.19615e-40
-1.0493e-46
5.16533e-52
2.18378e-51
-2.1288e-57
1.01993e-62
2.46545e-62
-4.24923e-68
1.68165e-73
2.70358e-73
-6.26309e-79
2.18226e-84
6.26353e-84
-1.29099e-86
-4.72242e-85
-2.14324e-86
8.13459e-86
-9.05519e-87
-3.87155e-88
7.88244e-88
-5.71024e-89
-2.31807e-90
3.56122e-90
-1.95441e-91
-7.60719e-93
9.58793e-93
-4.25306e-94
-1.59461e-95
1.72052e-95
-6.38963e-97
-2.33207e-98
2.19024e-98
-6.95794e-100
-2.471e-101
2.0559e-101
-5.66633e-103
-1.97382e-104
1.4603e-104
-3.52695e-106
-1.20955e-107
7.99616e-108
-1.70446e-109
-5.8045e-111
3.4204e-111
-6.46948e-113
-2.20168e-114
1.15462e-114
-1.94639e-116
-6.6218e-118
3.10076e-118
-4.67127e-120
-1.61e-121
6.65815e-122
-8.98328e-124
-3.13737e-125
1.14778e-125
-1.38927e-127
-4.92997e-129
1.59288e-129
-1.73021e-131
-6.30673e-133
1.7805e-133
-1.73572e-135
-6.50791e-137
1.60284e-137
-1.4014e-139
-5.43742e-141
1.15978e-141
-9.0812e-144
-3.66792e-145
6.724e-146
-4.70492e-148
-1.98926e-149
3.10913e-150
-1.93829e-152
-8.63615e-154
1.13894e-154
-6.30055e-157
-2.9834e-158
3.27683e-159
-1.59984e-161
-8.14892e-163
7.31777e-164
-3.12999e-166
-1.73241e-167
1.24923e-168
-4.64139e-171
-2.80955e-172
1.60086e-173
-5.10973e-176
-3.43895e-177
1.50313e-178
-4.0572e-181
-3.11099e-182
9.99536e-184
-2.23383e-186
-1.99552e-187
4.4964e-189
-8.0778e-192
-8.67812e-193
1.28106e-194
-1.76812e-197
-2.40735e-198
2.08501e-200
-2.04306e-203
-3.8878e-204
1.60768e-206
-9.44147e-210
-3.07389e-210
-0.0140045
0.0320057
-0.000972065
0.000285008
-0.0115637
1.58262e-05
7.48485e-05
0.247474
-0.233899
0.0278888
-0.0428343
0.216976
-0.203552
-0.0884654
0.0736317
8.12935e-05
-8.22796e-05
1.81515e-06
-8.50775e-07
-2.69485e-05
-5.76617e-05
8.98584e-05
3.93964e-07
0.20142
-1.03453
-0.350135
0.0925945
0.895342
-0.428152
-0.640365
0.285735
0.510624
-0.42127
3.70572
-2.50986
-0.77729
1.46823
3.70352
-3.132
-1.17577
0.823403
0.988192
-2.8337e-06
-0.14346
-1.77435e-18
0.143461
-2.19823e-07
5.94639e-20
-9.00437e-22
8.66119e-05
-8.66119e-05
2.24215e-22
-0.000111381
0.00120488
-0.0010935
-0.000980803
0.000991276
4.40718e-07
-0.000642733
-0.000580169
0.000353603
3.59212e-05
8.16066e-06
-0.00027614
8.05453e-05
3.32724e-05
0
9.50028e-10
-9.50028e-10
-1.06222e-23
1.36123e-24
-1.24483e-09
9.70246e-10
1.89562e-09
-1.15565e-09
-1.02601e-09
4.84817e-11
-3.52251e-12
1.52447e-10
-8.56856e-14
9.222e-17
-1.94029e-13
9.18388e-17
-2.11323e-20
1.93523e-25
-1.54516e-20
1.68156e-22
-1.75394e-30
1.2413e-35
-1.37819e-31
6.78175e-33
-6.08554e-41
3.94177e-46
-2.90295e-42
1.48102e-43
-2.09388e-51
1.37501e-56
-5.08813e-53
6.48427e-54
-2.63659e-61
5.05394e-66
-1.56642e-63
1.68304e-63
-7.15608e-71
1.33747e-75
-2.26448e-73
3.38753e-73
-1.6521e-80
3.78122e-82
-1.07818e-83
5.42915e-83
2.98528e-81
-7.0552e-82
5.59631e-85
-9.41645e-83
9.1108e-83
-8.5176e-84
7.24502e-87
-1.06873e-84
6.40653e-85
-4.08784e-86
3.56624e-89
-4.86373e-87
2.28212e-87
-1.13695e-88
1.01559e-91
-1.29556e-89
5.12498e-90
-2.10939e-91
1.91695e-94
-2.31408e-92
7.98432e-93
-2.79455e-94
2.58145e-97
-2.97835e-95
9.07866e-96
-2.7477e-97
2.55998e-100
-2.85217e-98
7.76899e-99
-2.05684e-100
1.93173e-103
-2.09256e-101
5.11045e-102
-1.19374e-103
1.12917e-106
-1.19661e-104
2.62536e-105
-5.44472e-107
5.19573e-110
-5.41761e-108
1.06602e-108
-1.97231e-110
1.90368e-113
-1.96007e-111
3.45223e-112
-5.7209e-114
5.57452e-117
-5.69383e-115
8.98138e-116
-1.3364e-117
1.32444e-120
-1.34598e-118
1.88601e-119
-2.52504e-121
2.53948e-124
-2.57891e-122
3.20783e-123
-3.86857e-125
3.95531e-128
-4.02177e-126
4.42857e-127
-4.81248e-129
5.02583e-132
-5.13184e-130
4.96355e-131
-4.85895e-133
5.18482e-136
-5.33458e-134
4.51317e-135
-3.97592e-137
4.35359e-140
-4.52166e-138
3.32038e-139
-2.62789e-141
2.96362e-144
-3.11155e-142
1.96956e-143
-1.39677e-145
1.6288e-148
-1.73301e-146
9.36718e-148
-5.934e-150
7.19163e-153
-7.76682e-151
3.54681e-152
-1.99823e-154
2.53439e-157
-2.78022e-155
1.05947e-156
-5.27753e-159
7.08339e-162
-7.90219e-160
2.4659e-161
-1.0784e-163
1.54352e-166
-1.75412e-164
4.40392e-166
-1.67571e-168
2.57579e-171
-2.98536e-169
5.9215e-171
-1.93722e-173
3.25165e-176
-3.84402e-174
5.84577e-176
-1.61911e-178
3.03315e-181
-3.65795e-179
4.09583e-181
-9.40306e-184
2.01021e-186
-2.47583e-184
1.94458e-186
-3.59116e-189
9.04579e-192
-1.13773e-189
5.85561e-192
-8.3113e-195
2.59742e-197
-3.33738e-195
1.00822e-197
-1.01856e-200
4.33172e-203
-5.67181e-201
8.26082e-204
-5.07436e-207
3.52599e-209
-4.69382e-207
-0.0476851
0.062813
-0.000125037
0.000158198
-0.000166659
-0.000895122
-9.04822e-06
0.00258313
-0.0470493
0.0259162
-0.000840035
0.0519487
-0.00149333
-0.0211773
-0.000790851
0.000414765
-1.44714e-05
4.5526e-06
0.000115686
7.23579e-06
-8.44569e-21
-4.96176e-07
3.90936e-07
1.89467e-19
-6.16295e-19
5.37647e-11
-5.37647e-11
1.70494e-19
-2.73864e-20
0
-2.93563e-21
0.0122284
0.0577705
0.671523
-0.337149
-0.283562
-7.40042e-06
0.368339
-0.0862446
-0.000105432
2.9825e-06
2.8337e-06
-3.6496e-07
5.29787e-24
0.000232132
8.10627e-05
-5.40734e-05
-0.000656787
0.018631
0.000116072
-0.000205431
-0.028787
0.0303865
0.00492033
-8.41077e-06
-0.0150479
1.50047e-05
0.00072833
-1.94521e-06
2.32882e-20
0
1.71613e-21
0
1.3198e-22
-2.0312e-23
-2.35368e-24
0
2.36952e-24
5.77889e-08
2.98504e-25
2.2714e-07
-6.98938e-08
-8.09812e-11
-8.771e-09
1.39271e-08
5.76421e-12
1.86839e-13
-1.3582e-10
1.26264e-12
-9.68231e-18
1.57666e-19
-2.69202e-18
8.18736e-19
-6.40869e-21
1.03274e-23
-4.81596e-21
6.86589e-23
-2.51498e-28
3.23378e-33
-4.03503e-30
3.97123e-32
-3.11911e-38
3.29486e-43
-2.1732e-40
3.35178e-42
-3.00207e-48
2.38804e-53
-1.43991e-50
3.76175e-52
-2.22835e-58
1.60342e-63
-8.01189e-61
2.63746e-62
-1.17718e-68
8.5793e-74
-3.13105e-71
9.22656e-73
-4.99038e-79
-7.02747e-94
-1.78355e-83
0
2.12725e-78
-2.9323e-79
3.06102e-82
-6.40508e-80
2.82646e-80
-2.21132e-81
2.92725e-84
-4.54256e-82
1.4854e-82
-8.82231e-84
1.27111e-86
-1.71814e-84
4.71651e-85
-2.29589e-86
3.45221e-89
-4.28031e-87
1.02607e-87
-4.236e-89
6.53023e-92
-7.603e-90
1.62267e-90
-5.78945e-92
9.12855e-95
-1.00921e-92
1.93002e-93
-6.02433e-95
9.66931e-98
-1.02336e-95
1.76466e-96
-4.85962e-98
7.9564e-101
-8.09733e-99
1.25987e-99
-3.07923e-101
5.16068e-104
-5.06018e-102
7.10352e-103
-1.54802e-104
2.66839e-107
-2.52541e-105
3.19019e-106
-6.22082e-108
1.10834e-110
-1.01375e-108
1.14846e-109
-2.00864e-111
3.70994e-114
-3.28165e-112
3.32987e-113
-5.23326e-115
1.01009e-117
-8.64602e-116
7.80014e-117
-1.10293e-118
2.22838e-121
-1.84846e-119
1.47965e-120
-1.88326e-122
3.99741e-125
-3.21556e-123
2.27443e-124
-2.60579e-126
5.84143e-129
-4.56265e-127
2.83204e-128
-2.91938e-130
6.92809e-133
-5.26385e-131
2.85306e-132
-2.64264e-134
6.67583e-137
-4.93737e-135
2.31934e-136
-1.92703e-138
5.19969e-141
-3.75032e-139
1.51505e-140
-1.12638e-142
3.25995e-145
-2.29748e-143
7.91105e-145
-5.24446e-147
1.63793e-149
-1.12902e-147
3.2783e-149
-1.92967e-151
6.54266e-154
-4.41844e-152
1.06833e-153
-5.5532e-156
2.06341e-158
-1.36776e-156
2.70515e-158
-1.23259e-160
5.0629e-163
-3.29816e-161
5.24179e-163
-2.07498e-165
9.4896e-168
-6.08839e-166
7.6245e-168
-2.5921e-170
1.33916e-172
-8.47535e-171
8.12215e-173
-2.33477e-175
1.39074e-177
-8.68854e-176
6.12569e-178
-1.45767e-180
1.02327e-182
-6.32245e-181
3.12326e-183
-5.97207e-186
5.09375e-188
-3.11838e-186
1.00776e-188
-1.48e-191
1.61191e-193
-9.7844e-192
1.85766e-194
-1.94428e-197
2.9403e-199
-1.77056e-197
1.63719e-200
-1.05473e-203
2.59881e-205
-1.55347e-203
-0.0291814
-5.45648e-05
-0.000354918
0.000256126
-7.65449e-05
-0.000362563
0.000331003
8.26253e-05
-0.000348682
9.04495e-05
-2.94884e-06
0.000947941
-0.000900439
2.49558e-06
0.000510443
0.000115083
-1.41245e-40
-0.000115083
2.2165e-22
-8.51867e-26
6.93465e-26
5.45698e-11
-5.45698e-11
2.76014e-14
-1.01496e-10
-4.73829e-11
1.48913e-10
-3.75142e-11
0.000301006
-6.04546e-20
-0.000301006
0.190431
0.0505632
1.85364
-2.09323
-0.000716849
-1.89334e-07
6.79185e-05
-3.95408e-05
-3.87488e-05
-1.53977e-07
3.1897e-05
6.44283e-25
1.53977e-07
7.61168e-07
-7.17811e-06
2.58478e-07
-4.3391e-23
4.05732e-23
1.12801e-07
-1.12801e-07
1.2438e-06
1.34019e-05
6.4493e-06
-8.36642e-06
-1.32941e-05
1.89632e-06
1.94445e-06
-1.41587e-06
-2.49213e-06
5.83357e-06
-5.06568e-09
1.20044e-06
-4.43873e-06
3.218e-06
-7.9452e-07
2.17368e-06
-7.17619e-07
-7.89492e-11
-5.06767e-07
1.53988e-08
4.62685e-12
1.37287e-11
-1.15572e-11
9.14921e-13
-5.0564e-12
7.19609e-14
-8.68844e-13
9.31904e-13
-4.906e-17
1.02591e-21
-6.00513e-19
2.0776e-18
-3.87182e-26
4.46614e-30
-7.66787e-26
6.94489e-28
-3.36017e-34
1.13681e-38
-1.26415e-34
7.04534e-38
-2.73624e-43
4.38497e-48
-3.64911e-44
1.20951e-47
-6.77747e-53
6.88403e-58
-5.04019e-54
1.46931e-57
-7.07561e-63
4.98284e-68
-3.39856e-64
8.24052e-68
-3.62819e-73
3.12329e-75
-1.26772e-74
1.10283e-75
2.64369e-73
-4.6266e-74
9.93873e-77
-1.50141e-74
5.28621e-75
-4.82953e-76
1.75329e-78
-1.45798e-76
3.75842e-77
-2.57024e-78
1.05679e-80
-7.29708e-79
1.57447e-79
-8.74813e-81
3.80031e-83
-2.35493e-81
4.44985e-82
-2.08548e-83
9.36132e-86
-5.37049e-84
9.05267e-85
-3.65279e-86
1.67766e-88
-9.05308e-87
1.37458e-87
-4.83484e-89
2.27214e-91
-1.16317e-89
1.59314e-90
-4.92498e-92
2.36589e-94
-1.15533e-92
1.43102e-93
-3.91192e-95
1.92486e-97
-9.00643e-96
1.00751e-96
-2.44664e-98
1.23694e-100
-5.55844e-99
5.60864e-100
-1.21442e-101
6.33504e-104
-2.73959e-102
2.48614e-103
-4.81405e-105
2.602e-107
-1.08486e-105
8.82432e-107
-1.53164e-108
8.59354e-111
-3.46196e-109
2.51887e-110
-3.92606e-112
2.30057e-114
-8.968e-113
5.8023e-114
-8.13088e-116
4.98329e-118
-1.88399e-116
1.08081e-117
-1.36263e-119
8.75963e-122
-3.21778e-120
1.62982e-121
-1.84891e-123
1.25166e-125
-4.47614e-124
1.98963e-125
-2.03018e-127
1.45122e-129
-5.06224e-128
1.96425e-129
-1.801e-131
1.36538e-133
-4.65373e-132
1.56457e-133
-1.28705e-135
1.0382e-137
-3.46417e-136
1.00214e-137
-7.37872e-140
6.35924e-142
-2.08185e-140
5.13473e-142
-3.37311e-144
3.12265e-146
-1.00479e-144
2.09019e-146
-1.22e-148
1.22035e-150
-3.86587e-149
6.70017e-151
-3.45601e-153
3.77102e-155
-1.17777e-153
1.67177e-155
-7.56663e-158
9.08106e-160
-2.80133e-158
3.19861e-160
-1.25923e-162
1.67461e-164
-5.11516e-163
4.60469e-165
-1.55845e-167
2.33058e-169
-7.05701e-168
4.86455e-170
-1.39376e-172
2.38985e-174
-7.18213e-173
3.64747e-175
-8.66255e-178
1.74105e-179
-5.20216e-178
1.85395e-180
-3.54276e-183
8.60817e-185
-2.56111e-183
5.98068e-186
-8.7937e-189
2.71145e-190
-8.04027e-189
1.10653e-191
-1.16303e-194
4.92401e-196
-1.45794e-194
9.86864e-198
-6.43979e-201
4.33944e-202
-1.28463e-200
1.59648e-07
3.47688e-05
-4.25341e-05
0.000117802
-4.30009e-05
-0.000236918
0.000219187
8.65956e-05
-2.09714e-05
4.02734e-07
5.13413e-05
5.60369e-06
5.38169e-22
-5.60369e-06
-6.60348e-13
2.81968e-07
-6.2444e-07
9.90728e-08
7.09479e-07
7.53702e-12
-1.23388e-10
-1.80435e-10
8.5297e-12
1.00184e-07
4.25304e-08
-9.34423e-09
6.89106e-09
-4.25303e-08
-0.200855
0.0449246
-0.159346
0.106015
-4.67177e-06
2.21354
2.33829e-19
4.67177e-06
1.38449e-07
1.50765e-05
3.86534e-06
-7.64352e-20
0.00192393
-1.6715e-18
-0.00192393
-0.0374975
0.00263659
0.00104644
-0.129765
3.46542e-05
-3.38726e-05
-8.72897e-07
2.80585e-09
-6.13033e-05
1.01447e-05
2.27414e-06
1.73371e-06
-8.53305e-08
-1.55709e-08
1.00901e-07
-1.3165e-17
-1.46514e-07
4.26718e-07
-4.04411e-07
-1.89258e-16
-4.15599e-07
1.14293e-08
-8.54339e-07
2.39523e-16
-7.73564e-17
6.64573e-16
-4.28023e-16
1.22294e-15
-3.28862e-15
1.07612e-14
-5.91579e-14
1.15859e-15
-1.44961e-14
3.66194e-15
-8.54196e-14
4.50271e-16
-1.70665e-17
9.9626e-22
-2.21142e-18
9.81278e-20
-7.99263e-27
6.56827e-32
-1.12596e-28
1.28392e-30
-3.88722e-37
2.58259e-42
-3.82815e-39
2.65201e-41
-1.19924e-47
8.15595e-53
-1.04883e-49
4.98261e-52
-4.7684e-58
2.70037e-63
-4.5646e-60
2.28663e-62
-3.48631e-65
-1.62639e-66
-8.0872e-69
-8.05334e-67
6.2543e-67
-1.07368e-67
6.25587e-73
-4.81656e-68
1.36276e-68
-1.43035e-69
1.71913e-74
-5.89914e-70
1.30259e-70
-1.05432e-71
1.43699e-76
-4.04611e-72
7.69501e-73
-5.10946e-74
6.86434e-79
-1.84427e-74
3.10787e-75
-1.7399e-76
2.18576e-81
-5.95471e-77
9.00322e-78
-4.31941e-79
4.98121e-84
-1.41343e-79
1.92727e-80
-8.01519e-82
8.43165e-87
-2.52373e-82
3.11448e-83
-1.13261e-84
1.09004e-89
-3.46013e-85
3.8617e-86
-1.2365e-87
1.0927e-92
-3.68424e-88
3.72226e-89
-1.05483e-90
8.62788e-96
-3.08621e-91
2.81664e-92
-7.09539e-94
5.42153e-99
-2.04934e-94
1.68728e-95
-3.79146e-97
2.73817e-102
-1.08758e-97
8.05443e-99
-1.61898e-100
1.11943e-105
-4.63876e-101
3.08001e-102
-5.54976e-104
3.71994e-109
-1.59537e-104
9.47273e-106
-1.53261e-107
1.01181e-112
-4.45007e-108
2.35013e-109
-3.41735e-111
2.25337e-116
-1.00636e-111
4.71161e-113
-6.1602e-115
4.11623e-120
-1.84957e-115
7.63892e-117
-8.98122e-119
6.17415e-124
-2.76393e-119
1.00127e-120
-1.05798e-122
7.58918e-128
-3.35372e-123
1.05948e-124
-1.00494e-126
7.63445e-132
-3.30063e-127
9.02702e-129
-7.67213e-131
6.25724e-136
-2.62472e-131
6.16791e-133
-4.6857e-135
4.16094e-140
-1.68066e-135
3.36177e-137
-2.27503e-139
2.23073e-144
-8.61716e-140
1.45105e-141
-8.70991e-144
9.5596e-149
-3.50966e-144
4.91478e-146
-2.60225e-148
3.24942e-153
-1.12742e-148
1.29092e-150
-5.98627e-153
8.63329e-158
-2.81757e-153
2.58933e-155
-1.04212e-157
1.76171e-162
-5.38338e-158
3.89043e-160
-1.34311e-162
2.71452e-167
-7.73579e-163
4.27035e-165
-1.24524e-167
3.08152e-172
-8.15942e-168
3.31185e-170
-7.98701e-173
2.48595e-177
-6.09778e-173
1.73324e-175
-3.35577e-178
1.36064e-182
-3.08333e-178
5.73163e-181
-8.5205e-184
4.73811e-188
-9.89464e-184
1.08252e-186
-1.14865e-189
9.50691e-194
-1.82272e-189
9.83855e-193
-6.48489e-196
9.24575e-200
-1.62437e-195
-1.20503e-05
2.38008e-06
-3.43639e-07
-1.00544e-05
-0.000332106
-0.00017104
0.000318648
2.23123e-05
-2.31799e-39
-2.23123e-05
9.66873e-24
-4.15414e-30
-1.62677e-24
-2.12763e-12
2.12763e-12
1.08526e-06
-2.35407e-07
-7.11818e-07
2.49088e-05
2.10411e-06
-7.70734e-07
-1.11061e-06
2.72866e-05
-3.03e-07
3.02999e-07
1.83829e-13
2.81971e-23
0.0117534
-0.0123364
0.19332
-0.224973
0
-6.17117e-22
-8.71204e-19
9.11193e-20
0
-0.0770462
0.000778325
-0.298551
0.254889
-0.0577853
6.36835
-11.152
0.00212321
-1.71333e-08
0.0697677
-1.75744e-20
1.71333e-08
-9.54264e-08
2.35132e-09
1.98014e-09
-1.54652e-06
2.30454e-07
3.86488e-07
1.03686e-09
2.32124e-15
-5.64479e-17
-2.96729e-17
-2.23579e-15
-1.11782e-15
2.60913e-17
4.24102e-17
3.11888e-16
-2.46785e-17
3.40637e-17
-2.14827e-16
2.03755e-16
-2.02386e-16
4.57314e-16
-1.77036e-15
1.50571e-15