/*--------------------------------*- C++ -*----------------------------------*\
| =========                 |                                                 |
| \\      /  F ield         | OpenFOAM: The Open Source CFD Toolbox           |
|  \\    /   O peration     | Version:  v1912                                 |
|   \\  /    A nd           | Website:  www.openfoam.com                      |
|    \\/     M anipulation  |                                                 |
\*---------------------------------------------------------------------------*/
FoamFile
{
    version     2.0;
    format      ascii;
    class       volScalarField;
    location    "8";
    object      alpha.water;
}
// * * * * * * * * * * * * * * * * * * * * * * * * * * * * * * * * * * * * * //

dimensions      [0 0 0 0 0 0 0];


internalField   nonuniform List<scalar> 
20320
(
1
1
1
1
1
1
1
0.999999
1
1
1
0.999999
1
1
1
1
1
1
1
1
1
1
1
0.999999
0.999999
1
1
0.999999
0.999999
1
1
1
1
1
1
1
1
1
1
1
1
1
1
1
1
1
1
1
1
1
1
0.999999
1
1
1
1
1
1
1
1
1
1
1
1
1
1
1
1
1
1
0.999999
1
1
1
1
1
1
1
1
1
1
1
1
1
1
1
1
0.999999
1
1
1
1
1
1
1
1
1
1
1
1
1
1
1
1
1
1
1
0.999999
1
0.999999
1
1
1
1
1
1
1
1
1
1
1
1
1
1
1
1
1
1
1
0.999999
1
0.999999
1
1
1
1
1
1
1
1
1
1
1
1
1
1
1
1
1
0.999999
1
0.999999
1
1
1
1
1
1
1
1
1
1
1
1
1
1
1
1
1
1
1
0.999999
1
1
1
1
1
1
1
1
1
1
1
1
1
1
1
0.999999
1
1
1
1
1
1
1
1
1
1
1
1
1
1
1
1
1
1
1
0.999999
0.999999
1
1
0.999999
1
1
1
1
1
1
1
1
1
1
1
1
1
1
1
0.999999
1
1
1
1
1
1
1
1
1
1
1
1
1
1
1
1
1
1
1
1
1
1
1
1
1
1
1
1
1
1
1
1
1
1
1
1
1
1
1
1
1
1
1
1
1
1
1
1
1
1
1
1
1
1
1
1
1
1
1
1
1
1
1
1
1
1
1
1
1
1
1
1
1
1
1
1
1
1
1
1
1
1
1
1
1
1
1
1
1
1
1
1
1
1
1
1
1
1
1
1
1
1
1
1
1
1
1
1
1
1
1
1
1
1
1
1
1
1
1
1
1
1
1
1
1
1
1
1
1
1
1
1
1
1
1
1
1
1
1
1
1
1
1
1
1
1
1
1
1
1
1
1
1
1
1
1
1
1
1
1
1
1
1
1
1
1
1
1
1
1
1
1
0.0835943
4.81902e-20
0.0443902
0.214954
0.0345939
0.4135
0.48055
0.440959
0.578081
0.78278
0.750538
0.854844
0.855547
0.855547
0.175136
0.216388
0.08488
5.87778e-08
1.2136e-07
4.18581e-12
2.03758e-12
1.45418e-17
1.19495e-27
6.01318e-38
1.9203e-48
3.88641e-59
7.80317e-70
1.13227e-80
-7.3028e-85
-1.59242e-86
-1.10797e-88
-4.15097e-91
-9.83454e-94
-1.60266e-96
-1.8875e-99
-1.65883e-102
-1.11257e-105
-5.7874e-109
-2.36359e-112
-7.64894e-116
-1.97541e-119
-4.09103e-123
-6.81891e-127
-9.16706e-131
-9.9453e-135
-8.70327e-139
-6.1304e-143
-3.46414e-147
-1.56292e-151
-5.59179e-156
-1.57282e-160
-3.43586e-165
-5.74249e-170
-7.21029e-175
-6.63613e-180
-4.32833e-185
-1.91092e-190
-5.34626e-196
-8.54924e-202
-6.48049e-208
0.0530512
0.000431858
0.214954
0.214981
1.69311e-06
1.0245e-06
0.26307
0.355072
0.699538
0.884602
0.466579
3.84781e-19
-3.67207e-23
-3.3023e-22
0.000108322
8.68053e-05
4.67441e-05
-8.85984e-24
3.42946e-10
8.42636e-11
9.95006e-15
5.97107e-22
3.40907e-32
1.09842e-42
5.13771e-53
1.33824e-62
3.35932e-72
6.64133e-82
-1.10785e-81
-1.49701e-83
-7.91599e-86
-2.40483e-88
-4.84674e-91
-6.94971e-94
-7.37641e-97
-5.94848e-100
-3.7139e-103
-1.82058e-106
-7.08452e-110
-2.20722e-113
-5.54032e-117
-1.12563e-120
-1.85625e-124
-2.48924e-128
-2.71442e-132
-2.40458e-136
-1.72557e-140
-9.99315e-145
-4.64521e-149
-1.72027e-153
-5.02891e-158
-1.14644e-162
-2.00665e-167
-2.64505e-172
-2.56161e-177
-1.76168e-182
-8.21291e-188
-2.42939e-193
-4.11131e-199
-3.31327e-205
0.0575125
0.000146934
0.00213485
0.0272775
8.16079e-05
9.09722e-07
-2.19022e-20
2.8588e-20
0.0542969
2.54176e-05
1.39681e-06
2.52108e-05
0.000168962
0.00510584
0.00120566
-1.97058e-22
-4.51065e-24
1.23645e-08
4.82623e-09
4.85252e-12
2.13543e-18
7.80454e-22
6.7051e-30
7.5671e-40
7.52628e-50
5.66298e-60
2.83925e-70
3.93302e-81
-4.51878e-79
-3.79657e-81
-1.6626e-83
-4.71547e-86
-9.43763e-89
-1.39458e-91
-1.56516e-94
-1.35942e-97
-9.26273e-101
-5.0036e-104
-2.15967e-107
-7.48986e-111
-2.09683e-114
-4.75221e-118
-8.7349e-122
-1.30309e-125
-1.57703e-129
-1.54573e-133
-1.22404e-137
-7.79724e-142
-3.97323e-146
-1.60827e-150
-5.12374e-155
-1.26902e-159
-2.40711e-164
-3.42987e-169
-3.5805e-174
-2.64793e-179
-1.32472e-184
-4.19549e-190
-7.59579e-196
-6.57916e-202
0.00510322
0.000273882
5.51205e-05
0.000339902
-1.60932e-22
-1.60524e-25
2.67172e-15
-1.05098e-19
0.206735
1.42994e-05
4.22135e-06
1.6683e-07
6.82547e-24
1.22056e-06
1.5678e-06
6.35943e-07
9.53651e-07
6.56301e-08
5.62567e-12
3.57198e-13
1.4749e-18
6.14245e-27
1.92598e-35
1.03385e-44
1.99771e-54
1.74731e-64
6.60755e-75
-6.27465e-74
-7.35205e-76
-4.31665e-78
-1.60793e-80
-4.17193e-83
-7.921e-86
-1.13315e-88
-1.24482e-91
-1.06477e-94
-7.16354e-98
-3.82216e-101
-1.62813e-104
-5.5665e-108
-1.53377e-111
-3.41701e-115
-6.16675e-119
-9.02406e-123
-1.07065e-126
-1.02867e-130
-7.98399e-135
-4.98884e-139
-2.4963e-143
-9.93327e-148
-3.1153e-152
-7.61041e-157
-1.42703e-161
-2.01451e-166
-2.08821e-171
-1.5372e-176
-7.67534e-182
-2.43338e-187
-4.42783e-193
-3.88555e-199
2.3144e-05
7.60838e-05
3.89179e-05
-3.1286e-23
8.98601e-08
4.08872e-12
2.19061e-08
0.0174637
0.0766218
1.15236e-06
-2.38359e-18
0.00797114
1.58717e-08
9.84997e-06
7.09992e-17
2.57378e-07
6.21504e-08
2.75644e-16
4.42647e-15
4.32647e-15
4.47854e-19
1.35192e-28
6.32334e-39
2.02895e-49
9.1775e-60
-1.4311e-66
-1.29039e-67
-1.9291e-69
-1.57283e-71
-8.36626e-74
-3.10984e-76
-8.3918e-79
-1.68694e-81
-2.57554e-84
-3.03189e-87
-2.78518e-90
-2.01523e-93
-1.15757e-96
-5.31173e-100
-1.9568e-103
-5.80963e-107
-1.39356e-110
-2.70557e-114
-4.25442e-118
-5.41576e-122
-5.57214e-126
-4.62134e-130
-3.07677e-134
-1.63552e-138
-6.89086e-143
-2.27997e-147
-5.85429e-152
-1.14883e-156
-1.68963e-161
-1.81648e-166
-1.38049e-171
-7.0837e-177
-2.29825e-182
-4.25989e-188
-3.80211e-194
1.51199e-06
6.14565e-05
3.98411e-24
1.76646e-30
1.55656e-07
1.07227e-06
-3.85663e-24
0.0249377
-8.46926e-20
0.0107341
0.900284
0.00118962
1.70039e-08
4.65547e-07
7.09992e-17
1.5202e-16
6.8547e-17
4.21324e-16
3.40756e-17
9.50474e-21
1.76442e-24
4.61561e-34
1.03555e-44
3.69851e-55
2.56181e-65
-7.58825e-66
-1.78492e-67
-2.00085e-69
-1.40551e-71
-6.73214e-74
-2.29951e-76
-5.77228e-79
-1.08939e-81
-1.57314e-84
-1.76301e-87
-1.5515e-90
-1.08203e-93
-6.02436e-97
-2.69418e-100
-9.72818e-104
-2.84656e-107
-6.76966e-111
-1.31108e-114
-2.06886e-118
-2.65883e-122
-2.7798e-126
-2.35765e-130
-1.61588e-134
-8.8995e-139
-3.91052e-143
-1.35796e-147
-3.68218e-152
-7.6823e-157
-1.2087e-161
-1.39814e-166
-1.14978e-171
-6.42102e-177
-2.27947e-182
-4.6515e-188
-4.60388e-194
-9.18327e-23
0.000242191
3.21618e-24
1.29654e-05
1.16867e-05
3.15696e-06
1.67643e-07
2.12294e-13
1.58842e-19
0.0729572
0.922729
2.4654e-21
8.36018e-20
2.79169e-07
3.13178e-13
1.07077e-15
4.09093e-17
1.91814e-17
2.59888e-20
6.84228e-28
5.07962e-33
1.49448e-42
1.2352e-52
1.95942e-62
-7.82344e-65
-3.15882e-66
-5.15258e-68
-5.05006e-70
-3.31764e-72
-1.54944e-74
-5.35256e-77
-1.40841e-79
-2.88642e-82
-4.67711e-85
-6.0578e-88
-6.31266e-91
-5.31476e-94
-3.6245e-97
-2.00551e-100
-9.01624e-104
-3.29525e-107
-9.80167e-111
-2.37251e-114
-4.66946e-118
-7.46733e-122
-9.67693e-126
-1.01339e-129
-8.54181e-134
-5.75929e-138
-3.08401e-142
-1.29905e-146
-4.25445e-151
-1.0665e-155
-2.0079e-160
-2.7676e-165
-2.7002e-170
-1.78233e-175
-7.44814e-181
-1.78337e-186
-2.06371e-192
9.93391e-06
0.00165153
1.61081e-07
-5.1951e-24
1.93418e-25
-7.52352e-26
4.00017e-09
1.74484e-08
5.22151e-07
0.0378569
6.92511e-20
2.15141e-18
8.7576e-20
1.81452e-07
1.50792e-13
1.68627e-14
2.244e-19
2.86367e-22
1.75166e-26
7.05834e-35
1.10883e-41
7.59875e-51
2.27939e-60
-3.87758e-63
-3.59217e-64
-1.3793e-65
-3.0277e-67
-4.18177e-69
-3.85773e-71
-2.47885e-73
-1.14586e-75
-3.90604e-78
-1.00149e-80
-1.96174e-83
-2.9753e-86
-3.53317e-89
-3.31399e-92
-2.47423e-95
-1.47937e-98
-7.12004e-102
-2.76759e-105
-8.71358e-109
-2.22554e-112
-4.61403e-116
-7.76056e-120
-1.05742e-123
-1.16377e-127
-1.03058e-131
-7.30067e-136
-4.10784e-140
-1.81827e-144
-6.25762e-149
-1.64903e-153
-3.26395e-158
-4.73023e-163
-4.85218e-168
-3.36698e-173
-1.4803e-178
-3.72963e-184
-4.5355e-190
2.71535e-05
0.00106384
9.7621e-09
5.274e-06
0.000822456
0.00685845
9.0729e-22
2.36672e-06
7.72639e-06
0.87805
0.103959
9.24997e-17
1.67576e-10
4.537e-08
1.92642e-13
8.14546e-14
6.08011e-18
1.7493e-26
3.13801e-34
2.10861e-42
6.44941e-50
8.12727e-59
-6.32669e-60
-1.39976e-60
-1.08897e-61
-4.24344e-63
-9.52848e-65
-1.33775e-66
-1.24339e-68
-7.98692e-71
-3.66915e-73
-1.23817e-75
-3.13735e-78
-6.07217e-81
-9.10508e-84
-1.06981e-86
-9.94616e-90
-7.37013e-93
-4.38047e-96
-2.0987e-99
-8.1342e-103
-2.55613e-106
-6.52362e-110
-1.3527e-113
-2.27797e-117
-3.10947e-121
-3.43159e-125
-3.04848e-129
-2.16814e-133
-1.22541e-137
-5.45228e-142
-1.88679e-146
-5.00477e-151
-9.97363e-156
-1.45608e-160
-1.50581e-165
-1.05432e-170
-4.67644e-176
-1.18923e-181
-1.46148e-187
3.50082e-05
2.13103e-05
0.000152324
2.31144e-24
0.000108804
0.0103675
0.00212277
1.67545e-05
1.58049e-06
0.931506
0.003077
2.44352e-17
2.11282e-11
3.36684e-11
1.52232e-10
5.36007e-14
1.1933e-17
2.09951e-25
4.58135e-34
9.8072e-43
2.36798e-51
4.39152e-60
-1.49979e-58
-2.5289e-59
-1.66734e-60
-5.8104e-62
-1.20911e-63
-1.61416e-65
-1.45226e-67
-9.14335e-70
-4.15115e-72
-1.39183e-74
-3.51635e-77
-6.80401e-80
-1.02239e-82
-1.20693e-85
-1.1297e-88
-8.45198e-92
-5.08806e-95
-2.47641e-98
-9.78151e-102
-3.14413e-105
-8.23374e-109
-1.75753e-112
-3.05529e-116
-4.31862e-120
-4.94983e-124
-4.57958e-128
-3.40093e-132
-2.01262e-136
-9.39732e-141
-3.42076e-145
-9.5635e-150
-2.01277e-154
-3.10896e-159
-3.40698e-164
-2.5298e-169
-1.19222e-174
-3.22339e-180
-4.20947e-186
2.41086e-06
0.000488501
0.000248506
4.87279e-05
0.00393192
7.54315e-06
0.000786198
1.14104e-08
1.43099e-22
0.922763
6.04149e-06
0.000105807
4.95664e-16
7.29133e-11
2.185e-11
2.97436e-14
3.82705e-18
6.43747e-26
6.3254e-35
7.70357e-44
1.19365e-52
-2.18836e-56
-1.05022e-56
-1.28335e-57
-7.70667e-59
-2.66674e-60
-5.74727e-62
-8.12034e-64
-7.8276e-66
-5.31224e-68
-2.60746e-70
-9.46368e-73
-2.58732e-75
-5.41433e-78
-8.785e-81
-1.11795e-83
-1.12587e-86
-9.04522e-90
-5.83267e-93
-3.03346e-96
-1.27754e-99
-4.36616e-103
-1.21299e-106
-2.73969e-110
-5.02724e-114
-7.47993e-118
-8.99572e-122
-8.71239e-126
-6.75252e-130
-4.15883e-134
-2.01604e-138
-7.59785e-143
-2.19434e-147
-4.7596e-152
-7.56111e-157
-8.50452e-162
-6.47141e-167
-3.1189e-172
-8.60716e-178
-1.14542e-183
1.21137e-06
0.00442855
0.00308248
-2.58274e-22
0.0036771
3.51844e-05
-4.46416e-26
5.07506e-09
0.000233016
0
0.00115678
0.00180246
4.87933e-16
1.42858e-11
3.84734e-13
5.89966e-15
9.04743e-20
9.94676e-29
7.31742e-38
8.25669e-47
9.73294e-56
-8.24544e-55
-2.01009e-55
-1.98431e-56
-1.06192e-57
-3.42698e-59
-7.08131e-61
-9.77853e-63
-9.33232e-65
-6.33034e-67
-3.12564e-69
-1.14636e-71
-3.17745e-74
-6.75583e-77
-1.11577e-79
-1.44782e-82
-1.48913e-85
-1.22327e-88
-8.07506e-92
-4.306e-95
-1.86185e-98
-6.54356e-102
-1.87211e-105
-4.35985e-109
-8.26027e-113
-1.2703e-116
-1.58092e-120
-1.5854e-124
-1.27372e-128
-8.13733e-133
-4.09418e-137
-1.60286e-141
-4.8098e-146
-1.08474e-150
-1.79218e-155
-2.09707e-160
-1.66068e-165
-8.32881e-171
-2.3925e-176
-3.30673e-182
0.000920317
0.000381715
0.00287784
4.37544e-19
0.00099112
1.22328e-23
1.21931e-32
1.49608e-07
0.00022152
0.000863319
0.944832
1.98038e-19
5.06404e-16
1.03735e-12
4.48659e-14
2.49791e-17
8.01075e-24
3.99537e-33
7.03664e-42
2.13991e-50
-2.45283e-53
-1.49116e-53
-2.44898e-54
-2.02963e-55
-9.87314e-57
-3.02352e-58
-6.09761e-60
-8.37795e-62
-8.06372e-64
-5.57121e-66
-2.82185e-68
-1.06701e-70
-3.05921e-73
-6.74499e-76
-1.15765e-78
-1.56273e-81
-1.67324e-84
-1.43161e-87
-9.84553e-91
-5.46997e-94
-2.46369e-97
-9.02355e-101
-2.69072e-104
-6.53355e-108
-1.29011e-111
-2.06836e-115
-2.68347e-119
-2.80524e-123
-2.34847e-127
-1.56335e-131
-8.19648e-136
-3.34258e-140
-1.04444e-144
-2.45269e-149
-4.21865e-154
-5.13712e-159
-4.23056e-164
-2.20715e-169
-6.58912e-175
-9.45578e-181
0.000138337
9.52039e-07
0.000547665
3.09398e-06
0.00137392
6.01646e-24
5.02805e-08
2.68561e-08
1.49108e-05
7.51115e-05
0.935585
1.32618e-22
9.91259e-16
1.3332e-13
9.40721e-15
3.49204e-20
6.79909e-29
2.0452e-37
8.62981e-46
-2.45678e-51
-5.78642e-51
-1.4124e-51
-1.67734e-52
-1.16821e-53
-5.1388e-55
-1.48939e-56
-2.92995e-58
-4.00899e-60
-3.89983e-62
-2.75034e-64
-1.43057e-66
-5.57494e-69
-1.65183e-71
-3.76761e-74
-6.68868e-77
-9.33533e-80
-1.03299e-82
-9.12217e-86
-6.46922e-89
-3.70123e-92
-1.71453e-95
-6.45173e-99
-1.97466e-102
-4.91668e-106
-9.94784e-110
-1.63313e-113
-2.16797e-117
-2.31624e-121
-1.98142e-125
-1.3468e-129
-7.20331e-134
-2.99576e-138
-9.54257e-143
-2.28143e-147
-3.99284e-152
-4.94561e-157
-4.141e-162
-2.19317e-167
-6.63859e-173
-9.65913e-179
1.23933e-23
0.00205828
9.22782e-05
0.000670991
1.37875e-05
0.000114399
2.20407e-24
1.21627e-10
1.13862e-05
0.804154
0.119668
-3.55359e-35
2.13255e-15
2.0889e-14
8.63089e-16
1.10829e-21
9.32815e-31
2.58525e-39
7.82381e-48
-1.21164e-48
-5.25045e-49
-8.59466e-50
-7.85755e-51
-4.50622e-52
-1.70743e-53
-4.40792e-55
-7.93323e-57
-1.01446e-58
-9.37581e-61
-6.36616e-63
-3.22367e-65
-1.23408e-67
-3.6168e-70
-8.21012e-73
-1.4571e-75
-2.04107e-78
-2.27356e-81
-2.0268e-84
-1.45387e-87
-8.42611e-91
-3.95796e-94
-1.51086e-97
-4.69447e-101
-1.18729e-104
-2.44151e-108
-4.07441e-112
-5.49495e-116
-5.96598e-120
-5.18371e-124
-3.57764e-128
-1.9431e-132
-8.20234e-137
-2.64912e-141
-6.4215e-146
-1.13917e-150
-1.42982e-155
-1.21237e-160
-6.50587e-166
-1.99107e-171
-2.92277e-177
2.27911e-05
0.00310254
5.43274e-05
0.000488239
2.60356e-05
5.12429e-05
6.48284e-30
1.26682e-10
1.45151e-07
0.136247
0.399531
5.0246e-23
2.76951e-15
5.23265e-14
1.35589e-16
1.75051e-22
9.55927e-31
4.11663e-39
1.63426e-47
-7.399e-48
-2.55723e-48
-3.48765e-49
-2.69718e-50
-1.32723e-51
-4.37723e-53
-9.98075e-55
-1.60829e-56
-1.86349e-58
-1.57821e-60
-9.90863e-63
-4.67502e-65
-1.67889e-67
-4.64215e-70
-9.9856e-73
-1.68679e-75
-2.25646e-78
-2.4067e-81
-2.05991e-84
-1.42197e-87
-7.94391e-91
-3.60476e-94
-1.33143e-97
-4.0086e-101
-9.84243e-105
-1.96859e-108
-3.20012e-112
-4.21388e-116
-4.47505e-120
-3.80882e-124
-2.57973e-128
-1.37745e-132
-5.72415e-137
-1.82455e-141
-4.37312e-146
-7.68259e-151
-9.56795e-156
-8.06498e-161
-4.30711e-166
-1.3156e-171
-1.93e-177
0.000208095
0.000116326
0.000507262
2.03412e-08
-5.47743e-25
8.04206e-11
4.35746e-07
3.23904e-06
2.8425e-07
-1.69826e-19
0.22549
-4.95099e-21
2.50445e-14
3.2499e-14
1.89724e-16
1.18226e-22
8.41374e-31
5.32655e-39
2.36615e-47
-1.00711e-47
-2.97949e-48
-3.49664e-49
-2.33884e-50
-1.0029e-51
-2.90937e-53
-5.89356e-55
-8.51867e-57
-8.94141e-59
-6.91658e-61
-3.99846e-63
-1.74962e-65
-5.86254e-68
-1.52079e-70
-3.08314e-73
-4.92711e-76
-6.25712e-79
-6.35721e-82
-5.19846e-85
-3.43699e-88
-1.84388e-91
-8.05061e-95
-2.86722e-98
-8.34345e-102
-1.98443e-105
-3.85418e-109
-6.10046e-113
-7.8397e-117
-8.14502e-121
-6.80046e-125
-4.52995e-129
-2.38385e-133
-9.79023e-138
-3.08993e-142
-7.34997e-147
-1.28522e-151
-1.59644e-156
-1.34541e-161
-7.19681e-167
-2.20405e-172
-3.24685e-178
0.00031315
0.000117717
2.21046e-06
1.68594e-08
7.00323e-08
3.89927e-06
2.23044e-10
1.18182e-06
1.2462e-25
0.593895
0.900709
-9.02003e-21
1.17392e-13
1.76551e-15
4.02004e-17
2.6526e-24
1.08991e-32
7.40558e-41
2.61751e-49
-5.4526e-48
-1.3824e-48
-1.41963e-49
-8.34771e-51
-3.16269e-52
-8.16183e-54
-1.48196e-55
-1.93539e-57
-1.84973e-59
-1.31293e-61
-7.01348e-64
-2.85398e-66
-8.94273e-69
-2.18026e-71
-4.17416e-74
-6.32528e-77
-7.64458e-80
-7.41757e-83
-5.80802e-86
-3.68834e-89
-1.90615e-92
-8.03751e-96
-2.77236e-99
-7.83358e-103
-1.81426e-106
-3.44229e-110
-5.34034e-114
-6.75098e-118
-6.92414e-122
-5.72779e-126
-3.79443e-130
-1.99361e-134
-8.20699e-139
-2.60775e-143
-6.27221e-148
-1.11298e-152
-1.40895e-157
-1.21513e-162
-6.67755e-168
-2.11107e-173
-3.21794e-179
0.000739508
0.000106894
6.92021e-07
-2.96077e-26
2.01784e-10
4.36134e-05
2.23044e-10
3.03954e-06
2.72265e-10
0.314299
0.413089
-2.68268e-22
1.8601e-13
1.20564e-16
1.97679e-19
2.88266e-26
2.32137e-34
1.82249e-42
-5.16953e-45
-2.69107e-45
-4.23741e-46
-3.81349e-47
-2.27699e-48
-9.56538e-50
-2.91014e-51
-6.50928e-53
-1.08124e-54
-1.34442e-56
-1.2592e-58
-8.94203e-61
-4.84971e-63
-2.02198e-65
-6.5231e-68
-1.63946e-70
-3.22919e-73
-5.01182e-76
-6.162e-79
-6.02692e-82
-4.70639e-85
-2.94448e-88
-1.47973e-91
-5.98204e-95
-1.94783e-98
-5.11237e-102
-1.08064e-105
-1.83633e-109
-2.50164e-113
-2.71742e-117
-2.3407e-121
-1.58733e-125
-8.39322e-130
-3.41888e-134
-1.05707e-138
-2.43247e-143
-4.06075e-148
-4.75604e-153
-3.73053e-158
-1.83392e-163
-5.09915e-169
-6.72792e-175
0.000756033
0.000107325
2.82571e-05
-6.77158e-23
0.000550288
0.000102367
2.02725e-07
2.9091e-06
-1.75755e-26
0.194348
0.531317
2.57416e-21
2.93896e-13
7.93878e-15
2.34146e-19
1.09587e-26
6.41541e-35
4.27011e-43
-5.87117e-44
-2.35823e-44
-3.3665e-45
-2.76333e-46
-1.49829e-47
-5.69842e-49
-1.56965e-50
-3.18772e-52
-4.83178e-54
-5.50957e-56
-4.76356e-58
-3.14432e-60
-1.59548e-62
-6.26448e-65
-1.91513e-67
-4.586e-70
-8.65173e-73
-1.29226e-75
-1.53584e-78
-1.45785e-81
-1.10933e-84
-6.78516e-88
-3.34337e-91
-1.32924e-94
-4.26796e-98
-1.10694e-101
-2.31709e-105
-3.90952e-109
-5.29659e-113
-5.73976e-117
-4.93987e-121
-3.35269e-125
-1.77592e-129
-7.2594e-134
-2.25427e-138
-5.21791e-143
-8.76623e-148
-1.0345e-152
-8.17802e-158
-4.05725e-163
-1.13961e-168
-1.51768e-174
0.000186802
1.926e-06
6.61474e-05
5.28854e-06
0.000731633
1.28488e-24
7.0125e-06
-1.2902e-26
4.44437e-07
0.487545
0.687723
-3.99719e-21
3.52909e-13
4.09479e-14
6.50267e-17
6.95748e-24
1.43873e-32
5.39166e-41
-5.42204e-44
-2.71035e-44
-3.80979e-45
-2.93607e-46
-1.46869e-47
-5.11717e-49
-1.28787e-50
-2.39169e-52
-3.32336e-54
-3.49109e-56
-2.79592e-58
-1.72014e-60
-8.19152e-63
-3.03834e-65
-8.8359e-68
-2.02734e-70
-3.69123e-73
-5.36104e-76
-6.23975e-79
-5.84776e-82
-4.42721e-85
-2.71682e-88
-1.35449e-91
-5.49477e-95
-1.8155e-98
-4.88746e-102
-1.07207e-105
-1.91122e-109
-2.7592e-113
-3.20914e-117
-2.98705e-121
-2.20646e-125
-1.28037e-129
-5.76371e-134
-1.97994e-138
-5.0856e-143
-9.51524e-148
-1.25296e-152
-1.10793e-157
-6.15458e-163
-1.93714e-168
-2.88615e-174
5.50826e-09
6.6557e-06
8.18752e-07
4.20726e-06
4.32551e-05
2.30179e-06
1.02923e-06
2.61103e-07
1.40297e-07
0.556923
0.611224
2.58085e-21
1.6157e-13
6.90102e-14
2.74319e-16
1.05423e-21
1.13193e-30
2.0785e-39
-1.25455e-44
-1.07038e-44
-1.53076e-45
-1.13531e-46
-5.34529e-48
-1.73668e-49
-4.06415e-51
-7.02586e-53
-9.12417e-55
-9.01145e-57
-6.83694e-59
-4.02057e-61
-1.84726e-63
-6.67953e-66
-1.91395e-68
-4.37271e-71
-8.00845e-74
-1.18144e-76
-1.40921e-79
-1.36332e-82
-1.07253e-85
-6.87387e-89
-3.59171e-92
-1.52995e-95
-5.31099e-99
-1.50115e-102
-3.44911e-106
-6.42598e-110
-9.66141e-114
-1.16638e-117
-1.12317e-121
-8.55354e-126
-5.09817e-130
-2.34901e-134
-8.23488e-139
-2.1527e-143
-4.09097e-148
-5.46202e-153
-4.88307e-158
-2.73844e-163
-8.68252e-169
-1.30038e-174
5.34906e-07
1.43626e-05
1.75001e-07
3.39178e-05
7.22201e-25
9.50393e-06
4.3882e-07
2.83505e-06
-1.93165e-26
0.68979
0.616177
5.944e-22
4.96752e-15
6.87138e-14
1.42046e-16
2.9729e-22
2.36465e-30
6.36305e-39
6.60113e-48
-1.97846e-45
-3.01537e-46
-2.20552e-47
-9.99297e-49
-3.09328e-50
-6.87587e-52
-1.13082e-53
-1.40284e-55
-1.33209e-57
-9.78497e-60
-5.61295e-62
-2.53352e-64
-9.06238e-67
-2.58199e-69
-5.88913e-72
-1.07932e-74
-1.59544e-77
-1.90702e-80
-1.84627e-83
-1.45017e-86
-9.2571e-90
-4.80549e-93
-2.02803e-96
-6.95478e-100
-1.93767e-103
-4.38029e-107
-8.01368e-111
-1.18213e-114
-1.39962e-118
-1.32118e-122
-9.85813e-127
-5.75479e-131
-2.59741e-135
-8.92222e-140
-2.28576e-144
-4.2552e-149
-5.5693e-154
-4.88949e-159
-2.69169e-164
-8.3691e-170
-1.23039e-175
5.531e-07
2.00071e-05
4.54158e-09
1.49638e-05
-1.61727e-25
-6.78619e-27
2.08658e-25
2.83593e-06
6.3104e-25
0.819626
0.626537
-2.60979e-21
1.87471e-16
1.95639e-14
5.47445e-16
8.65421e-22
6.89296e-31
2.39174e-39
1.44754e-47
-2.08597e-46
-3.46833e-47
-2.55971e-48
-1.13946e-49
-3.4242e-51
-7.35608e-53
-1.16863e-54
-1.40271e-56
-1.29164e-58
-9.22489e-61
-5.15637e-63
-2.2719e-65
-7.93672e-68
-2.20839e-70
-4.91545e-73
-8.78279e-76
-1.26389e-78
-1.46817e-81
-1.37998e-84
-1.05106e-87
-6.4969e-91
-3.26362e-94
-1.33265e-97
-4.42013e-101
-1.19053e-104
-2.60169e-108
-4.6041e-112
-6.57315e-116
-7.5353e-120
-6.89282e-124
-4.98681e-128
-2.82626e-132
-1.23865e-136
-4.13419e-141
-1.02988e-145
-1.86663e-150
-2.37872e-155
-2.03407e-160
-1.09105e-165
-3.30955e-171
-4.73241e-177
5.2785e-09
3.70431e-07
9.78247e-08
6.23171e-30
-2.13111e-25
1.20823e-06
6.14038e-07
2.72891e-06
-2.91559e-27
0.925852
0.570057
1.48645e-22
1.49293e-16
3.67503e-15
9.00859e-16
1.18055e-19
1.13255e-27
6.99388e-36
4.8069e-44
-1.04668e-47
-2.51627e-48
-1.95299e-49
-8.70301e-51
-2.572e-52
-5.38678e-54
-8.30391e-56
-9.64533e-58
-8.58066e-60
-5.91367e-62
-3.18533e-64
-1.35056e-66
-4.53474e-69
-1.21182e-71
-2.58802e-74
-4.43406e-77
-6.11606e-80
-6.81026e-83
-6.13381e-86
-4.47829e-89
-2.65489e-92
-1.27954e-95
-5.01499e-99
-1.59778e-102
-4.13632e-106
-8.69173e-110
-1.48003e-113
-2.03595e-117
-2.25145e-121
-1.9885e-125
-1.39003e-129
-7.61717e-134
-3.23143e-138
-1.04476e-142
-2.52331e-147
-4.4365e-152
-5.48719e-157
-4.55588e-162
-2.37013e-167
-6.97188e-173
-9.67679e-179
5.95921e-07
7.85679e-07
1.2055e-26
3.45875e-07
6.56614e-06
5.0473e-06
-7.43584e-26
9.06693e-07
-2.11658e-21
0.987161
0.482335
-2.17638e-23
5.07773e-16
1.80014e-16
1.73988e-16
1.35909e-18
7.88589e-24
2.60246e-32
3.20942e-41
3.18183e-50
-1.15334e-49
-1.02475e-50
-4.66635e-52
-1.36662e-53
-2.79614e-55
-4.17493e-57
-4.67096e-59
-3.98622e-61
-2.62795e-63
-1.35112e-65
-5.45968e-68
-1.74581e-70
-4.44041e-73
-9.02577e-76
-1.47225e-78
-1.93396e-81
-2.05192e-84
-1.7628e-87
-1.22864e-90
-6.95935e-94
-3.20803e-97
-1.20398e-100
-3.67686e-104
-9.13237e-108
-1.84213e-111
-3.01289e-115
-3.98627e-119
-4.2435e-123
-3.61061e-127
-2.43483e-131
-1.28789e-135
-5.27587e-140
-1.64903e-144
-3.85125e-149
-6.5495e-154
-7.84353e-159
-6.30425e-164
-3.17783e-169
-9.06431e-175
-1.2177e-180
5.51043e-07
1.21297e-07
7.63251e-07
5.42867e-06
9.75554e-25
2.01547e-07
3.12191e-07
4.13636e-08
2.06213e-37
1
0.343293
1.39287e-17
5.53237e-16
4.48543e-16
5.78074e-17
1.37234e-18
2.53725e-23
4.98767e-32
4.29431e-41
3.46255e-50
-3.61327e-51
-3.81574e-52
-1.80161e-53
-5.25263e-55
-1.04964e-56
-1.51401e-58
-1.62495e-60
-1.32377e-62
-8.30517e-65
-4.05596e-67
-1.55463e-69
-4.71222e-72
-1.1364e-74
-2.19082e-77
-3.39225e-80
-4.23368e-83
-4.27277e-86
-3.49622e-89
-2.3235e-92
-1.25618e-95
-5.53286e-99
-1.98604e-102
-5.80748e-106
-1.38218e-109
-2.67376e-113
-4.19728e-117
-5.33351e-121
-5.45928e-125
-4.47126e-129
-2.90597e-133
-1.48261e-137
-5.86263e-142
-1.76919e-146
-3.9921e-151
-6.5629e-156
-7.59672e-161
-5.90264e-166
-2.87698e-171
-7.92681e-177
-1.02787e-182
1.91587e-10
6.51801e-11
4.0792e-06
5.8555e-07
0.000134061
5.44088e-10
2.12966e-06
1.12355e-08
0.0325452
1
0.202868
1.71346e-17
8.40822e-16
1.49132e-15
7.22591e-16
1.15296e-17
1.07431e-22
2.25435e-31
2.31367e-40
1.90115e-49
-7.11725e-53
-1.0298e-53
-5.11594e-55
-1.48911e-56
-2.90532e-58
-4.04113e-60
-4.15149e-62
-3.22179e-64
-1.91956e-66
-8.88656e-69
-3.22643e-71
-9.25991e-74
-2.11484e-76
-3.86436e-79
-5.67552e-82
-6.72655e-85
-6.45396e-88
-5.02755e-91
-3.18461e-94
-1.64271e-97
-6.91091e-101
-2.37207e-104
-6.64047e-108
-1.51445e-111
-2.80899e-115
-4.23164e-119
-5.1633e-123
-5.07771e-127
-4.0016e-131
-2.50357e-135
-1.2302e-139
-4.69152e-144
-1.36537e-148
-2.9716e-153
-4.71851e-158
-5.27369e-163
-3.95839e-168
-1.86509e-173
-4.95977e-179
-6.20439e-185
9.67698e-10
8.06011e-11
1.84517e-07
0.00221016
0.000252126
5.3443e-09
2.06259e-07
2.89296e-07
0.55075
1
0.0984062
1.72436e-17
1.221e-15
1.35975e-15
9.77242e-16
2.15302e-17
2.5201e-22
5.65198e-31
5.78099e-40
5.20177e-49
-4.86512e-55
-2.06243e-55
-1.09152e-56
-3.17867e-58
-6.05394e-60
-8.11533e-62
-7.97376e-64
-5.89144e-66
-3.33293e-68
-1.46255e-70
-5.0297e-73
-1.36723e-75
-2.95788e-78
-5.12335e-81
-7.13913e-84
-8.03771e-87
-7.3345e-90
-5.43921e-93
-3.28435e-96
-1.61731e-99
-6.49934e-103
-2.13269e-106
-5.71467e-110
-1.2484e-113
-2.21972e-117
-3.20789e-121
-3.75619e-125
-3.54853e-129
-2.68876e-133
-1.61913e-137
-7.66359e-142
-2.81404e-146
-7.89549e-151
-1.65737e-155
-2.53621e-160
-2.73454e-165
-1.98212e-170
-9.01374e-176
-2.31307e-181
-2.79427e-187
5.15836e-10
4.45563e-07
0.000130616
5.85429e-06
4.36401e-10
3.8384e-11
4.79059e-05
3.42825e-25
0.89309
1
0.0225288
1.07908e-17
8.29652e-16
2.26971e-15
6.19832e-16
6.89163e-18
4.75125e-23
8.2056e-32
1.11585e-40
1.09207e-49
9.69915e-59
-3.0877e-57
-1.7849e-58
-5.21451e-60
-9.69845e-62
-1.2529e-63
-1.17757e-65
-8.28653e-68
-4.45378e-70
-1.85408e-72
-6.04411e-75
-1.55659e-77
-3.19294e-80
-5.24624e-83
-6.94237e-86
-7.42909e-89
-6.45194e-92
-4.55741e-95
-2.62504e-98
-1.23364e-101
-4.73633e-105
-1.48614e-108
-3.81198e-112
-7.97893e-116
-1.36037e-119
-1.88621e-123
-2.12131e-127
-1.92815e-131
-1.4107e-135
-8.29296e-140
-3.93881e-144
-1.55445e-148
-5.42461e-153
-1.78758e-157
-5.4406e-162
-1.36281e-166
-2.45845e-171
-2.84938e-176
-1.86633e-181
-5.73353e-187
6.72742e-11
2.88902e-06
0.000818756
4.07991e-06
6.76883e-10
0.000729206
8.8474e-22
-2.43691e-33
1
1
8.39673e-20
6.53911e-18
5.58447e-16
3.00869e-15
1.25091e-15
9.04563e-18
3.31164e-23
6.73589e-32
1.0044e-40
1.21023e-49
1.26304e-58
-3.56907e-59
-2.27949e-60
-6.70418e-62
-1.21861e-63
-1.51765e-65
-1.36508e-67
-9.15594e-70
-4.67809e-72
-1.84921e-74
-5.72053e-77
-1.3981e-79
-2.72094e-82
-4.24616e-85
-5.34204e-88
-5.44385e-91
-4.5191e-94
-3.08308e-97
-1.76723e-100
-9.01126e-104
-4.59444e-107
-2.62587e-110
-1.62257e-113
-9.46322e-117
-4.73174e-120
-1.94487e-123
-6.459e-127
-1.71842e-130
-3.63342e-134
-6.05285e-138
-7.86173e-142
-7.85439e-146
-5.94217e-150
-3.3301e-154
-1.34831e-158
-3.80968e-163
-7.1657e-168
-8.36982e-173
-5.4652e-178
-1.65556e-183
6.72742e-11
1.90145e-06
0.000866104
3.90431e-06
0.000323099
0.000335462
9.58235e-15
0.265964
1
0.970389
-9.65596e-20
3.23646e-18
6.78114e-16
1.55016e-15
8.57132e-16
5.55663e-18
1.01078e-23
1.32021e-32
1.48229e-41
1.25192e-50
9.22661e-60
-2.98275e-61
-2.30624e-62
-6.87024e-64
-1.22315e-65
-1.47333e-67
-1.2804e-69
-8.44361e-72
-4.52759e-74
-2.24349e-76
-1.20462e-78
-7.13192e-81
-4.06479e-83
-1.9963e-85
-8.08489e-88
-2.66621e-90
-7.1373e-93
-1.55264e-95
-2.74794e-98
-3.95759e-101
-4.63678e-104
-4.42012e-107
-3.42288e-110
-2.14961e-113
-1.0924e-116
-4.47985e-120
-1.4753e-123
-3.8872e-127
-8.14192e-131
-1.34347e-134
-1.72861e-138
-1.71221e-142
-1.28376e-146
-7.13467e-151
-2.86458e-155
-8.03169e-160
-1.49654e-164
-1.73137e-169
-1.11765e-174
-3.33575e-180
1.55214e-07
1.56744e-07
1.11053e-10
7.25946e-19
0.000631257
1.02605e-06
-4.03453e-26
0.891129
1
0.586632
-2.01859e-20
3.18571e-18
6.4066e-16
6.08681e-16
7.68382e-17
1.62215e-19
6.67174e-26
5.25362e-35
4.29294e-44
3.75037e-53
3.25382e-62
-2.45977e-61
-4.77031e-62
-4.21386e-63
-2.25516e-64
-8.15696e-66
-2.11926e-67
-4.11157e-69
-6.1136e-71
-7.09053e-73
-6.49962e-75
-4.75109e-77
-2.78916e-79
-1.32185e-81
-5.0746e-84
-1.58331e-86
-4.02242e-89
-8.33675e-92
-1.41008e-94
-1.9474e-97
-2.19461e-100
-2.01706e-103
-1.50994e-106
-9.18345e-110
-4.52767e-113
-1.80286e-116
-5.77731e-120
-1.4818e-123
-3.02348e-127
-4.86434e-131
-6.10738e-135
-5.90493e-139
-4.32128e-143
-2.34616e-147
-9.19874e-152
-2.51705e-156
-4.57726e-161
-5.16664e-166
-3.24773e-171
-9.44213e-177
5.57483e-08
6.55863e-09
8.94063e-08
7.2595e-19
2.77512e-06
2.0982e-10
-2.17745e-19
1
1
0.197755
2.79413e-15
3.90683e-16
2.63666e-16
5.52948e-16
2.91129e-17
4.17254e-21
9.20413e-29
2.04473e-37
3.371e-46
3.88596e-55
-1.55947e-55
-3.71073e-56
-3.74736e-57
-2.25331e-58
-9.1086e-60
-2.64151e-61
-5.72098e-63
-9.50844e-65
-1.23648e-66
-1.27445e-68
-1.0515e-70
-6.99163e-73
-3.76766e-75
-1.65134e-77
-5.90565e-80
-1.72642e-82
-4.13134e-85
-8.10354e-88
-1.30202e-90
-1.71442e-93
-1.84802e-96
-1.62863e-99
-1.17194e-102
-6.86697e-106
-3.26786e-109
-1.25797e-112
-3.89996e-116
-9.68542e-120
-1.91428e-123
-2.98659e-127
-3.63671e-131
-3.41216e-135
-2.42457e-139
-1.27865e-143
-4.87082e-148
-1.29384e-152
-2.28241e-157
-2.49601e-162
-1.52155e-167
-4.27838e-173
3.44922e-10
1.71222e-09
1.43422e-10
4.45216e-05
-1.30393e-24
5.14767e-18
0.849322
1
1
0.0110073
8.16168e-14
9.08889e-15
2.77914e-17
1.32851e-16
7.41593e-18
3.16101e-22
1.64069e-30
1.55278e-39
1.42643e-48
-4.48849e-49
-1.04119e-49
-1.08902e-50
-6.96936e-52
-3.02975e-53
-9.47539e-55
-2.21425e-56
-3.97279e-58
-5.58013e-60
-6.22582e-62
-5.57674e-64
-4.04059e-66
-2.38121e-68
-1.14591e-70
-4.51837e-73
-1.4633e-75
-3.89711e-78
-8.54724e-81
-1.54371e-83
-2.29563e-86
-2.80876e-89
-2.82361e-92
-2.32974e-95
-1.57365e-98
-8.68006e-102
-3.89705e-105
-1.41813e-108
-4.16626e-112
-9.82091e-116
-1.845e-119
-2.73852e-123
-3.1755e-127
-2.83881e-131
-1.92431e-135
-9.68364e-140
-3.52261e-144
-8.93559e-149
-1.50684e-153
-1.57614e-158
-9.1762e-164
-2.4625e-169
1.84709e-10
1.40187e-10
4.44392e-12
1.18851e-23
-1.08508e-22
0.121502
1
1
0.981125
2.35375e-20
6.42691e-13
3.51753e-14
6.09076e-19
6.53252e-19
2.30418e-20
3.71381e-25
5.70425e-34
2.84792e-43
-5.69185e-43
-1.14803e-43
-1.18016e-44
-7.7451e-46
-3.52099e-47
-1.16389e-48
-2.89634e-50
-5.56211e-52
-8.40299e-54
-1.01334e-55
-9.85714e-58
-7.80273e-60
-5.05117e-62
-2.68569e-64
-1.17618e-66
-4.2527e-69
-1.27235e-71
-3.15057e-74
-6.45773e-77
-1.09571e-79
-1.53743e-82
-1.78337e-85
-1.70592e-88
-1.34316e-91
-8.68171e-95
-4.59621e-98
-1.98464e-101
-6.96119e-105
-1.97267e-108
-4.49288e-112
-8.16185e-116
-1.17314e-119
-1.31786e-123
-1.14239e-127
-7.5067e-132
-3.66674e-136
-1.29471e-140
-3.1911e-145
-5.22162e-150
-5.29882e-155
-2.98858e-160
-7.77468e-166
2.48992e-13
3.85444e-11
5.09752e-07
1.77678e-24
-1.0014e-18
0.996517
1
1
0.337926
7.33662e-13
2.10585e-12
4.28981e-14
1.82181e-19
5.15571e-23
1.59897e-25
5.72487e-31
7.46012e-40
-1.44003e-37
-2.68629e-38
-2.76081e-39
-1.88072e-40
-9.13581e-42
-3.28914e-43
-9.01114e-45
-1.91604e-46
-3.21165e-48
-4.2996e-50
-4.64604e-52
-4.08369e-54
-2.93944e-56
-1.74113e-58
-8.51772e-61
-3.449e-63
-1.15759e-65
-3.22594e-68
-7.46628e-71
-1.43574e-73
-2.29418e-76
-3.04192e-79
-3.34035e-82
-3.03322e-85
-2.2718e-88
-1.40031e-91
-7.08031e-95
-2.92468e-98
-9.82376e-102
-2.66992e-105
-5.83349e-109
-1.01744e-112
-1.40391e-116
-1.51562e-120
-1.26348e-124
-7.98967e-129
-3.7543e-133
-1.27588e-137
-3.02286e-142
-4.75917e-147
-4.64828e-152
-2.5221e-157
-6.28008e-163
3.2874e-13