/*--------------------------------*- C++ -*----------------------------------*\
| =========                 |                                                 |
| \\      /  F ield         | OpenFOAM: The Open Source CFD Toolbox           |
|  \\    /   O peration     | Version:  v1912                                 |
|   \\  /    A nd           | Website:  www.openfoam.com                      |
|    \\/     M anipulation  |                                                 |
\*---------------------------------------------------------------------------*/
FoamFile
{
    version     2.0;
    format      ascii;
    class       volScalarField;
    location    "8";
    object      epsilon;
}
// * * * * * * * * * * * * * * * * * * * * * * * * * * * * * * * * * * * * * //

dimensions      [0 2 -3 0 0 0 0];


internalField   nonuniform List<scalar> 
20320
(
4.43385e-05
0.0002147
0.000220883
0.000227134
0.000233503
0.00024016
0.00024967
0.000309682
0.00102171
0.00625648
0.0253135
0.0640768
0.116332
0.167559
0.203389
0.215296
0.200651
0.158401
0.0892074
0.0277777
4.38588e-05
4.35929e-05
4.37285e-05
4.42304e-05
4.72566e-05
9.58424e-05
0.000807406
0.00556382
0.0191934
0.042123
0.0717174
0.105176
0.139556
0.170787
0.193554
0.202954
0.197144
0.179717
0.163086
0.191198
4.40928e-05
4.40665e-05
4.46478e-05
5.2868e-05
0.000206559
0.00205967
0.0111551
0.0318733
0.0623856
0.0983392
0.135518
0.170471
0.200547
0.223763
0.238845
0.245672
0.246026
0.244824
0.254796
0.346075
4.44602e-05
4.51779e-05
5.30685e-05
0.000218428
0.00235642
0.0130681
0.0374389
0.0731951
0.11523
0.158693
0.199666
0.235268
0.263707
0.284306
0.297522
0.30496
0.309587
0.316935
0.341905
0.479044
4.50623e-05
4.88092e-05
0.000134882
0.00162047
0.0111082
0.0358115
0.0744148
0.121393
0.171278
0.219655
0.26324
0.299861
0.328461
0.349094
0.362872
0.371913
0.379579
0.392114
0.427429
0.603824
4.62068e-05
6.91969e-05
0.000690267
0.00696835
0.0286234
0.0672022
0.117252
0.172627
0.228275
0.280383
0.326285
0.364389
0.394131
0.415932
0.431132
0.441987
0.452105
0.468563
0.512585
0.726206
4.97643e-05
0.000181808
0.00293265
0.0184562
0.0535553
0.104113
0.163289
0.225217
0.285423
0.34067
0.388807
0.428664
0.459988
0.483378
0.500247
0.512912
0.525227
0.545187
0.597466
0.848208
6.27825e-05
0.000667856
0.00854851
0.0361438
0.0838799
0.144539
0.211173
0.278451
0.342472
0.400504
0.450806
0.492513
0.525566
0.550653
0.569213
0.583625
0.598021
0.621367
0.681881
0.97038
0.000109699
0.00215372
0.0185118
0.0589529
0.118023
0.187318
0.260256
0.332083
0.39943
0.459997
0.512374
0.555922
0.590709
0.617473
0.637669
0.65375
0.670162
0.696873
0.765739
1.09293
0.000255497
0.00542499
0.0327269
0.0856798
0.154913
0.231793
0.310251
0.386093
0.456432
0.519347
0.573702
0.619038
0.655512
0.683892
0.705651
0.723331
0.741708
0.771789
0.84916
1.21621
0.000616673
0.0109953
0.0505098
0.115316
0.193827
0.277585
0.361059
0.440578
0.513693
0.578826
0.635083
0.682154
0.720269
0.750219
0.773493
0.792725
0.813035
0.846491
0.932537
1.34089
0.00133029
0.0188972
0.0710238
0.14706
0.234254
0.324467
0.412674
0.495689
0.571471
0.638759
0.696885
0.745681
0.785443
0.816979
0.841787
0.862589
0.884839
0.92169
1.0166
1.46816
0.00249424
0.0287876
0.0934728
0.180275
0.275823
0.372302
0.465149
0.551621
0.630062
0.699525
0.759568
0.810164
0.851682
0.884943
0.911445
0.933968
0.95827
0.998594
1.10263
1.60002
0.00412069
0.0401362
0.11715
0.214445
0.318245
0.421005
0.518561
0.608581
0.689786
0.761545
0.823659
0.876268
0.919825
0.955171
0.983783
1.00845
1.03516
1.07921
1.19273
1.73978
0.00612966
0.0523656
0.141451
0.249149
0.361297
0.470525
0.573002
0.666783
0.750967
0.825261
0.889746
0.944771
0.990917
1.02907
1.06068
1.08847
1.11851
1.16698
1.29073
1.89317
0.0083768
0.0649451
0.165899
0.284083
0.404846
0.520872
0.628607
0.726471
0.81396
0.891158
0.95849
1.01659
1.06625
1.10849
1.14478
1.17775
1.21334
1.26822
1.40395
2.07116
0.0106993
0.0774506
0.190167
0.319081
0.448869
0.572145
0.685574
0.78794
0.879163
0.959769
1.03061
1.09273
1.14732
1.19572
1.23967
1.28188
1.32811
1.39495
1.54795
2.29719
0.0129602
0.0896103
0.21412
0.35416
0.493508
0.624583
0.744223
0.851588
0.947069
1.03171
1.1069
1.17428
1.23568
1.29324
1.34957
1.40838
1.47628
1.57027
1.75876
2.62995
0.0150844
0.101344
0.237864
0.38959
0.539153
0.678657
0.805096
0.91803
1.01837
1.10777
1.18828
1.26233
1.33277
1.40313
1.47816
1.56492
1.67536
1.83467
2.12451
3.25606
0.0170792
0.1128
0.261806
0.425982
0.586548
0.735208
0.869111
0.988258
1.09415
1.18911
1.27597
1.35811
1.43969
1.52626
1.62612
1.7532
1.93439
2.23175
2.83351
5.05425
154.751
317.421
218.667
469.024
1986.99
2726.28
1987.22
1866.83
3345.86
1717.38
1020.2
813.279
691.845
559.093
466.231
398.738
379.913
309.777
131.346
16.4526
0.451832
0.00552216
0.000801848
0.000662845
0.000604752
0.000560464
0.00052459
0.00049466
0.000469192
0.000447123
0.000427742
0.000410512
0.00039509
0.000381255
0.000368813
0.000357543
0.000347239
0.000337679
0.000328756
0.000320373
0.000312413
0.000304869
0.000297731
0.00029091
0.000284388
0.000278165
0.000272253
0.000266598
0.000261149
0.000255902
0.00025085
0.000245981
0.000241296
0.000236767
0.000232369
0.000228088
0.000223903
0.000219803
0.000215816
0.000212056
273.252
210.574
209.253
476.149
1732.83
2568.22
2334.15
1989.84
1711.53
619.568
448.449
423.187
370.019
357.069
330.306
289.956
260.79
202.663
95.1611
15.6715
0.945435
0.0302569
0.000988716
0.000249353
0.000170487
0.00013673
0.000118201
0.000106765
9.91149e-05
9.37196e-05
8.97655e-05
8.67968e-05
8.44615e-05
8.25624e-05
8.09605e-05
7.96481e-05
7.85907e-05
7.77461e-05
7.70539e-05
7.64794e-05
7.60141e-05
7.5597e-05
7.52072e-05
7.48606e-05
7.45585e-05
7.42788e-05
7.40015e-05
7.37427e-05
7.35188e-05
7.33246e-05
7.31461e-05
7.29704e-05
7.28019e-05
7.26553e-05
7.25331e-05
7.24278e-05
7.23442e-05
7.22996e-05
7.24018e-05
7.27501e-05
336.978
246.673
276.602
718.004
2496.81
3641.81
4625.46
5601.65
1854.18
450.409
400.759
302.541
243.49
228.207
247.315
264.516
258.466
187.07
60.5851
8.5436
0.535676
0.0204022
0.000991745
0.000277234
0.000161257
0.000115599
9.2731e-05
7.96436e-05
7.14563e-05
6.59447e-05
6.20292e-05
5.9149e-05
5.6971e-05
5.52946e-05
5.3966e-05
5.29111e-05
5.20589e-05
5.13725e-05
5.08089e-05
5.03481e-05
4.99718e-05
4.9644e-05
4.93536e-05
4.9098e-05
4.88776e-05
4.86832e-05
4.84996e-05
4.83311e-05
4.81849e-05
4.80594e-05
4.79502e-05
4.78482e-05
4.77539e-05
4.76741e-05
4.76093e-05
4.75572e-05
4.75202e-05
4.75073e-05
4.75906e-05
4.77754e-05
425.48
276.744
350.497
871.86
2166.34
3252.75
4893.38
8351.63
1155.18
408.352
342.448
215.812
164.834
155.786
175.618
221.862
224.206
122.776
29.7859
3.55706
0.226591
0.0104689
0.000949713
0.000316389
0.000171148
0.000115513
8.88034e-05
7.40678e-05
6.51498e-05
5.93016e-05
5.52264e-05
5.22465e-05
5.00377e-05
4.83958e-05
4.71563e-05
4.61942e-05
4.54117e-05
4.47697e-05
4.42375e-05
4.37987e-05
4.34274e-05
4.31095e-05
4.2841e-05
4.26078e-05
4.24036e-05
4.22231e-05
4.20606e-05
4.19177e-05
4.17921e-05
4.16811e-05
4.15857e-05
4.15012e-05
4.14258e-05
4.13609e-05
4.13064e-05
4.12626e-05
4.12302e-05
4.12124e-05
4.12674e-05
4.13844e-05
466.567
285.404
358.555
723.355
1574.28
2311.3
3153.84
2068.9
706.536
564.346
244.674
195.3
146.754
126.08
97.6224
123.786
113.666
48.2115
9.9003
1.06717
0.0740747
0.00498894
0.000877317
0.000328313
0.000175451
0.000116357
8.8209e-05
7.28448e-05
6.36328e-05
5.76497e-05
5.35178e-05
5.05272e-05
4.83394e-05
4.67293e-05
4.55384e-05
4.46237e-05
4.38784e-05
4.32607e-05
4.27434e-05
4.2313e-05
4.19405e-05
4.16239e-05
4.13647e-05
4.11422e-05
4.09436e-05
4.07646e-05
4.06095e-05
4.04792e-05
4.03637e-05
4.02581e-05
4.01666e-05
4.00889e-05
4.00213e-05
3.99616e-05
3.99103e-05
3.98687e-05
3.98365e-05
3.98139e-05
3.98565e-05
3.99672e-05
449.61
264.738
320.643
545.104
1091.73
1608.1
1775.78
907.789
767.003
657.15
145.949
178.36
136.609
84.1585
24.4436
32.8153
30.6795
12.0703
2.25872
0.250135
0.0215228
0.00282843
0.000771195
0.000315597
0.000172721
0.000115366
8.76603e-05
7.24173e-05
6.31925e-05
5.71713e-05
5.30494e-05
5.01115e-05
4.79892e-05
4.64155e-05
4.52373e-05
4.43292e-05
4.35995e-05
4.29968e-05
4.24844e-05
4.2054e-05
4.16797e-05
4.13664e-05
4.11108e-05
4.08897e-05
4.06909e-05
4.05108e-05
4.03583e-05
4.02336e-05
4.01218e-05
4.00179e-05
3.99264e-05
3.98497e-05
3.97846e-05
3.97265e-05
3.96761e-05
3.96348e-05
3.96017e-05
3.95756e-05
3.96142e-05
3.97338e-05
404.77
233.006
278.272
425.786
780.47
1122.83
1082.63
668.589
432.624
263.304
92.187
177.653
149.734
58.3386
8.57696
6.85884
5.79563
2.12007
0.406086
0.0533222
0.00761098
0.00186984
0.000640731
0.000288454
0.000165143
0.000112669
8.65136e-05
7.18326e-05
6.27956e-05
5.68337e-05
5.27813e-05
4.99383e-05
4.78991e-05
4.63706e-05
4.51997e-05
4.42813e-05
4.35487e-05
4.29488e-05
4.24362e-05
4.20062e-05
4.1637e-05
4.13308e-05
4.10749e-05
4.08487e-05
4.06495e-05
4.04718e-05
4.03216e-05
4.01977e-05
4.00861e-05
3.99833e-05
3.98914e-05
3.98139e-05
3.97483e-05
3.96906e-05
3.9641e-05
3.95999e-05
3.95657e-05
3.95373e-05
3.95752e-05
3.97028e-05
333.629
203.061
237.342
349.524
600.735
781.928
724.709
557.018
288.356
128.669
61.47
170.998
170.849
50.8436
5.28123
1.34022
0.875613
0.318409
0.0699718
0.0135738
0.00370305
0.00126575
0.000511794
0.000255438
0.000154692
0.000108674
8.47194e-05
7.08598e-05
6.21761e-05
5.64219e-05
5.25098e-05
4.97775e-05
4.78219e-05
4.63435e-05
4.51891e-05
4.42661e-05
4.35197e-05
4.29103e-05
4.23981e-05
4.19737e-05
4.16161e-05
4.13181e-05
4.10594e-05
4.08292e-05
4.06316e-05
4.04595e-05
4.03121e-05
4.01859e-05
4.00725e-05
3.99715e-05
3.98804e-05
3.98008e-05
3.97338e-05
3.96769e-05
3.96286e-05
3.95875e-05
3.95522e-05
3.95226e-05
3.95613e-05
3.9694e-05
254.924
176.165
198.378
271.735
381.648
423.974
525.247
493.426
235.722
77.5175
43.5789
160.477
181.433
50.8796
5.08068
0.429845
0.144674
0.0502102
0.0146917
0.005152
0.00205364
0.000854897
0.000401988
0.000222129
0.000142843
0.000103726
8.22999e-05
6.94873e-05
6.13262e-05
5.58997e-05
5.22028e-05
4.96026e-05
4.77172e-05
4.62847e-05
4.51606e-05
4.42451e-05
4.34848e-05
4.28599e-05
4.23472e-05
4.1933e-05
4.15879e-05
4.12943e-05
4.10356e-05
4.08074e-05
4.06153e-05
4.04479e-05
4.03013e-05
4.01729e-05
4.0059e-05
3.99592e-05
3.98686e-05
3.97872e-05
3.97191e-05
3.96631e-05
3.96159e-05
3.95749e-05
3.9539e-05
3.95089e-05
3.95485e-05
3.96844e-05
196.464
152.374
167.732
209.435
227.319
253.819
374.739
439.314
217.314
53.2469
34.7549
141.312
178.284
52.8446
5.42473
0.394567
0.0503805
0.0127336
0.00516703
0.00251425
0.00120298
0.00058728
0.00031557
0.000191462
0.000130548
9.8099e-05
7.93676e-05
6.77875e-05
6.02947e-05
5.52872e-05
5.18464e-05
4.93924e-05
4.75839e-05
4.6195e-05
4.50972e-05
4.41966e-05
4.34362e-05
4.28051e-05
4.22933e-05
4.18838e-05
4.15438e-05
4.12543e-05
4.10025e-05
4.07837e-05
4.05974e-05
4.04327e-05
4.02857e-05
4.01563e-05
4.0043e-05
3.9944e-05
3.98531e-05
3.97712e-05
3.97029e-05
3.96476e-05
3.96009e-05
3.95599e-05
3.95235e-05
3.94936e-05
3.95345e-05
3.96721e-05
154.899
131.737
148.055
182.032
170.203
192.423
287.373
374.813
200.163
39.5796
34.3037
123.701
169.915
55.927
5.54666
0.484314
0.0542746
0.00940491
0.00307647
0.00144731
0.000752851
0.000416085
0.000249888
0.000164553
0.000118473
9.20837e-05
7.60736e-05
6.58745e-05
5.91554e-05
5.46062e-05
5.14382e-05
4.91465e-05
4.74223e-05
4.60736e-05
4.49926e-05
4.41098e-05
4.33703e-05
4.2752e-05
4.22422e-05
4.18261e-05
4.14839e-05
4.12004e-05
4.09619e-05
4.07549e-05
4.05746e-05
4.04122e-05
4.02653e-05
4.01366e-05
4.00244e-05
3.9925e-05
3.98339e-05
3.97529e-05
3.96856e-05
3.96305e-05
3.95832e-05
3.9542e-05
3.95058e-05
3.94766e-05
3.95184e-05
3.96568e-05
126.271
113.013
135.433
175.533
154.8
167.344
237.424
313.511
175.988
32.6175
29.2559
110.654
160.241
57.7739
5.51242
0.542233
0.068232
0.0112504
0.00269254
0.00098288
0.000505853
0.000305146
0.000200537
0.000141627
0.000107086
8.59872e-05
7.2612e-05
6.38468e-05
5.79483e-05
5.38786e-05
5.09892e-05
4.88604e-05
4.72223e-05
4.59132e-05
4.48504e-05
4.39906e-05
4.32873e-05
4.26966e-05
4.21909e-05
4.17628e-05
4.14141e-05
4.1139e-05
4.09156e-05
4.07197e-05
4.05438e-05
4.03853e-05
4.02418e-05
4.01137e-05
4.00015e-05
3.99016e-05
3.98117e-05
3.9733e-05
3.96668e-05
3.96114e-05
3.95628e-05
3.95213e-05
3.94859e-05
3.94577e-05
3.95004e-05
3.96384e-05
112.822
99.7064
127.635
169.715
146.291
152.425
204.585
260.775
150.65
27.2485
23.1448
104.709
142.631
54.8572
5.39938
0.54902
0.077328
0.0137885
0.00285748
0.000769771
0.000361536
0.000231113
0.000163368
0.000122409
9.66764e-05
8.00788e-05
6.91519e-05
6.17843e-05
5.67087e-05
5.31233e-05
5.05059e-05
4.85264e-05
4.69688e-05
4.57093e-05
4.46816e-05
4.38552e-05
4.31881e-05
4.2625e-05
4.21299e-05
4.16983e-05
4.13464e-05
4.10746e-05
4.08606e-05
4.06736e-05
4.05039e-05
4.03527e-05
4.02145e-05
4.00872e-05
3.99737e-05
3.98743e-05
3.97874e-05
3.97114e-05
3.9646e-05
3.95897e-05
3.95402e-05
3.94982e-05
3.94635e-05
3.94365e-05
3.94797e-05
3.96172e-05
121.959
93.9051
127.021
163.506
134.648
138.476
180.683
219.604
129.619
23.9599
21.6749
104.239
120.896
47.3587
5.09743
0.509448
0.079379
0.0157444
0.00315616
0.000658958
0.00027057
0.00018003
0.000135126
0.000106457
8.7419e-05
7.45805e-05
6.5831e-05
5.9761e-05
5.54649e-05
5.23366e-05
4.99762e-05
4.8138e-05
4.66636e-05
4.54722e-05
4.45013e-05
4.37123e-05
4.30694e-05
4.25277e-05
4.20538e-05
4.16363e-05
4.12868e-05
4.1011e-05
4.07961e-05
4.06159e-05
4.04557e-05
4.03144e-05
4.01822e-05
4.00558e-05
3.9942e-05
3.98445e-05
3.97609e-05
3.96876e-05
3.96224e-05
3.95652e-05
3.95152e-05
3.94733e-05
3.94392e-05
3.94129e-05
3.94564e-05
3.95928e-05
136.635
92.6085
128.837
146.896
120.334
124.452
160.728
179.416
104.232
21.9683
21.4151
99.4259
100.502
37.5608
4.49617
0.431868
0.0744646
0.0164019
0.00333008
0.000576746
0.000208338
0.000143625
0.000113436
9.33276e-05
7.93851e-05
6.96228e-05
6.2746e-05
5.78283e-05
5.42316e-05
5.15119e-05
4.93838e-05
4.76894e-05
4.63212e-05
4.52161e-05
4.43111e-05
4.35565e-05
4.29301e-05
4.24087e-05
4.19654e-05
4.15752e-05
4.12338e-05
4.09486e-05
4.07251e-05
4.05494e-05
4.04003e-05
4.02684e-05
4.01425e-05
4.00194e-05
3.99078e-05
3.98127e-05
3.97321e-05
3.96607e-05
3.95956e-05
3.95381e-05
3.94883e-05
3.94466e-05
3.94126e-05
3.9387e-05
3.94304e-05
3.95655e-05
142.524
92.8184
118.893
119.522
100.83
111.366
140.869
138.665
80.5929
19.7151
20.9263
95.3025
84.3558
27.6203
3.57302
0.334457
0.0638782
0.0154517
0.00319841
0.000483611
0.000162497
0.000117063
9.66923e-05
8.26449e-05
7.25617e-05
6.52632e-05
5.9945e-05
5.60008e-05
5.2992e-05
5.06286e-05
4.87288e-05
4.7199e-05
4.59607e-05
4.49486e-05
4.41025e-05
4.33794e-05
4.27734e-05
4.22799e-05
4.18713e-05
4.15092e-05
4.11783e-05
4.08862e-05
4.06538e-05
4.04795e-05
4.03379e-05
4.02131e-05
4.00946e-05
3.99785e-05
3.98715e-05
3.97793e-05
3.97005e-05
3.963e-05
3.95658e-05
3.95086e-05
3.94593e-05
3.9418e-05
3.93841e-05
3.93586e-05
3.94019e-05
3.95352e-05
148.376
93.1366
99.8425
93.1589
85.226
98.8288
117.291
99.7954
57.8645
17.6212
20.5192
86.3909
74.3531
18.8796
2.48501
0.238279
0.04982
0.0130455
0.00269809
0.000368364
0.000127432
9.7477e-05
8.37809e-05
7.40406e-05
6.68465e-05
6.14775e-05
5.7409e-05
5.42518e-05
5.17409e-05
4.97096e-05
4.80481e-05
4.66931e-05
4.55828e-05
4.46559e-05
4.38673e-05
4.31868e-05
4.2614e-05
4.21516e-05
4.17715e-05
4.14318e-05
4.11139e-05
4.08242e-05
4.0587e-05
4.04091e-05
4.02688e-05
4.0149e-05
4.00394e-05
3.99333e-05
3.98333e-05
3.97437e-05
3.96653e-05
3.9596e-05
3.95332e-05
3.94769e-05
3.94282e-05
3.9387e-05
3.93533e-05
3.9328e-05
3.93709e-05
3.95022e-05
152.305
91.7536
83.4205
73.8875
73.3205
83.9378
91.8718
70.1837
40.2001
15.8477
20.3692
83.5555
65.6714
11.7286
1.45553
0.152174
0.0348853
0.00972132
0.00191515
0.000247203
0.000101135
8.29757e-05
7.38315e-05
6.71582e-05
6.20954e-05
5.81889e-05
5.50904e-05
5.25767e-05
5.05037e-05
4.87905e-05
4.73678e-05
4.61794e-05
4.51811e-05
4.43309e-05
4.36079e-05
4.29882e-05
4.24604e-05
4.2025e-05
4.16629e-05
4.13406e-05
4.10406e-05
4.07621e-05
4.05237e-05
4.03385e-05
4.0195e-05
4.00791e-05
3.9979e-05
3.9884e-05
3.97918e-05
3.97048e-05
3.96269e-05
3.95587e-05
3.9498e-05
3.94432e-05
3.93948e-05
3.93537e-05
3.93202e-05
3.92952e-05
3.93375e-05
3.94665e-05
155.888
89.5001
71.1154
60.7036
61.6537
66.368
69.9623
51.8589
31.255
14.9358
20.4724
84.2982
54.8421
6.18782
0.673625
0.0838735
0.0214315
0.00619559
0.00106793
0.000150296
8.25732e-05
7.21913e-05
6.61296e-05
6.16352e-05
5.81238e-05
5.53083e-05
5.29742e-05
5.10083e-05
4.93312e-05
4.79118e-05
4.67024e-05
4.56562e-05
4.47574e-05
4.39868e-05
4.33417e-05
4.27922e-05
4.23105e-05
4.18941e-05
4.1544e-05
4.12404e-05
4.09624e-05
4.06993e-05
4.04606e-05
4.02665e-05
4.01188e-05
4.00069e-05
3.99157e-05
3.98303e-05
3.97456e-05
3.96621e-05
3.95854e-05
3.95189e-05
3.94603e-05
3.9407e-05
3.93591e-05
3.93181e-05
3.92847e-05
3.92602e-05
3.9302e-05
3.94283e-05
155.828
86.4538
61.6531
49.6234
47.0498
48.9701
52.2797
39.9136
25.4909
14.5122
20.4967
78.5652
51.9279
2.98775
0.227496
0.0380484
0.0110818
0.00311917
0.00043189
9.45134e-05
7.00331e-05
6.4072e-05
6.0113e-05
5.71607e-05
5.47763e-05
5.27935e-05
5.10784e-05
4.95818e-05
4.82456e-05
4.70707e-05
4.60387e-05
4.51217e-05
4.43274e-05
4.36483e-05
4.30819e-05
4.2596e-05
4.21549e-05
4.1756e-05
4.14187e-05
4.11361e-05
4.08806e-05
4.06314e-05
4.03938e-05
4.01936e-05
4.00439e-05
3.99363e-05
3.9851e-05
3.9772e-05
3.96938e-05
3.96152e-05
3.95413e-05
3.9477e-05
3.94201e-05
3.93682e-05
3.9321e-05
3.92802e-05
3.9247e-05
3.92231e-05
3.92643e-05
3.93876e-05
153.761
85.1462
56.3972
42.6184
35.2316
37.4069
39.4059
33.3117
22.6143
14.4514
20.5179
71.4498
54.5166
2.58141
0.0662508
0.013021
0.00429559
0.000995372
0.000147085
7.00059e-05
6.13717e-05
5.78505e-05
5.53746e-05
5.35286e-05
5.1981e-05
5.06411e-05
4.94214e-05
4.83023e-05
4.72391e-05
4.62634e-05
4.53863e-05
4.46005e-05
4.39182e-05
4.33285e-05
4.28273e-05
4.23893e-05
4.19873e-05
4.16137e-05
4.1294e-05
4.10297e-05
4.0792e-05
4.05564e-05
4.03235e-05
4.01225e-05
3.99726e-05
3.9867e-05
3.97844e-05
3.97093e-05
3.96371e-05
3.95646e-05
3.94949e-05
3.94328e-05
3.93774e-05
3.93265e-05
3.92802e-05
3.92401e-05
3.92074e-05
3.91839e-05
3.92245e-05
3.93447e-05
148.135
87.4829
57.4059
42.4229
32.7971
31.2988
32.0574
30.9093
21.8058
14.6094
20.7232
68.253
55.214
3.52218
0.0496304
0.00302435
0.000911184
0.000207178
7.52253e-05
5.89961e-05
5.50745e-05
5.3067e-05
5.16619e-05
5.06143e-05
4.96857e-05
4.88245e-05
4.79749e-05
4.71461e-05
4.63052e-05
4.55032e-05
4.47735e-05
4.41202e-05
4.35427e-05
4.30255e-05
4.25716e-05
4.21709e-05
4.181e-05
4.14724e-05
4.11722e-05
4.09191e-05
4.06935e-05
4.04727e-05
4.02522e-05
4.00557e-05
3.9905e-05
3.97978e-05
3.97152e-05
3.96434e-05
3.95772e-05
3.95114e-05
3.94461e-05
3.9386e-05
3.93318e-05
3.9282e-05
3.92369e-05
3.9198e-05
3.9166e-05
3.91429e-05
3.91826e-05
3.92996e-05
139.009
94.6311
65.4468
48.8109
37.1457
30.1775
29.9602
31.5793
22.1477
14.8182
21.0822
65.3943
55.3643
5.29516
0.093038
0.00182677
0.000212637
8.42598e-05
5.9118e-05
5.2583e-05
5.04721e-05
4.94598e-05
4.87959e-05
4.83038e-05
4.78133e-05
4.7291e-05
4.67128e-05
4.61087e-05
4.5459e-05
4.48177e-05
4.42231e-05
4.36846e-05
4.31912e-05
4.27293e-05
4.23153e-05
4.19515e-05
4.16329e-05
4.13326e-05
4.10493e-05
4.08013e-05
4.05862e-05
4.03847e-05
4.01829e-05
3.99938e-05
3.98395e-05
3.97269e-05
3.96436e-05
3.9576e-05
3.9516e-05
3.94562e-05
3.93947e-05
3.93361e-05
3.92833e-05
3.9235e-05
3.91914e-05
3.91538e-05
3.9123e-05
3.91003e-05
3.91387e-05
3.92524e-05
129.627
105.567
79.8171
58.9166
41.7553
31.5725
31.874
34.1097
22.7351
14.956
21.6467
62.9708
54.4592
7.5602
0.209797
0.00400812
0.000211161
7.0209e-05
5.30505e-05
4.85043e-05
4.72644e-05
4.68446e-05
4.66435e-05
4.64998e-05
4.62931e-05
4.6004e-05
4.56282e-05
4.52038e-05
4.47223e-05
4.42247e-05
4.37374e-05
4.3282e-05
4.2852e-05
4.24398e-05
4.20682e-05
4.17419e-05
4.14594e-05
4.11898e-05
4.09213e-05
4.06794e-05
4.04766e-05
4.02962e-05
4.01153e-05
3.99339e-05
3.97741e-05
3.96544e-05
3.95711e-05
3.95089e-05
3.94544e-05
3.93992e-05
3.93407e-05
3.92835e-05
3.9232e-05
3.91857e-05
3.91441e-05
3.91081e-05
3.90784e-05
3.9056e-05
3.9093e-05
3.92031e-05
119.734
116.148
90.6544
60.89
40.7488
32.8048
35.2929
36.6844
22.67
14.9861
22.485
61.5042
52.6699
9.34448
0.395798
0.0100191
0.00037171
7.19289e-05
5.04484e-05
4.62217e-05
4.52524e-05
4.5079e-05
4.5097e-05
4.51295e-05
4.50866e-05
4.49533e-05
4.47289e-05
4.44431e-05
4.40961e-05
4.37108e-05
4.33e-05
4.29029e-05
4.25271e-05
4.21667e-05
4.18392e-05
4.1545e-05
4.12864e-05
4.10401e-05
4.07894e-05
4.0559e-05
4.03694e-05
4.0208e-05
4.0046e-05
3.9873e-05
3.9709e-05
3.95827e-05
3.94993e-05
3.94418e-05
3.93919e-05
3.93402e-05
3.92844e-05
3.92288e-05
3.91786e-05
3.91344e-05
3.90951e-05
3.90608e-05
3.90321e-05
3.901e-05
3.90457e-05
3.91519e-05
107.807
120.329
84.7076
47.7728
33.1596
31.6767
37.0657
37.5021
21.5723
14.9281
23.6367
60.5324
50.3996
10.2633
0.570967
0.0192134
0.000712655
8.37881e-05
5.03329e-05
4.54261e-05
4.42645e-05
4.40363e-05
4.40679e-05
4.41456e-05
4.41765e-05
4.4135e-05
4.40114e-05
4.38181e-05
4.35614e-05
4.32554e-05
4.29043e-05
4.25555e-05
4.22289e-05
4.19172e-05
4.16268e-05
4.13547e-05
4.11108e-05
4.08853e-05
4.06593e-05
4.04465e-05
4.02681e-05
4.01186e-05
3.99708e-05
3.98081e-05
3.96453e-05
3.95149e-05
3.94298e-05
3.93743e-05
3.93275e-05
3.92791e-05
3.92264e-05
3.91728e-05
3.9124e-05
3.90816e-05
3.90445e-05
3.9012e-05
3.89841e-05
3.89624e-05
3.89968e-05
3.9099e-05
93.0936
113.65
68.6521
35.0113
25.3762
28.8228
35.9143
35.3815
19.3654
14.8862
25.1829
60.4109
47.2719
10.2507
0.655982
0.0271209
0.00116042
0.000106111
5.22023e-05
4.57843e-05
4.41098e-05
4.36025e-05
4.34921e-05
4.35122e-05
4.35394e-05
4.35265e-05
4.34497e-05
4.33032e-05
4.30983e-05
4.285e-05
4.25547e-05
4.22519e-05
4.19645e-05
4.16877e-05
4.14229e-05
4.11679e-05
4.09382e-05
4.07345e-05
4.05366e-05
4.03423e-05
4.01701e-05
4.00259e-05
3.98896e-05
3.97399e-05
3.95836e-05
3.94521e-05
3.93632e-05
3.9306e-05
3.9261e-05
3.92162e-05
3.91673e-05
3.91163e-05
3.90688e-05
3.90276e-05
3.89924e-05
3.89616e-05
3.89346e-05
3.89133e-05
3.89463e-05
3.90443e-05
76.2213
95.1306
56.731
27.7613
21.2198
27.0563
33.086
30.3347
16.5053
15.043
27.195
60.9323
43.28
9.45138
0.637193
0.0304084
0.00154309
0.000134266
5.55549e-05
4.69988e-05
4.46085e-05
4.36762e-05
4.33093e-05
4.31821e-05
4.31321e-05
4.30862e-05
4.3008e-05
4.28781e-05
4.27053e-05
4.25021e-05
4.22555e-05
4.19882e-05
4.1725e-05
4.14694e-05
4.12235e-05
4.09875e-05
4.07764e-05
4.05943e-05
4.0421e-05
4.02424e-05
4.0073e-05
3.99301e-05
3.98036e-05
3.9669e-05
3.95236e-05
3.93933e-05
3.92991e-05
3.92373e-05
3.91926e-05
3.91522e-05
3.91078e-05
3.90598e-05
3.90134e-05
3.89727e-05
3.89389e-05
3.89097e-05
3.88836e-05
3.88627e-05
3.88943e-05
3.89881e-05
60.1212
73.9766
48.0748
20.4205
19.2661
25.4979
28.8758
24.7906
14.233
15.5711
29.7195
61.0322
38.8787
8.20339
0.552047
0.0294852
0.00177791
0.000162818
5.99591e-05
4.88597e-05
4.56106e-05
4.41499e-05
4.34412e-05
4.30954e-05
4.29093e-05
4.27842e-05
4.26718e-05
4.25405e-05
4.2386e-05
4.22118e-05
4.19978e-05
4.17515e-05
4.15018e-05
4.1262e-05
4.10361e-05
4.08232e-05
4.0632e-05
4.04655e-05
4.0308e-05
4.01412e-05
3.99759e-05
3.98352e-05
3.97169e-05
3.95974e-05
3.94645e-05
3.93363e-05
3.92368e-05
3.91693e-05
3.91238e-05
3.90874e-05
3.90483e-05
3.90034e-05
3.89581e-05
3.89176e-05
3.88842e-05
3.88562e-05
3.88313e-05
3.88109e-05
3.88408e-05
3.89306e-05
48.8224
59.804
40.9173
17.1815
18.9714
23.077
23.8894
18.1751
12.7263
16.5432
32.8083
59.0278
35.1085
6.83788
0.428671
0.0254655
0.0018444
0.000187739
6.50065e-05
5.11798e-05
4.69738e-05
4.49129e-05
4.38049e-05
4.31956e-05
4.28407e-05
4.2611e-05
4.24416e-05
4.2289e-05
4.21316e-05
4.19645e-05
4.17658e-05
4.15335e-05
4.12963e-05
4.10746e-05
4.08707e-05
4.06791e-05
4.05025e-05
4.03429e-05
4.01924e-05
4.00369e-05
3.98807e-05
3.97449e-05
3.96331e-05
3.95256e-05
3.94042e-05
3.9279e-05
3.91753e-05
3.9103e-05
3.90562e-05
3.90227e-05
3.89885e-05
3.89473e-05
3.8903e-05
3.88623e-05
3.88287e-05
3.88013e-05
3.87776e-05
3.87579e-05
3.87863e-05
3.88719e-05
42.6189
51.4978
35.1197
16.5546
18.82
19.2937
19.7136
13.935
12.3141
17.964
36.4525
54.8001
31.7038
5.32008
0.298862
0.0201969
0.0017603
0.000203119
6.98549e-05
5.37079e-05
4.85545e-05
4.58727e-05
4.43427e-05
4.34481e-05
4.29056e-05
4.25545e-05
4.23079e-05
4.21101e-05
4.19264e-05
4.17484e-05
4.15558e-05
4.13375e-05
4.11173e-05
4.09152e-05
4.07286e-05
4.05494e-05
4.03791e-05
4.02213e-05
4.00758e-05
3.99324e-05
3.97893e-05
3.96614e-05
3.95541e-05
3.94536e-05
3.93413e-05
3.92205e-05
3.91147e-05
3.90391e-05
3.8991e-05
3.89589e-05
3.89284e-05
3.88907e-05
3.88481e-05
3.88072e-05
3.87728e-05
3.87453e-05
3.87227e-05
3.87038e-05
3.87307e-05
3.88122e-05
38.3709
45.8109
32.0757
18.9255
17.7824
17.0379
15.6486
12.0582
12.724
19.7466
40.6602
50.9987
27.0616
3.65906
0.188031
0.015112
0.00157252
0.000206511
7.3646e-05
5.61516e-05
5.02239e-05
4.69665e-05
4.50188e-05
4.38272e-05
4.30808e-05
4.259e-05
4.22469e-05
4.19848e-05
4.17611e-05
4.15648e-05
4.13766e-05
4.11744e-05
4.09704e-05
4.07819e-05
4.06026e-05
4.04252e-05
4.02562e-05
4.01014e-05
3.99631e-05
3.98323e-05
3.97021e-05
3.95825e-05
3.94785e-05
3.93814e-05
3.92759e-05
3.91603e-05
3.90555e-05
3.89786e-05
3.89292e-05
3.88967e-05
3.88679e-05
3.88332e-05
3.87927e-05
3.87522e-05
3.8717e-05
3.8689e-05
3.86668e-05
3.86487e-05
3.86744e-05
3.87516e-05
33.2154
40.5451
31.6932
22.0873
17.7358
16.2719
13.8225
11.9627
13.6361
21.7844
45.011
47.0199
22.6599
2.30606
0.109672
0.0106348
0.0013072
0.00019713
7.57392e-05
5.82405e-05
5.18557e-05
4.81308e-05
4.57927e-05
4.43015e-05
4.33349e-05
4.26879e-05
4.22364e-05
4.19031e-05
4.16376e-05
4.14238e-05
4.12391e-05
4.10479e-05
4.08496e-05
4.06627e-05
4.04825e-05
4.03025e-05
4.01346e-05
3.99866e-05
3.9859e-05
3.97394e-05
3.96181e-05
3.95046e-05
3.94042e-05
3.93096e-05
3.92093e-05
3.91e-05
3.89984e-05
3.89217e-05
3.88709e-05
3.88364e-05
3.88073e-05
3.87748e-05
3.87367e-05
3.8697e-05
3.86612e-05
3.86325e-05
3.86103e-05
3.85929e-05
3.86174e-05
3.86906e-05
26.1592
34.3478
29.8276
23.2134
18.8188
16.4937
13.8887
12.5696
14.7981
24.0293
45.4849
42.6725
19.0231
1.41447
0.0602869
0.006884
0.000986019
0.000174187
7.5718e-05
5.98044e-05
5.33193e-05
4.92764e-05
4.6611e-05
4.48359e-05
4.36436e-05
4.28347e-05
4.22742e-05
4.18726e-05
4.1567e-05
4.13323e-05
4.11428e-05
4.09506e-05
4.07441e-05
4.05484e-05
4.03653e-05
4.0185e-05
4.00203e-05
3.98807e-05
3.97638e-05
3.96523e-05
3.95351e-05
3.94254e-05
3.93299e-05
3.92399e-05
3.91445e-05
3.9041e-05
3.89435e-05
3.88679e-05
3.88157e-05
3.87783e-05
3.8747e-05
3.87155e-05
3.86798e-05
3.86414e-05
3.86056e-05
3.85763e-05
3.85535e-05
3.85364e-05
3.856e-05
3.86291e-05
17.6708
26.5944
25.6159
22.8676
21.0589
18.5091
14.5706
13.2952
16.0857
26.4901
43.9749
36.9804
15.6149
0.923846
0.0322932
0.0039662
0.000652017
0.000141882
7.40959e-05
6.09446e-05
5.4562e-05
5.03158e-05
4.74041e-05
4.53915e-05
4.3997e-05
4.30355e-05
4.23706e-05
4.19028e-05
4.15526e-05
4.12842e-05
4.10743e-05
4.08698e-05
4.06481e-05
4.04395e-05
4.0255e-05
4.00791e-05
3.9918e-05
3.97836e-05
3.96736e-05
3.95676e-05
3.94527e-05
3.93454e-05
3.92562e-05
3.91739e-05
3.90838e-05
3.89846e-05
3.88906e-05
3.88163e-05
3.87628e-05
3.87224e-05
3.8688e-05
3.86559e-05
3.8622e-05
3.85852e-05
3.855e-05
3.85203e-05
3.84969e-05
3.84799e-05
3.85023e-05
3.85676e-05
9.39141
18.0355
20.243
26.4692
26.9736
20.0944
14.8447
13.8986
17.4947
28.9178
39.201
31.889
13.2106
0.803217
0.0212052
0.00207
0.000379835
0.000112213
7.26985e-05
6.2055e-05
5.56399e-05
5.11951e-05
4.81085e-05
4.59329e-05
4.43859e-05
4.32933e-05
4.25267e-05
4.19871e-05
4.15815e-05
4.12653e-05
4.10214e-05
4.07998e-05
4.05648e-05
4.0343e-05
4.0156e-05
3.99855e-05
3.98263e-05
3.96915e-05
3.9584e-05
3.94828e-05
3.93719e-05
3.92673e-05
3.91848e-05
3.9112e-05
3.90278e-05
3.89312e-05
3.88396e-05
3.87664e-05
3.87117e-05
3.86683e-05
3.86306e-05
3.85967e-05
3.85633e-05
3.85282e-05
3.84942e-05
3.84646e-05
3.84406e-05
3.84236e-05
3.84446e-05
3.85061e-05
4.72122
11.7125
20.4364
42.9405
33.7579
19.7138
14.3896
14.4295
19.0713
30.9477
33.9974
26.8074
11.3322
0.920287
0.0264269
0.00140263
0.000234488
9.74339e-05
7.36903e-05
6.36269e-05
5.66838e-05
5.19254e-05
4.86888e-05
4.64146e-05
4.47736e-05
4.35826e-05
4.27225e-05
4.21051e-05
4.16371e-05
4.12674e-05
4.09833e-05
4.07428e-05
4.04985e-05
4.02644e-05
4.00695e-05
3.99e-05
3.97402e-05
3.96011e-05
3.94933e-05
3.9398e-05
3.92942e-05
3.9194e-05
3.9117e-05
3.90532e-05
3.89759e-05
3.88817e-05
3.87911e-05
3.87183e-05
3.86621e-05
3.86159e-05
3.85748e-05
3.85382e-05
3.85042e-05
3.84706e-05
3.84382e-05
3.8409e-05
3.83848e-05
3.83677e-05
3.83872e-05
3.84449e-05
19.3067
20.8332
51.5685
67.8783
30.2674
16.9076
13.6507
15.1012
20.9711
29.4855
28.9968
22.3412
9.80397
1.10518
0.0459594
0.00210224
0.000240312
0.00010335
7.83595e-05
6.59049e-05
5.7757e-05
5.25225e-05
4.91192e-05
4.67817e-05
4.50961e-05
4.38477e-05
4.29178e-05
4.2233e-05
4.17101e-05
4.1293e-05
4.09677e-05
4.07039e-05
4.04494e-05
4.02021e-05
3.99913e-05
3.98147e-05
3.96535e-05
3.95116e-05
3.94036e-05
3.93147e-05
3.92204e-05
3.91266e-05
3.90536e-05
3.89965e-05
3.89269e-05
3.88366e-05
3.87466e-05
3.86729e-05
3.86143e-05
3.85645e-05
3.85201e-05
3.84802e-05
3.84449e-05
3.84125e-05
3.83819e-05
3.83537e-05
3.83297e-05
3.83125e-05
3.83303e-05
3.83842e-05
109.862
129.962
117.068
41.4651
19.4411
13.5473
13.2223
16.1551
23.1813
27.0351
24.5919
18.4578
8.41359
1.23661
0.0711198
0.00396186
0.000398134
0.000131191
8.66818e-05
6.87263e-05
5.8822e-05
5.30181e-05
4.94264e-05
4.70253e-05
4.53137e-05
4.40421e-05
4.30809e-05
4.23586e-05
4.17998e-05
4.1345e-05
4.09779e-05
4.06794e-05
4.04046e-05
4.01398e-05
3.9908e-05
3.9719e-05
3.95578e-05
3.94188e-05
3.93133e-05
3.92313e-05
3.91481e-05
3.90625e-05
3.89924e-05
3.89387e-05
3.88773e-05
3.87948e-05
3.87072e-05
3.86318e-05
3.85688e-05
3.85139e-05
3.84653e-05
3.84223e-05
3.83856e-05
3.83542e-05
3.83254e-05
3.82986e-05
3.82754e-05
3.82583e-05
3.82741e-05
3.83239e-05
50.4374
59.215
26.8145
15.8691
12.209
11.7655
13.5183
17.7591
24.4915
24.3822
20.6606
15.0046
7.04619
1.20898
0.0857295
0.0060679
0.000651104
0.00017107
9.53134e-05
7.09547e-05
5.95809e-05
5.34325e-05
4.97475e-05
4.73129e-05
4.5587e-05
4.43105e-05
4.33425e-05