/*--------------------------------*- C++ -*----------------------------------*\
| =========                 |                                                 |
| \\      /  F ield         | OpenFOAM: The Open Source CFD Toolbox           |
|  \\    /   O peration     | Version:  v1912                                 |
|   \\  /    A nd           | Website:  www.openfoam.com                      |
|    \\/     M anipulation  |                                                 |
\*---------------------------------------------------------------------------*/
FoamFile
{
    version     2.0;
    format      ascii;
    class       volScalarField;
    location    "8";
    object      k;
}
// * * * * * * * * * * * * * * * * * * * * * * * * * * * * * * * * * * * * * //

dimensions      [0 2 -2 0 0 0 0];


internalField   nonuniform List<scalar> 
20320
(
0.00413535
0.00425868
0.00434004
0.00442154
0.00450381
0.00458898
0.00470913
0.00543298
0.012019
0.0402276
0.102206
0.18993
0.282755
0.360713
0.410528
0.426455
0.40694
0.347654
0.237149
0.10899
0.00414066
0.00412787
0.00413745
0.00416009
0.00422318
0.00502784
0.0164431
0.0834712
0.243671
0.468089
0.709587
0.933068
1.11531
1.24199
1.30808
1.3189
1.28325
1.19937
1.04987
0.759607
0.00415583
0.00416076
0.00418873
0.00433073
0.00671909
0.0343956
0.152533
0.381775
0.676523
0.987866
1.28032
1.52981
1.72162
1.84924
1.91336
1.91935
1.87137
1.76345
1.56571
1.14762
0.00417909
0.00422129
0.00436457
0.00687153
0.0380856
0.174117
0.438756
0.780718
1.14668
1.49906
1.81236
2.06988
2.26231
2.38675
2.44511
2.44074
2.37315
2.23019
1.97187
1.43397
0.00421283
0.00432437
0.00562483
0.0274301
0.149684
0.420993
0.792479
1.20338
1.61088
1.98647
2.31117
2.57296
2.76552
2.88706
2.93846
2.9202
2.82776
2.64459
2.32408
1.6768
0.00425448
0.00466337
0.0138929
0.0978601
0.344208
0.72419
1.16798
1.62407
2.0588
2.4499
2.78262
3.04777
3.24043
3.35872
3.40194
3.36794
3.24918
3.02591
2.64626
1.89833
0.00432607
0.00633902
0.0448755
0.231405
0.591456
1.05128
1.54612
2.03426
2.48869
2.89146
3.23062
3.49862
3.69106
3.80549
3.83969
3.7894
3.64477
3.38345
2.94868
2.10716
0.0045091
0.0133299
0.11465
0.414906
0.866287
1.38585
1.91887
2.43135
2.90116
3.3134
3.65805
3.92846
4.12031
4.23043
4.25527
4.18889
4.01955
3.72255
3.23639
2.30697
0.00514294
0.0332575
0.225404
0.629644
1.15338
1.71967
2.28292
2.81504
3.29761
3.71802
4.06754
4.34007
4.53111
4.63677
4.65235
4.57047
4.37774
4.04724
3.51276
2.49996
0.00710709
0.0732349
0.367894
0.86101
1.44366
2.04834
2.63687
3.18581
3.67962
4.10749
4.46163
4.73625
4.92659
5.02802
5.0348
4.93824
4.72342
4.36124
3.78081
2.68805
0.0117549
0.134903
0.530303
1.09897
1.73149
2.36932
2.9802
3.5444
4.04876
4.48392
4.84286
5.11993
5.31008
5.40796
5.40678
5.2966
5.06096
4.66856
4.04387
2.87341
0.0203461
0.214405
0.702501
1.33659
2.01308
2.68092
3.31261
3.8915
4.40642
4.84929
5.2137
5.49413
5.68518
5.78074
5.77298
5.65061
5.39549
4.97403
4.30601
3.05877
0.0333712
0.305399
0.876777
1.56899
2.28572
2.98194
3.63399
4.22779
4.75396
5.20553
5.57672
5.86209
6.0559
6.15124
6.13909
6.0066
5.7337
5.28413
4.57287
3.24802
0.0502769
0.401448
1.04741
1.79263
2.54742
3.27148
3.94425
4.55389
5.0926
5.55453
5.93453
6.22732
6.42681
6.52528
6.51229
6.37303
6.08489
5.60832
4.85286
3.44693
0.0696931
0.497069
1.2102
2.00488
2.79667
3.54883
4.24335
4.8703
5.42344
5.89805
6.28974
6.59353
6.80312
6.90992
6.90187
6.76161
6.4629
5.96142
5.15974
3.6651
0.0898904
0.58808
1.36231
2.20407
3.0326
3.81372
4.53146
5.17767
5.74764
6.23793
6.64511
6.9648
7.19075
7.31375
7.32003
7.18898
6.88909
6.36824
5.51805
3.92005
0.109248
0.671653
1.50209
2.38947
3.25504
4.06636
4.80916
5.47692
6.06655
6.5761
7.00344
7.34527
7.59603
7.7465
7.78175
7.6778
7.39601
6.87136
5.97467
4.24735
0.126583
0.746314
1.6292
2.56142
3.46474
4.30778
5.07766
5.76949
6.38192
6.91473
7.36759
7.73892
8.02485
8.21758
8.30281
8.25511
8.02914
7.54174
6.62315
4.72847
0.141357
0.811961
1.74463
2.72155
3.66369
4.54016
5.33928
6.05785
6.69637
7.2567
7.74071
8.14933
8.48161
8.73326
8.89418
8.94328
8.83694
8.48072
7.64623
5.57938
0.153732
0.869886
1.85093
2.87315
3.85555
4.76734
5.59801
6.34609
7.01411
7.6062
8.1268
8.57992
8.96852
9.29377
9.55367
9.73993
9.82993
9.76149
9.32336
7.54509
19.4078
21.8147
17.0122
28.8564
74.6368
91.0211
72.5954
71.5522
104.761
67.1074
47.4629
40.6747
36.6025
31.761
28.1625
25.3939
24.4651
21.8402
12.5871
3.28243
0.310141
0.0163823
0.00412571
0.00359847
0.00338266
0.0032141
0.00307462
0.00295586
0.00285292
0.00276238
0.00268162
0.00260882
0.00254282
0.00248288
0.00242838
0.00237849
0.00233237
0.00228928
0.00224865
0.00221011
0.0021733
0.00213808
0.00210444
0.00207214
0.00204098
0.00201103
0.00198237
0.00195476
0.00192798
0.001902
0.00187679
0.00185242
0.00182877
0.00180573
0.00178329
0.00176128
0.00173962
0.00171828
0.0016974
0.00167759
28.4599
55.5941
54.7175
86.7092
222.151
286.514
250.129
213.651
206.329
112.185
92.7071
86.4012
74.0919
68.6908
63.5132
57.2629
50.8691
37.2131
15.6968
2.83055
0.196703
0.0139727
0.00839786
0.00662292
0.00538697
0.00473674
0.00436011
0.0041224
0.00396329
0.00385189
0.00377083
0.0037107
0.00366509
0.00363014
0.00360254
0.00358056
0.00356295
0.00354872
0.00353685
0.00352705
0.00351892
0.00351185
0.00350577
0.00350037
0.00349564
0.0034917
0.00348821
0.00348504
0.00348215
0.00347957
0.00347743
0.00347556
0.00347388
0.00347245
0.00347124
0.0034702
0.00346935
0.00346896
0.00347129
0.00347541
32.8548
71.1139
76.011
125.607
300.821
392.751
444.788
477.405
234.578
111.082
110.474
88.9467
70.4435
61.622
60.7478
60.7214
55.8713
37.894
12.1652
1.804
0.129787
0.021205
0.0167446
0.0114476
0.00822281
0.00662921
0.00574763
0.00521223
0.00486564
0.00462735
0.00445542
0.00432739
0.00423055
0.0041571
0.00410027
0.00405565
0.00401928
0.00398955
0.00396483
0.00394446
0.00392747
0.00391274
0.00390015
0.00388918
0.00387962
0.00387138
0.00386402
0.00385743
0.00385159
0.00384649
0.00384217
0.00383836
0.00383497
0.00383212
0.00382975
0.00382784
0.00382646
0.00382585
0.00382937
0.00383546
38.5113
81.0044
93.1694
149.688
283.011
378.378
479.497
635.742
189.879
117.549
112.545
81.7998
63.3599
53.0037
48.7626
52.5396
48.6681
26.5382
6.66385
0.837865
0.0755371
0.0322212
0.0246165
0.0149721
0.0100916
0.00776648
0.00651204
0.00576674
0.00529327
0.00497237
0.00474343
0.00457292
0.00444507
0.00434962
0.00427768
0.00422181
0.00417605
0.00413817
0.00410653
0.00408028
0.00405782
0.00403859
0.00402254
0.00400866
0.00399643
0.00398566
0.00397613
0.00396788
0.00396058
0.00395407
0.00394849
0.00394366
0.00393942
0.00393576
0.00393266
0.00393015
0.00392827
0.00392713
0.00393026
0.0039364
41.1499
85.4613
99.4938
139.464
234.433
313.992
391.345
293.066
166.621
149.102
90.7925
78.5938
61.2847
46.4403
29.0322
30.5286
26.4722
11.4573
2.41691
0.288379
0.0583028
0.0445901
0.0287427
0.0164305
0.0108547
0.008217
0.00680173
0.00596701
0.00543954
0.00508411
0.00483208
0.00464602
0.00450786
0.00440509
0.0043285
0.00426934
0.00422086
0.00418046
0.00414645
0.00411802
0.00409331
0.00407227
0.00405506
0.00404027
0.00402705
0.00401513
0.00400483
0.00399621
0.00398855
0.00398153
0.00397544
0.00397029
0.00396583
0.0039619
0.0039585
0.00395574
0.0039536
0.00395205
0.00395472
0.00396157
40.3159
83.5096
97.7994
124.827
190.747
254.607
287.037
196.59
182.618
156.397
63.6441
73.4761
58.0354
34.1724
8.49203
9.23777
8.04386
3.12727
0.611179
0.111184
0.0678895
0.0515133
0.0287742
0.0163782
0.0109162
0.00828209
0.00685506
0.00600798
0.00546784
0.00510194
0.00484457
0.00465738
0.00452005
0.00441701
0.00433917
0.00427874
0.0042299
0.00418938
0.00415478
0.00412563
0.0041002
0.00407887
0.00406142
0.00404629
0.00403269
0.00402036
0.0040099
0.00400134
0.00399366
0.00398652
0.00398023
0.00397495
0.00397047
0.00396647
0.003963
0.00396016
0.00395788
0.00395606
0.00395853
0.00396619
37.7873
77.7597
93.5373
116.923
166.34
210.754
218.842
168.967
126.33
85.0745
45.9856
72.055
61.1275
25.8824
3.41643
2.10956
1.65905
0.614168
0.164273
0.0926151
0.0782726
0.0489664
0.0262659
0.0155275
0.0106295
0.00817289
0.00680954
0.00598661
0.00545371
0.00508913
0.00483453
0.00465225
0.00451952
0.00441888
0.00434113
0.00427971
0.00423041
0.00418983
0.00415506
0.00412579
0.00410059
0.00407963
0.00406206
0.00404651
0.00403282
0.00402058
0.00401022
0.00400166
0.00399393
0.00398683
0.00398047
0.0039751
0.00397055
0.00396655
0.00396312
0.00396026
0.00395789
0.0039559
0.00395834
0.00396658
33.4042
70.4535
86.5928
110.408
153.353
179.377
178.269
151.909
96.4282
52.2987
34.2222
69.0864
67.2004
23.7631
2.50624
0.477252
0.306758
0.157303
0.10975
0.0992193
0.0719253
0.0408173
0.0228608
0.0143327
0.0101731
0.00797634
0.00671411
0.00593209
0.00541772
0.0050646
0.00481815
0.00464261
0.0045151
0.00441764
0.00434091
0.00427914
0.00422888
0.00418764
0.00415286
0.00412394
0.0040995
0.00407907
0.00406131
0.00404549
0.00403188
0.00402001
0.00400983
0.00400111
0.00399326
0.00398627
0.00397996
0.00397443
0.00396979
0.00396584
0.00396248
0.00395963
0.00395718
0.00395512
0.0039576
0.0039662
28.0333
62.2145
77.3591
97.6273
122.04
131.552
151.426
141.371
83.4287
36.9494
26.531
65.0265
70.831
24.8433
2.78141
0.247421
0.120208
0.105436
0.102807
0.0854714
0.0554247
0.0321882
0.0195102
0.0130426
0.00963336
0.00772437
0.00658101
0.0058524
0.00536642
0.00503215
0.00479864
0.00463133
0.0045083
0.00441381
0.00433904
0.00427774
0.00422656
0.00418428
0.00414945
0.0041212
0.00409759
0.00407746
0.00405971
0.00404402
0.00403078
0.00401923
0.0040091
0.00400023
0.00399234
0.00398544
0.00397915
0.00397351
0.00396879
0.0039649
0.00396162
0.00395877
0.00395628
0.00395418
0.00395673
0.00396556
23.6275
53.5772
68.162
83.6813
91.7333
100.089
124.66
131.024
78.1011
28.9073
22.3625
58.5361
70.6742
27.0784
3.34489
0.339779
0.120407
0.0932925
0.081851
0.0619053
0.0402151
0.0251989
0.0165828
0.0117861
0.00905504
0.00743217
0.00641764
0.00575278
0.00530369
0.00499384
0.00477586
0.00461768
0.00449955
0.00440787
0.0043348
0.00427447
0.00422328
0.00418059
0.0041458
0.00411784
0.00409457
0.00407473
0.00405744
0.00404239
0.00402955
0.00401818
0.00400803
0.00399908
0.00399124
0.00398438
0.00397808
0.0039724
0.00396767
0.00396383
0.00396058
0.00395773
0.0039552
0.00395312
0.00395576
0.00396471
20.2162
46.7099
61.0378
75.2652
76.1136
84.3474
105.295
117.481
73.2315
24.172
21.7816
52.1731
68.6392
29.7957
3.88639
0.530856
0.181189
0.0985561
0.0644117
0.0441414
0.0296019
0.0200039
0.0141506
0.0106231
0.0084686
0.00711371
0.00623184
0.00563969
0.00523394
0.00495106
0.00474973
0.00460168
0.0044889
0.00439981
0.00432783
0.00426866
0.00421883
0.00417698
0.0041423
0.00411391
0.00409048
0.00407105
0.00405466
0.00404041
0.00402797
0.00401676
0.00400662
0.00399772
0.00398995
0.00398306
0.00397675
0.00397114
0.00396646
0.00396263
0.00395935
0.00395648
0.00395398
0.00395194
0.00395465
0.00396366
17.6738
41.8076
56.5163
71.6036
69.7592
75.8511
92.3751
103.927
66.8205
21.7102
19.5429
46.8178
65.5209
31.6932
4.4158
0.753659
0.28715
0.133549
0.0618333
0.03424
0.0226765
0.0162099
0.0121721
0.00958029
0.00789736
0.00678414
0.00603386
0.00551869
0.00515957
0.00490516
0.00472089
0.00458305
0.00447572
0.00438916
0.00431834
0.00426067
0.00421323
0.00417319
0.00413879
0.00410959
0.00408573
0.00406685
0.00405148
0.00403798
0.00402585
0.00401491
0.00400499
0.00399613
0.00398836
0.00398144
0.00397521
0.00396975
0.00396516
0.0039613
0.00395793
0.00395505
0.00395258
0.00395062
0.00395339
0.00396239
16.3921
38.7686
54.139
68.8337
66.0721
70.2866
83.0951
91.8051
60.2461
19.5753
16.8761
43.5417
59.6087
31.2978
4.90056
0.956444
0.408007
0.189974
0.0716229
0.029553
0.0180965
0.0134097
0.0105716
0.00866267
0.0073578
0.00645766
0.00583301
0.00539438
0.00508269
0.00485728
0.00468974
0.00456124
0.00445901
0.00437562
0.00430707
0.00425157
0.00420651
0.00416831
0.00413463
0.00410519
0.0040811
0.00406243
0.00404768
0.0040348
0.0040231
0.00401266
0.00400311
0.00399429
0.00398644
0.00397956
0.00397352
0.00396825
0.0039637
0.0039598
0.00395636
0.00395345
0.00395103
0.00394914
0.00395195
0.00396093
17.2577
38.4497
54.2435
66.5774
62.1599
65.2828
75.815
81.7412
54.6373
18.2874
16.3483
42.1543
52.1843
28.6076
5.17822
1.09557
0.510627
0.249167
0.0875563
0.0276007
0.0149208
0.0113013
0.00927448
0.00786527
0.00686235
0.00614698
0.00563726
0.00527116
0.00500502
0.00480717
0.00465548
0.00453583
0.00443889
0.00435986
0.00429499
0.00424193
0.00419847
0.00416171
0.00412945
0.00410094
0.00407701
0.00405805
0.00404325
0.00403083
0.00401979
0.00401001
0.00400086
0.00399212
0.00398425
0.00397749
0.00397169
0.00396659
0.00396207
0.0039581
0.00395463
0.00395171
0.00394934
0.0039475
0.00395033
0.00395924
18.7109
39.5212
54.9541
62.1093
57.6753
60.1524
69.2515
71.2631
47.6657
17.5975
16.4535
40.0992
44.81
24.4257
5.09242
1.14764
0.573993
0.293792
0.102398
0.0264149
0.0125555
0.00967731
0.00821818
0.00718023
0.00641891
0.00586066
0.00545262
0.00515221
0.00492743
0.0047544
0.00461707
0.00450645
0.00441626
0.0043428
0.00428221
0.0042314
0.00418904
0.00415364
0.00412343
0.00409675
0.00407335
0.00405376
0.00403838
0.00402626
0.00401596
0.00400683
0.00399812
0.00398961
0.00398188
0.00397528
0.00396969
0.00396473
0.00396021
0.00395622
0.00395275
0.00394986
0.00394749
0.0039457
0.00394853
0.00395736
19.3332
40.4626
52.3168
54.7578
51.3494
54.9011
62.4734
60.0103
40.7862
16.8221
16.5195
38.7714
38.4201
19.622
4.57039
1.11461
0.5898
0.31268
0.109082
0.0243866
0.0106441
0.00840562
0.0073583
0.00660028
0.00603114
0.00560356
0.00528247
0.00503856
0.00484891
0.00469762
0.00457447
0.00447423
0.00439235
0.00432491
0.00426818
0.00421945
0.00417844
0.00414489
0.004117
0.00409222
0.00406953
0.00404947
0.00403347
0.00402144
0.00401164
0.00400301
0.00399481
0.00398678
0.00397936
0.00397297
0.00396749
0.0039626
0.00395814
0.00395417
0.00395074
0.00394786
0.0039455
0.00394371
0.00394654
0.00395526
19.9367
40.8792
47.1116
47.0349
45.496
49.6815
54.7314
48.5536
33.4974
16.0433
16.6575
36.7259
33.609
14.8521
3.70556
1.01106
0.557762
0.301307
0.102761
0.0206367
0.0090204
0.00740555
0.00666282
0.00611593
0.00569749
0.00537588
0.00512625
0.00492872
0.00476911
0.00463825
0.00453001
0.00444087
0.00436722
0.00430532
0.00425236
0.00420645
0.00416762
0.00413615
0.00411017
0.00408691
0.00406511
0.0040452
0.00402886
0.00401657
0.00400687
0.00399859
0.003991
0.00398365
0.00397671
0.00397049
0.00396505
0.00396024
0.00395587
0.00395196
0.00394857
0.00394571
0.00394335
0.00394158
0.00394439
0.00395298
20.3685
40.5169
42.2759
40.6251
40.671
44.142
46.642
39.0543
27.0438
15.2908
16.9375
36.6431
29.2519
10.3845
2.66992
0.843638
0.483086
0.26089
0.0825817
0.015541
0.00766971
0.00662181
0.00610371
0.00571574
0.00541328
0.00517451
0.00498155
0.00482253
0.00468963
0.00457854
0.00448536
0.00440686
0.00434044
0.00428354
0.0042349
0.00419301
0.00415718
0.0041275
0.00410274
0.00408067
0.00406007
0.00404092
0.00402449
0.0040117
0.00400177
0.00399376
0.00398682
0.00398023
0.00397383
0.00396779
0.00396238
0.00395764
0.00395343
0.00394962
0.00394625
0.00394339
0.00394105
0.0039393
0.00394207
0.00395051
20.7644
39.7026
38.2236
35.7071
36.1354
37.9527
39.2553
32.312
23.2589
14.9026
17.3513
37.6939
24.883
6.30215
1.65355
0.631292
0.376247
0.197299
0.0531221
0.0106581
0.00663314
0.00601054
0.00565462
0.00538527
0.00517046
0.00499524
0.00484785
0.00472216
0.00461375
0.0045211
0.00444148
0.00437211
0.00431214
0.00426044
0.00421694
0.00417971
0.00414696
0.00411856
0.00409461
0.0040738
0.0040547
0.00403659
0.00402013
0.00400673
0.00399651
0.00398876
0.00398244
0.00397651
0.00397062
0.00396483
0.0039595
0.00395488
0.0039508
0.00394709
0.00394377
0.00394091
0.00393858
0.00393686
0.00393959
0.00394786
20.8436
38.4733
34.7352
31.2699
30.3651
31.1663
32.3183
27.1011
20.3895
14.7678
17.7408
37.0597
23.8751
3.14459
0.83629
0.406059
0.252443
0.120256
0.0253897
0.00745009
0.00589525
0.00553209
0.00529243
0.00511075
0.00496181
0.00483639
0.00472669
0.00463003
0.00454297
0.0044658
0.00439754
0.00433651
0.00428335
0.00423765
0.00419936
0.00416637
0.00413635
0.00410913
0.00408604
0.00406665
0.00404907
0.0040319
0.00401551
0.00400169
0.00399133
0.00398387
0.00397795
0.00397246
0.00396703
0.00396158
0.00395644
0.00395197
0.00394801
0.00394439
0.0039411
0.00393827
0.00393595
0.00393427
0.00393697
0.00394505
20.7384
37.5369
32.4887
28.0818
24.9354
25.5831
26.3313
23.7016
18.7766
14.8768
18.1444
35.9514
25.5112
1.80773
0.307903
0.199737
0.128586
0.0477264
0.01052
0.00592545
0.00537095
0.00515327
0.00499926
0.00488302
0.00478457
0.00469857
0.00461965
0.00454669
0.00447692
0.00441247
0.00435418
0.00430168
0.00425586
0.00421606
0.00418209
0.00415231
0.00412491
0.0040994
0.0040775
0.00405933
0.00404296
0.00402672
0.00401067
0.00399677
0.00398639
0.00397906
0.00397332
0.00396811
0.0039631
0.00395806
0.00395322
0.00394889
0.00394504
0.00394149
0.00393826
0.00393547
0.00393319
0.00393154
0.0039342
0.00394208
20.3272
37.4528
32.2858
27.3142
22.8929
21.7873
22.3247
22.2104
18.3089
15.1823
18.6568
35.9358
26.9062
2.19248
0.0809315
0.0531247
0.0361154
0.0130689
0.00624997
0.00522942
0.0049805
0.00485362
0.00476412
0.00469685
0.00463683
0.00458084
0.00452529
0.00447082
0.00441527
0.004362
0.00431329
0.00426946
0.00423053
0.00419554
0.00416473
0.00413745
0.00411282
0.00408973
0.00406913
0.00405172
0.00403618
0.00402096
0.00400574
0.00399215
0.0039817
0.00397426
0.00396852
0.00396354
0.00395894
0.00395437
0.00394983
0.00394564
0.00394186
0.00393839
0.00393524
0.00393253
0.00393031
0.00392869
0.00393129
0.00393895
19.5713
38.4112
34.014
28.6468
23.5503
20.3417
20.8306
22.3729
18.5961
15.593
19.269
35.9414
28.1976
3.31742
0.0739315
0.0113331
0.00936833
0.00653014
0.00523023
0.00482322
0.0046877
0.0046222
0.00457904
0.0045469
0.00451475
0.00448041
0.00444227
0.00440227
0.00435909
0.00431627
0.00427639
0.00424012
0.00420676
0.00417545
0.00414731
0.0041225
0.00410072
0.00408013
0.00406068
0.00404362
0.00402879
0.00401488
0.00400095
0.00398786
0.00397716
0.00396934
0.00396355
0.00395886
0.00395469
0.00395053
0.00394625
0.00394217
0.00393848
0.00393512
0.00393207
0.00392946
0.00392731
0.00392571
0.00392823
0.00393568
18.7549
39.8895
36.6788
30.4536
24.1351
20.3463
21.5226
23.6442
19.1574
16.0336
20.016
36.0099
29.0453
4.88654
0.157781
0.00931433
0.00634698
0.00552879
0.00483813
0.00455994
0.00447896
0.00445119
0.00443784
0.00442828
0.00441457
0.00439538
0.0043704
0.0043421
0.00430991
0.00427652
0.0042437
0.00421293
0.00418379
0.00415579
0.00413048
0.00410819
0.00408883
0.00407032
0.00405188
0.00403523
0.00402124
0.00400878
0.00399626
0.0039837
0.00397262
0.00396431
0.00395852
0.00395419
0.0039504
0.00394656
0.00394249
0.00393851
0.00393491
0.00393168
0.00392878
0.00392626
0.00392419
0.00392262
0.00392505
0.00393227
17.868
40.6987
37.4042
29.2655
22.9372
20.8029
23.3026
25.1749
19.4866
16.476
20.9457
36.3553
29.3991
6.29612
0.30884
0.0145093
0.00626426
0.00528548
0.00465735
0.00440945
0.00434579
0.00433409
0.00433518
0.00433727
0.00433435
0.00432543
0.0043104
0.00429122
0.00426789
0.00424192
0.00421417
0.00418727
0.00416175
0.00413721
0.00411485
0.00409471
0.00407697
0.00406004
0.00404281
0.00402694
0.00401385
0.00400267
0.00399145
0.00397947
0.0039681
0.00395933
0.00395353
0.00394953
0.00394605
0.00394245
0.00393857
0.0039347
0.00393119
0.00392811
0.00392536
0.00392297
0.00392096
0.00391941
0.00392175
0.00392872
16.7433
39.6564
33.9175
24.5126
20.4619
21.0453
24.7875
26.112
19.3651
16.9244
22.0918
36.8539
29.3976
7.22712
0.46929
0.0233972
0.00676796
0.00529642
0.00462233
0.00435548
0.00427965
0.00426426
0.00426628
0.00427142
0.00427342
0.00427059
0.00426225
0.00424921
0.00423187
0.00421117
0.00418739
0.00416371
0.00414147
0.00412018
0.00410032
0.00408166
0.00406492
0.00404941
0.00403385
0.00401918
0.00400685
0.00399649
0.00398624
0.00397497
0.00396368
0.00395462
0.0039487
0.00394483
0.00394157
0.0039382
0.00393453
0.00393079
0.00392739
0.00392442
0.00392183
0.00391956
0.00391761
0.00391609
0.00391834
0.00392504
15.2664
36.3999
29.3464
21.0243
18.3936
20.8943
25.1482
25.7584
18.6618
17.433
23.5139
37.6911
28.8788
7.58084
0.571353
0.0323002
0.00754791
0.00545343
0.00469096
0.00437706
0.00426909
0.00423503
0.00422751
0.00422878
0.00423055
0.00422962
0.00422439
0.00421446
0.00420058
0.00418373
0.00416367
0.00414305
0.00412343
0.0041045
0.00408635
0.00406886
0.00405307
0.00403904
0.00402539
0.00401198
0.00400006
0.00399007
0.00398062
0.00397023
0.00395939
0.00395026
0.00394406
0.00394007
0.00393693
0.00393382
0.00393041
0.00392685
0.00392354
0.00392066
0.00391819
0.00391604
0.00391415
0.00391266
0.00391482
0.00392125
13.4378
31.762
27.437
19.5506
17.5946
20.9461
24.5233
23.814
17.5319
18.1148
25.2705
38.8343
27.8039
7.38482
0.591182
0.0379308
0.00840923
0.00569674
0.00482828
0.00445382
0.00430229
0.00423998
0.00421517
0.0042065
0.00420305
0.00419988
0.00419453
0.0041857
0.00417395
0.00416011
0.00414332
0.00412507
0.00410707
0.00408956
0.00407269
0.00405648
0.00404195
0.00402938
0.0040174
0.00400506
0.00399334
0.00398344
0.00397466
0.00396531
0.00395522
0.00394616
0.0039396
0.00393529
0.00393217
0.00392935
0.00392626
0.00392291
0.00391967
0.00391683
0.00391446
0.00391242
0.00391059
0.00390912
0.00391119
0.00391735
11.531
28.0657
26.4656
17.3301
17.2265
20.6072
22.7783
21.3018
16.6626
19.0998
27.4076
39.8818
26.3336
6.79579
0.547854
0.0399446
0.00922062
0.00598954
0.00501159
0.00457074
0.0043688
0.00427182
0.0042241
0.00420065
0.00418798
0.00417944
0.00417176
0.0041628
0.00415225
0.00414036
0.00412574
0.0041089
0.0040918
0.00407535
0.00405983
0.00404518
0.004032
0.0040205
0.00400959
0.00399806
0.00398662
0.00397687
0.00396865
0.00396034
0.0039511
0.00394219
0.00393526
0.00393056
0.00392738
0.00392483
0.0039221
0.00391897
0.00391581
0.00391298
0.00391064
0.00390868
0.00390693
0.0039055
0.00390746
0.00391335
10.0685
26.4057
24.9869
16.1023
17.1735
19.3462
20.101
17.8151
16.2759
20.4725
29.9745
40.117
24.9546
6.00366
0.458033
0.0386852
0.0098558
0.00629067
0.00522098
0.00471442
0.00445855
0.00432289
0.00424864
0.00420747
0.00418336
0.0041677
0.00415613
0.00414569
0.00413493
0.00412349
0.0041099
0.004094
0.00407774
0.00406251
0.00404847
0.00403526
0.00402306
0.00401203
0.00400161
0.00399085
0.00398003
0.00397061
0.00396283
0.00395535
0.00394691
0.0039382
0.00393097
0.00392593
0.00392266
0.00392032
0.00391793
0.00391505
0.00391196
0.00390912
0.00390676
0.00390485
0.00390318
0.0039018
0.00390365
0.00390927
9.21938
25.419
23.0939
15.7439
16.8314
16.9371
17.5123
15.3751
16.6747
22.2731
32.9784
39.3187
23.6355
4.99128
0.348615
0.0355847
0.0102536
0.00655347
0.00543031
0.00486915
0.0045616
0.00438673
0.0042848
0.00422456
0.00418779
0.00416389
0.00414705
0.00413351
0.00412094
0.00410875
0.00409555
0.00408059
0.00406547
0.00405155
0.00403868
0.00402631
0.00401453
0.00400362
0.00399355
0.00398362
0.00397369
0.00396481
0.00395735
0.00395034
0.00394253
0.00393412
0.00392675
0.00392147
0.00391812
0.00391586
0.00391373
0.00391109
0.00390811
0.00390526
0.00390286
0.00390093
0.00389934
0.00389801
0.00389977
0.00390511
8.62674
24.0086
21.6627
16.4801
15.6998
15.0987
14.8732
14.5586
17.8088
24.4706
36.442
38.5709
21.5302
3.72907
0.245166
0.0320188
0.0103919
0.00672828
0.00560734
0.00501768
0.00466937
0.00445897
0.00433006
0.00425017
0.0041997
0.00416633
0.00414291
0.00412499
0.00410967
0.00409622
0.0040833
0.00406941
0.00405537
0.00404237
0.00403
0.00401774
0.00400605
0.00399534
0.00398576
0.00397668
0.00396764
0.00395932
0.00395209
0.00394532
0.00393797
0.00392993
0.00392261
0.00391725
0.00391379
0.00391152
0.0039095
0.00390707
0.00390424
0.00390141
0.00389895
0.00389699
0.00389543
0.00389416
0.00389583
0.0039009
7.87337
21.7785
20.9678
17.2457
14.9278
14.0966
13.7544
15.2063
19.5082
26.9984
40.1892
37.6433
19.3264
2.5617
0.164975
0.0281442
0.0101927
0.00677807
0.00572845
0.00514512
0.00477384
0.00453531
0.00438159
0.00428208
0.00421692
0.00417301
0.00414223
0.00411945
0.00410126
0.00408659
0.00407388
0.00406072
0.00404706
0.00403415
0.00402171
0.00400927
0.00399766
0.0039874
0.00397854
0.00397024
0.0039618
0.00395391
0.00394692
0.00394033
0.00393334
0.00392572
0.00391863
0.00391328
0.00390972
0.00390731
0.00390526
0.00390299
0.00390032
0.00389755
0.00389505
0.00389304
0.00389148
0.00389025
0.00389185
0.00389665
6.75078
18.5922
19.346
16.9918
14.7777
13.8182
14.127
16.6889
21.6099
29.8189
41.9479
36.4486
17.4605
1.70569
0.108186
0.0234566
0.00955769
0.00669616
0.00579068
0.00524395
0.00486709
0.00460992
0.00443577
0.00431788
0.00423779
0.00418302
0.00414486
0.0041174
0.00409646
0.00408033
0.00406727
0.00405403
0.00403979
0.00402628
0.00401363
0.00400117
0.00398976
0.00398006
0.00397194
0.00396419
0.00395604
0.0039484
0.00394175
0.00393548
0.00392883
0.0039216
0.0039148
0.00390952
0.00390586
0.00390324
0.00390105
0.00389884
0.00389634
0.00389365
0.00389115
0.0038891
0.0038875
0.0038863
0.00388783
0.00389237
5.22738
14.5727
16.576
16.0678
15.1156
14.6983
15.3857
18.6493
24.0135
32.935
42.6248
34.3098
15.6418
1.19385
0.0685935
0.0178864
0.00856973
0.00653598
0.00582052
0.00532115
0.00494605
0.00467725
0.00448804
0.00435498
0.00426162
0.00419667
0.00415146
0.00411949
0.00409549
0.00407704
0.00406256
0.00404847
0.00403319
0.00401878
0.00400602
0.00399384
0.00398267
0.00397333
0.00396568
0.0039583
0.00395031
0.00394284
0.00393662
0.00393088
0.0039246
0.00391767
0.00391111
0.0039059
0.00390216
0.00389933
0.00389692
0.00389467
0.00389229
0.00388972
0.00388725
0.00388518
0.00388353
0.00388234
0.0038838
0.00388808
3.45033
10.3939
13.499
16.5783
16.8024
15.6955
17.0688
20.913
26.6847
36.1086
41.2002
32.2311
14.4522
1.08862
0.0463185
0.0129203
0.00767829
0.00643502
0.00587295
0.005397
0.00501412
0.00473397
0.00453431
0.00439102
0.00428778
0.00421415
0.0041621
0.00412526
0.00409748
0.00407576
0.00405895
0.00404367
0.00402746
0.00401214
0.00399918
0.00398736
0.00397631
0.00396694
0.00395946
0.0039524
0.00394469
0.00393741
0.00393165
0.00392656
0.00392068
0.00391394
0.00390754
0.00390241
0.00389859
0.00389555
0.0038929
0.00389052
0.00388818
0.00388572
0.00388334
0.00388126
0.00387958
0.00387839
0.00387976
0.00388379
2.18799
7.64977
13.0976
20.5777
18.5664
16.6232
19.0701
23.433
29.5996
39.0362
38.9835
29.8043
13.6211
1.32549
0.0510301
0.0114177
0.00765412
0.00660726
0.00601901
0.00549635
0.00507917
0.00478084
0.00457237
0.00442303
0.00431379
0.0042337
0.00417542
0.00413333
0.0041013
0.00407593
0.00405636
0.00403977
0.0040229
0.00400672
0.0039932
0.00398143
0.00397034
0.00396067
0.00395316
0.00394651
0.00393929
0.0039323
0.00392692
0.00392246
0.00391706
0.00391049
0.00390415
0.00389905
0.00389512
0.00389187
0.00388899
0.00388642
0.00388404
0.00388168
0.00387941
0.00387736
0.00387567
0.00387447
0.00387574
0.00387953
5.60468
11.6402
21.4389
25.2865
17.6129
17.9715
21.4898
26.2219
32.8266
39.2533
36.363
27.3454
12.9523
1.72406
0.0878454
0.0155118
0.00917178
0.0072598
0.00631262
0.00563137
0.00514508
0.00481898
0.00460057
0.00444743
0.00433542
0.00425161
0.00418871
0.0041421
0.00410634
0.00407772
0.00405533
0.0040371
0.00401951
0.0040024
0.00398779
0.00397552
0.00396431
0.00395445
0.00394693
0.00394072
0.00393415
0.00392761
0.0039225
0.0039185
0.00391363
0.00390733
0.00390104
0.00389588
0.00389177
0.00388828
0.00388516
0.00388236
0.00387989
0.00387761
0.00387546
0.00387348
0.0038718
0.00387059
0.00387176
0.00387529
17.9485
31.8062
30.9497
18.1973
17.223
20.2231
24.2929
29.3354
36.2861
38.3451
33.5868
24.8138
12.189
2.09744
0.141844
0.0232877
0.0119713
0.0083912
0.00674071
0.00579124
0.00520966
0.00485046
0.00462065
0.00446364
0.00435005
0.00426479
0.00419983
0.00415072
0.00411253
0.00408133
0.00405606
0.00403545
0.00401643
0.0039981
0.00398203
0.0039689
0.00395769
0.00394801
0.00394066
0.00393493
0.00392912
0.00392314
0.00391824
0.00391447
0.00391017
0.00390441
0.00389829
0.003893
0.00388858
0.00388473
0.00388131
0.0038783
0.00387573
0.00387352
0.00387149
0.00386961
0.00386799
0.00386678
0.00386782
0.00387109
10.7268
15.3125
13.7361
16.1127
19.3938
23.1147
27.423
32.8274
38.8259
36.8178
30.5941
22.0789
11.1483
2.23584
0.181585
0.0303891
0.0146164
0.00947881
0.00711698
0.00591143
0.00525534
0.0048766
0.00464131
0.00448242
0.00436812
0.00428268
0.00421738
0.00416708
0.00412669
0.00409225
0.00406285
0.00403805
0.00401587
0.00399535
0.00397741
0.00396304
0.00395164
0.00394217
0.00393489
0.00392942
0.00392424
0.00391877
0.00391379
0.00390987
0.00390614
0.00390135
0.00389579
0.00389037
0.00388542
0.003881
0.00387722
0.00387404
0.00387146
0.00386936
0.00386749
0.00386575
0.00386423
0.00386306
0.00386393
0.00386689
0.164577
0.922832
1.95245
3.02145
4.04605
4.99536
5.8601
6.6406
7.34157
7.96949
8.5315
9.03479
9.48648
9.8935
10.2628
10.6011
10.9157
11.2154
11.5264
11.9989
0.175792
0.975638
2.05658
3.17555
4.24543
5.23525
6.13715
6.95348
7.69118
8.35909
8.96689
9.52463
10.0429
10.5328
11.0069
11.479
11.9646
12.4774
13.0125
13.4028
0.190301
1.03652
2.17607
3.35139
4.47187
5.50686
6.45034
7.307
8.08609
8.79875
9.45685
10.0727
10.6592
11.2296
11.7979
12.3773
12.9776
13.5967
14.2037
14.7125
0.213289
1.11725
2.32784
3.56886
4.7468
5.83235
6.82211
7.72352
8.54825
9.30951
10.021
10.6965
11.35
11.9953
12.6452
13.3098
13.9923
14.6828
15.3499
15.9304
0.254853
1.23781
2.53929
3.85879
5.10227
6.24373
7.28373
8.23305
9.10588
9.91728
10.6822
11.4155
12.1313
12.8428
13.561
14.2923
15.0357
15.7779
16.4892
17.1191
0.33645
1.4327
2.85374
4.26702
5.5834
6.78392
7.87514
8.87199
9.79132
10.6498
11.4635
12.2476
13.0161
13.7811
14.5514
15.331
16.1158
16.8917
17.6322
18.2995
0.506587
1.7609
3.33674
4.85696
6.24819
7.50451
8.6412
9.67828
10.6354
11.5307
12.3813
13.2025
14.0082
14.8091
15.6125
16.42
17.2264
18.0182
18.7737
19.4661
0.872934
2.31864
4.07957
5.70727
7.16159
8.45765
9.62242
10.6817
11.6578
12.5706
13.438
14.276
15.0979
15.9134
16.7282
17.5426
18.3513
19.1427
19.8999
20.6046
1.64635
3.25129
5.19821
6.90327
8.38291
9.68193
10.8408
11.8906
12.8559
13.7578
14.6153
15.4449
16.2591
17.0665
17.8711
18.6726
19.4668
20.2447
20.9936
21.6999
3.17744
4.76946
6.83303
8.52585
9.95029
11.1862
12.2852
13.2803
14.1958
15.0531
15.8714
16.6669
17.4509
18.2297
19.0054
19.7776
20.5444
21.3008
22.0375
22.7411
6.06334
7.18985
9.14968
10.6354
11.8631
12.936
13.9026
14.7888
15.613
16.3931
17.1468
17.8877
18.6238
19.3582