/*--------------------------------*- C++ -*----------------------------------*\
| =========                 |                                                 |
| \\      /  F ield         | OpenFOAM: The Open Source CFD Toolbox           |
|  \\    /   O peration     | Version:  v1912                                 |
|   \\  /    A nd           | Website:  www.openfoam.com                      |
|    \\/     M anipulation  |                                                 |
\*---------------------------------------------------------------------------*/
FoamFile
{
    version     2.0;
    format      ascii;
    class       volScalarField;
    location    "8";
    object      nut;
}
// * * * * * * * * * * * * * * * * * * * * * * * * * * * * * * * * * * * * * //

dimensions      [0 2 -1 0 0 0 0];


internalField   nonuniform List<scalar> 
20320
(
0.0347125
0.00760257
0.00767484
0.00774654
0.00781825
0.00789176
0.00799389
0.00857832
0.0127249
0.0232788
0.0371403
0.0506677
0.0618535
0.0698871
0.0745763
0.0760242
0.0742784
0.0686721
0.0567395
0.0384877
0.0351823
0.0351786
0.0352325
0.0352149
0.0339672
0.0237382
0.0301381
0.112705
0.278418
0.468145
0.631873
0.744993
0.80221
0.812878
0.795623
0.771383
0.751764
0.72038
0.608268
0.271605
0.0352525
0.0353572
0.0353677
0.0319281
0.0196707
0.0516951
0.187715
0.411558
0.660273
0.893124
1.08863
1.23556
1.33014
1.37544
1.37949
1.34956
1.28109
1.14318
0.865908
0.342507
0.0353536
0.0354983
0.0323065
0.0194554
0.0554002
0.208792
0.462771
0.74946
1.02698
1.27446
1.48057
1.63897
1.74672
1.80331
1.80851
1.7581
1.63723
1.4124
1.02351
0.386322
0.0354469
0.0344815
0.021111
0.0417884
0.181529
0.44542
0.759555
1.07362
1.36353
1.61684
1.82623
1.98696
2.09561
2.14887
2.14155
2.0636
1.89595
1.60526
1.13731
0.419077
0.0352557
0.0282849
0.0251659
0.123687
0.372533
0.702368
1.04711
1.37512
1.67115
1.92658
2.13576
2.29425
2.39777
2.44099
2.41594
2.30973
2.10161
1.75868
1.22954
0.446606
0.0338464
0.0198917
0.0618019
0.261124
0.587874
0.955375
1.31757
1.65369
1.95297
2.20873
2.4159
2.56991
2.66563
2.69635
2.65247
2.51966
2.27634
1.8898
1.30974
0.471122
0.0291463
0.0239449
0.138388
0.428657
0.805208
1.19589
1.56927
1.91069
2.21187
2.46708
2.67148
2.82013
2.90721
2.92504
2.863
2.70587
2.43153
2.00713
1.38247
0.493611
0.0217
0.0462202
0.247013
0.605239
1.01443
1.42086
1.80228
2.14766
2.45019
2.70465
2.90616
3.04945
3.12809
3.13369
3.05487
2.87576
2.57373
2.11547
1.4503
0.514655
0.0177926
0.0889773
0.372206
0.778719
1.21084
1.62909
2.01701
2.36587
2.66977
2.92373
3.1228
3.26132
3.33238
3.32697
3.23308
3.03424
2.70721
2.21801
1.51504
0.534701
0.0201662
0.148964
0.501089
0.942586
1.3921
1.8201
2.21388
2.56628
2.87199
3.12615
3.32365
3.45851
3.52331
3.50849
3.40144
3.18504
2.8353
2.31732
1.57823
0.554172
0.0280067
0.218935
0.625363
1.09331
1.55696
1.99361
2.39318
2.74958
3.05789
3.31331
3.51053
3.64324
3.70353
3.68128
3.5632
3.33141
2.96102
2.41587
1.6415
0.573541
0.0401835
0.291589
0.740178
1.229
1.70475
2.14954
2.55516
2.91628
3.22828
3.48634
3.68497
3.81747
3.87545
3.84815
3.72152
3.47671
3.08762
2.51652
1.70684
0.593407
0.055209
0.361381
0.842816
1.34867
1.8352
2.28793
2.70006
3.06683
3.38382
3.64621
3.84828
3.98298
4.04137
4.01199
3.87981
3.62476
3.21913
2.62303
1.77703
0.614632
0.0713157
0.424648
0.931864
1.45198
1.94832
2.40897
2.82816
3.20161
3.52509
3.79375
4.00167
4.14145
4.2036
4.17583
4.04197
3.78032
3.36092
2.74081
1.85637
0.638596
0.0868142
0.479257
1.00682
1.53904
2.04448
2.51309
2.93995
3.32119
3.65274
3.92979
4.14628
4.29452
4.36448
4.343
4.21254
3.94934
3.52035
2.87797
1.95192
0.667746
0.100395
0.524213
1.06783
1.61045
2.12439
2.60105
3.03617
3.42628
3.76753
4.0552
4.28322
4.44369
4.52619
4.51672
4.39633
4.13875
3.70685
3.04627
2.07545
0.706774
0.11127
0.559408
1.11567
1.66726
2.18922
2.67399
3.11793
3.51794
3.87047
4.17097
4.41352
4.59021
4.69039
4.6995
4.59724
4.3548
3.93017
3.25995
2.24474
0.765129
0.119219
0.585482
1.15165
1.71107
2.24062
2.73359
3.18684
3.59768
3.96292
4.27832
4.53822
4.73492
4.85783
4.89211
4.81651
4.59985
4.19505
3.52817
2.47673
0.860442
0.124539
0.603753
1.17773
1.74409
2.28093
2.78217
3.24515
3.66763
4.04679
4.37881
4.65844
4.87835
5.02824
5.09329
5.05161
4.86992
4.49572
3.84264
2.76098
1.01371
0.219059
0.134929
0.119119
0.159784
0.252321
0.273499
0.238679
0.246822
0.295212
0.236003
0.198731
0.183084
0.174283
0.162385
0.153104
0.145551
0.141792
0.138582
0.108561
0.0589386
0.0191595
0.00437407
0.0019105
0.0017582
0.00170287
0.00165887
0.00162183
0.00158965
0.00156124
0.00153597
0.00151305
0.00149212
0.00147291
0.00145526
0.00143903
0.00142402
0.00140997
0.00139681
0.00138425
0.00137219
0.00136066
0.00134951
0.00133873
0.00132838
0.00131829
0.00130851
0.00129909
0.00128995
0.00128102
0.00127231
0.00126375
0.00125551
0.00124742
0.00123945
0.00123172
0.00122404
0.00121645
0.00120892
0.00120151
0.00119443
0.266774
1.32098
1.28773
1.42112
2.56319
2.87675
2.41236
2.06458
2.23861
1.82821
1.72487
1.58763
1.33524
1.18929
1.09914
1.01779
0.893014
0.614977
0.233026
0.0460123
0.00368325
0.000580735
0.00641961
0.0158317
0.0153193
0.0147686
0.0144749
0.0143257
0.0142631
0.0142482
0.0142563
0.0142775
0.0143137
0.0143651
0.0144274
0.0144867
0.0145375
0.0145783
0.014611
0.0146393
0.0146611
0.0146829
0.0147079
0.0147305
0.0147502
0.0147724
0.0147982
0.0148231
0.0148436
0.0148609
0.0148788
0.0148986
0.0149186
0.0149364
0.0149512
0.014964
0.0149739
0.0149798
0.0149787
0.0149424
0.288295
1.84514
1.87992
1.97762
3.26192
3.81205
3.8494
3.66185
2.67094
2.4656
2.74079
2.35352
1.83418
1.49756
1.34293
1.25451
1.08696
0.690843
0.219844
0.0342825
0.00283011
0.00198355
0.0254443
0.0425428
0.0377367
0.0342146
0.0320623
0.0307
0.0298182
0.0292232
0.028802
0.0284936
0.0282736
0.0281282
0.028038
0.0279779
0.0279282
0.0278843
0.0278453
0.0278122
0.0277807
0.0277547
0.0277387
0.0277265
0.0277148
0.0277073
0.0277066
0.0277085
0.0277084
0.0277072
0.027708
0.027712
0.0277178
0.0277229
0.0277263
0.027729
0.0277305
0.0277292
0.0277317
0.0277123
0.313719
2.13394
2.22897
2.31296
3.32754
3.96134
4.22868
4.35545
2.80899
3.04539
3.32887
2.79043
2.19192
1.62304
1.21856
1.11978
0.950789
0.516265
0.134179
0.0177623
0.00226632
0.00892529
0.0574252
0.0637654
0.0535535
0.0469958
0.0429781
0.0404086
0.038706
0.0375235
0.0366674
0.0360223
0.0355387
0.0351833
0.0349236
0.0347258
0.0345626
0.0344251
0.0343085
0.0342106
0.0341244
0.0340509
0.0339926
0.0339431
0.0338989
0.0338604
0.033829
0.0338036
0.0337806
0.0337591
0.0337413
0.0337272
0.033716
0.0337063
0.0336976
0.0336903
0.0336845
0.0336794
0.0336881
0.033698
0.326638
2.30314
2.48473
2.42001
3.14195
3.83906
4.37041
3.73624
3.53643
3.5454
3.03218
2.84653
2.30333
1.53953
0.777057
0.677618
0.554873
0.24505
0.0531026
0.0070135
0.00413001
0.0358683
0.0847505
0.074004
0.0604402
0.0522248
0.0472029
0.0439903
0.0418491
0.040353
0.0392656
0.0384484
0.0378341
0.0373733
0.0370288
0.0367619
0.0365421
0.0363578
0.0362014
0.0360699
0.0359549
0.0358569
0.0357772
0.0357088
0.0356476
0.0355924
0.0355453
0.0355064
0.0354717
0.0354396
0.0354118
0.0353886
0.0353688
0.0353513
0.0353362
0.0353238
0.0353139
0.0353063
0.0353163
0.0353406
0.325357
2.37082
2.68468
2.57264
2.99944
3.62804
4.1757
3.83161
3.91321
3.34993
2.49779
2.72419
2.21897
1.24881
0.265522
0.234046
0.189812
0.0729216
0.0148839
0.0044479
0.019273
0.0844376
0.0966241
0.0764969
0.0620929
0.0535112
0.0482462
0.0448598
0.0425803
0.0409765
0.0398174
0.0389572
0.0383164
0.0378299
0.0374592
0.0371693
0.0369337
0.0367371
0.0365687
0.0364263
0.0363018
0.0361972
0.0361112
0.0360365
0.0359695
0.0359089
0.0358573
0.035815
0.035777
0.0357418
0.0357108
0.0356846
0.0356625
0.0356427
0.0356256
0.0356116
0.0356003
0.035591
0.0356008
0.0356311
0.317487
2.33553
2.82972
2.88967
3.19067
3.56026
3.98129
3.84314
3.32006
2.47391
2.06451
2.63025
2.24593
1.03347
0.122477
0.0583949
0.0427425
0.0160128
0.00598076
0.0144777
0.0724472
0.115407
0.0969062
0.0752263
0.0615751
0.0533568
0.0482385
0.0449038
0.0426283
0.0410131
0.0398539
0.0390064
0.0383795
0.0378988
0.0375243
0.0372264
0.0369855
0.0367863
0.0366151
0.0364706
0.036346
0.0362418
0.0361542
0.0360767
0.0360085
0.0359475
0.0358956
0.0358526
0.0358138
0.0357783
0.0357464
0.0357194
0.0356965
0.0356764
0.0356592
0.0356448
0.0356329
0.0356228
0.0356324
0.035666
0.301011
2.19999
2.84336
3.13885
3.52324
3.70347
3.94664
3.72855
2.90216
1.91316
1.71473
2.5121
2.3789
0.999565
0.107042
0.0152954
0.00967213
0.00699409
0.0154928
0.0652732
0.125732
0.118463
0.091903
0.0723794
0.0602122
0.0526895
0.0478891
0.0446949
0.0424866
0.0409153
0.039789
0.0389703
0.0383663
0.0378996
0.0375293
0.0372293
0.0369835
0.0367807
0.0366092
0.0364662
0.0363448
0.036243
0.0361544
0.0360756
0.0360077
0.0359482
0.0358971
0.0358533
0.0358139
0.0357787
0.035747
0.0357192
0.0356958
0.0356759
0.035659
0.0356446
0.0356323
0.0356218
0.0356317
0.0356671
0.277446
1.97745
2.71501
3.15674
3.51222
3.67368
3.92899
3.64535
2.6575
1.5851
1.4537
2.37143
2.48871
1.09174
0.137041
0.0128175
0.00898924
0.0199263
0.064746
0.127617
0.134625
0.109074
0.0852221
0.0689231
0.058471
0.0517702
0.0473618
0.0443614
0.0422636
0.04077
0.0396996
0.0389178
0.0383347
0.037882
0.0375206
0.0372225
0.0369725
0.036765
0.0365931
0.0364531
0.0363356
0.0362353
0.0361469
0.0360687
0.0360025
0.0359445
0.0358936
0.0358491
0.0358096
0.0357748
0.0357431
0.0357147
0.035691
0.0356714
0.0356548
0.0356405
0.035628
0.0356172
0.0356275
0.0356641
0.255738
1.69548
2.49294
3.00919
3.33166
3.55213
3.73221
3.51696
2.52621
1.41241
1.295
2.18229
2.52146
1.24879
0.185622
0.0263339
0.0258988
0.0615156
0.116694
0.13718
0.120993
0.0973104
0.078427
0.0652975
0.0565265
0.0506768
0.0467035
0.0439388
0.0419874
0.0405963
0.0395939
0.0388534
0.038293
0.0378535
0.0375
0.0372065
0.0369565
0.036747
0.0365752
0.0364364
0.0363206
0.0362219
0.0361358
0.0360606
0.0359962
0.0359392
0.0358883
0.0358434
0.035804
0.0357695
0.0357377
0.0357092
0.0356854
0.035666
0.0356496
0.0356352
0.0356225
0.0356119
0.0356226
0.0356599
0.23746
1.49058
2.26473
2.8008
3.06338
3.32758
3.47225
3.31407
2.41132
1.3286
1.24475
1.98045
2.49549
1.42866
0.245077
0.0523684
0.0544388
0.0929511
0.121372
0.121164
0.104754
0.0865545
0.0721181
0.0617216
0.0544813
0.0494598
0.0459452
0.0434546
0.0416779
0.0404014
0.0394724
0.0387778
0.038242
0.0378145
0.0374663
0.0371783
0.0369347
0.0367291
0.0365578
0.036417
0.0363005
0.0362038
0.036122
0.0360507
0.0359883
0.0359321
0.0358813
0.0358366
0.0357975
0.0357628
0.0357311
0.0357028
0.0356793
0.03566
0.0356434
0.0356289
0.0356163
0.0356059
0.035617
0.0356547
0.222638
1.39195
2.12259
2.62877
2.82928
3.09425
3.23466
3.10058
2.28339
1.30053
1.17491
1.78277
2.41117
1.56474
0.31836
0.0942772
0.108761
0.142678
0.127799
0.107352
0.0914891
0.0774985
0.066493
0.0583249
0.052417
0.0481724
0.0451258
0.0429314
0.0413456
0.0401913
0.039338
0.0386895
0.0381786
0.037763
0.0374206
0.0371398
0.0369072
0.0367101
0.0365402
0.0363957
0.0362772
0.036183
0.036106
0.0360384
0.0359777
0.0359228
0.0358731
0.0358285
0.0357894
0.0357547
0.0357234
0.0356958
0.0356727
0.0356532
0.0356362
0.0356217
0.0356093
0.0355992
0.0356107
0.0356485
0.214349
1.35669
2.06677
2.51261
2.68572
2.91697
3.03752
2.90878
2.16836
1.26566
1.10747
1.62956
2.24207
1.60707
0.400304
0.149959
0.19375
0.235567
0.161571
0.102114
0.0815233
0.0700249
0.0615687
0.0551736
0.0503985
0.0468679
0.0442817
0.0423884
0.0409997
0.0399709
0.0391919
0.038586
0.0380987
0.0376979
0.037366
0.0370955
0.0368742
0.0366858
0.0365195
0.0363739
0.0362543
0.036161
0.036087
0.0360225
0.035964
0.0359116
0.0358636
0.0358193
0.0357798
0.0357452
0.0357149
0.0356883
0.0356653
0.0356456
0.0356283
0.0356136
0.0356014
0.0355917
0.0356035
0.0356412
0.219784
1.4169
2.08478
2.43984
2.58263
2.76991
2.8631
2.73832
2.07277
1.25621
1.10977
1.53425
2.02727
1.55527
0.473427
0.212042
0.295628
0.354893
0.218604
0.104046
0.0740539
0.0638489
0.0572905
0.0522992
0.0484822
0.0455975
0.0434459
0.0418444
0.0406476
0.039739
0.0390308
0.0384653
0.0380025
0.037622
0.0373072
0.0370481
0.0368346
0.0366534
0.036494
0.0363528
0.0362339
0.0361392
0.036065
0.0360028
0.0359474
0.0358983
0.0358523
0.0358084
0.0357689
0.0357348
0.0357056
0.0356799
0.0356571
0.0356371
0.0356196
0.0356049
0.0355928
0.0355834
0.0355953
0.0356328
0.230605
1.51793
2.10961
2.36346
2.4879
2.61667
2.6854
2.54748
1.9618
1.26866
1.13774
1.45551
1.79812
1.42955
0.519097
0.274473
0.398204
0.473618
0.283383
0.108882
0.0680994
0.0586843
0.0535849
0.0497175
0.0467117
0.0444001
0.0426449
0.0413132
0.0402932
0.0394935
0.0388499
0.0383257
0.0378941
0.0375395
0.0372448
0.0369964
0.0367883
0.0366138
0.0364643
0.0363319
0.0362154
0.0361177
0.0360408
0.03598
0.0359282
0.0358823
0.0358385
0.0357958
0.035757
0.0357237
0.0356955
0.0356704
0.0356477
0.0356276
0.0356101
0.0355955
0.0355835
0.0355743
0.0355862
0.0356234
0.236027
1.5875
2.0719
2.2578
2.35356
2.43585
2.49355
2.33737
1.85768
1.29183
1.17366
1.41958
1.57487
1.25459
0.526154
0.334307
0.490117
0.569463
0.334825
0.110675
0.06275
0.0543204
0.0503971
0.0474406
0.0451164
0.0433014
0.0418952
0.0408001
0.0399319
0.0392286
0.038649
0.0381722
0.037779
0.0374525
0.0371762
0.0369378
0.0367364
0.0365708
0.0364325
0.0363091
0.0361962
0.0360963
0.0360163
0.0359559
0.0359066
0.0358632
0.035822
0.0357816
0.0357443
0.035712
0.0356843
0.0356597
0.0356373
0.0356173
0.0356
0.0355854
0.0355734
0.0355642
0.0355762
0.035613
0.241092
1.61483
2.0007
2.13727
2.18583
2.24775
2.29854
2.12605
1.74522
1.3146
1.21704
1.40514
1.36728
1.05154
0.497304
0.386107
0.562001
0.626324
0.352241
0.104051
0.0574665
0.0506354
0.0476884
0.0454672
0.043705
0.0423083
0.0411967
0.0402993
0.0395624
0.0389503
0.0384383
0.0380124
0.0376575
0.0373571
0.0370989
0.0368742
0.0366832
0.0365275
0.0363985
0.0362827
0.0361741
0.0360749
0.0359932
0.0359315
0.0358827
0.035841
0.0358029
0.0357659
0.0357309
0.0356995
0.0356721
0.0356478
0.0356258
0.0356061
0.035589
0.0355745
0.0355626
0.0355535
0.0355653
0.0356017
0.245157
1.61024
1.92822
2.0103
2.03042
2.08925
2.13115
1.95589
1.63738
1.32781
1.26755
1.44628
1.17267
0.827508
0.440776
0.420934
0.602072
0.630135
0.320485
0.0879315
0.052348
0.0475603
0.0454138
0.0437813
0.0424721
0.0414135
0.040541
0.0398106
0.039192
0.0386688
0.0382256
0.0378488
0.0375278
0.0372513
0.0370138
0.0368082
0.0366316
0.0364845
0.0363615
0.0362517
0.0361491
0.0360535
0.0359712
0.035907
0.0358571
0.0358169
0.0357819
0.0357487
0.0357164
0.035686
0.0356587
0.0356348
0.0356135
0.0355943
0.0355773
0.0355628
0.0355509
0.0355419
0.0355536
0.0355893
0.248926
1.5851
1.84903
1.89033
1.90611
1.9533
1.98232
1.81195
1.55776
1.33825
1.32353
1.51693
1.0161
0.577673
0.365306
0.42764
0.594479
0.565473
0.237822
0.0680231
0.0479559
0.0450386
0.0435165
0.0423476
0.041395
0.0406036
0.0399279
0.0393445
0.0388355
0.0383961
0.0380153
0.0376812
0.0373907
0.037139
0.0369259
0.0367426
0.0365808
0.0364402
0.0363212
0.0362176
0.0361222
0.0360317
0.0359493
0.0358821
0.0358308
0.0357918
0.0357599
0.0357299
0.0357002
0.035671
0.0356442
0.0356208
0.0356002
0.0355815
0.0355647
0.0355502
0.0355384
0.0355296
0.0355411
0.0355762
0.250925
1.54091
1.76128
1.77341
1.76373
1.78518
1.79807
1.65613
1.46782
1.3525
1.38198
1.57331
0.987943
0.29787
0.276683
0.390017
0.51756
0.417268
0.134334
0.0528532
0.0446625
0.0429885
0.0419357
0.0411258
0.0404512
0.0398753
0.0393659
0.0389125
0.0385004
0.0381321
0.0378041
0.0375092
0.0372509
0.0370277
0.0368395
0.0366766
0.0365282
0.0363934
0.0362787
0.0361819
0.036094
0.0360081
0.0359261
0.0358569
0.0358048
0.0357672
0.0357372
0.0357095
0.0356821
0.0356547
0.0356288
0.0356061
0.0355861
0.0355678
0.0355512
0.0355368
0.0355251
0.0355165
0.0355279
0.0355621
0.251736
1.48934
1.68442
1.66531
1.58834
1.5747
1.58352
1.51775
1.40311
1.37832
1.44409
1.62807
1.07442
0.113934
0.128789
0.275749
0.346423
0.205956
0.0677176
0.0451388
0.0423035
0.0413143
0.0406203
0.0400898
0.0396355
0.0392347
0.0388638
0.0385183
0.0381856
0.0378763
0.0375951
0.0373404
0.0371169
0.0369217
0.0367544
0.0366072
0.0364716
0.0363452
0.0362362
0.0361454
0.0360634
0.0359821
0.0359019
0.0358323
0.03578
0.0357429
0.0357139
0.0356876
0.0356624
0.035637
0.0356125
0.0355906
0.0355711
0.0355531
0.0355368
0.0355227
0.0355112
0.0355027
0.035514
0.0355473
0.251038
1.44307
1.63421
1.58278
1.43816
1.36497
1.39921
1.43638
1.38355
1.41999
1.51168
1.70285
1.18005
0.122829
0.0118776
0.0839853
0.128831
0.0741954
0.0467341
0.0417183
0.0405356
0.0399531
0.0395401
0.0392268
0.0389451
0.0386806
0.0384168
0.0381567
0.0378902
0.0376334
0.0373971
0.0371835
0.0369928
0.0368207
0.0366688
0.0365339
0.0364118
0.0362971
0.0361944
0.0361073
0.0360295
0.0359533
0.0358772
0.035809
0.0357563
0.0357187
0.0356897
0.0356646
0.0356415
0.0356184
0.0355954
0.0355742
0.0355551
0.0355375
0.0355215
0.0355078
0.0354965
0.0354882
0.0354993
0.0355317
0.247992
1.40322
1.591
1.51314
1.34378
1.23405
1.30347
1.42654
1.40527
1.47675
1.58506
1.77784
1.29252
0.187052
0.00528738
0.00632785
0.0371473
0.0455477
0.0416452
0.0398173
0.0391842
0.0388765
0.0386729
0.0385204
0.0383673
0.0382032
0.0380204
0.037828
0.0376196
0.037412
0.0372176
0.0370399
0.036876
0.0367217
0.0365829
0.0364601
0.0363517
0.0362492
0.0361522
0.0360669
0.0359927
0.035923
0.035853
0.0357873
0.0357334
0.0356939
0.0356647
0.0356411
0.03562
0.035599
0.0355774
0.0355567
0.035538
0.0355209
0.0355055
0.0354922
0.0354813
0.0354732
0.0354838
0.0355154
0.244216
1.35654
1.51697
1.41671
1.25553
1.18006
1.30797
1.47507
1.45284
1.547
1.66573
1.85331
1.39419
0.284258
0.0106796
0.00194807
0.0171697
0.0391841
0.0397107
0.0385817
0.0381999
0.0380659
0.038001
0.0379544
0.0378881
0.0377954
0.0376748
0.0375377
0.0373813
0.0372184
0.0370578
0.0369065
0.036763
0.0366249
0.0364997
0.0363891
0.0362926
0.0362002
0.0361082
0.0360251
0.035955
0.0358923
0.0358294
0.0357662
0.0357105
0.0356686
0.0356394
0.0356175
0.0355983
0.0355789
0.0355584
0.0355382
0.03552
0.0355035
0.0354888
0.035476
0.0354655
0.0354575
0.0354678
0.0354983
0.239981
1.28349
1.38898
1.26593
1.162
1.18728
1.38473
1.55488
1.50752
1.63026
1.75607
1.93407
1.47689
0.381797
0.0216889
0.00189108
0.00950119
0.0349549
0.0386966
0.0378587
0.0375612
0.0375029
0.0375068
0.0375158
0.0375011
0.0374574
0.0373843
0.0372907
0.0371765
0.0370492
0.036913
0.0367806
0.0366546
0.0365332
0.0364222
0.036322
0.0362334
0.0361489
0.036063
0.0359837
0.035918
0.0358617
0.0358051
0.0357449
0.0356878
0.0356436
0.0356142
0.0355939
0.0355763
0.0355581
0.0355385
0.035519
0.0355012
0.0354854
0.0354714
0.0354593
0.0354491
0.0354412
0.0354511
0.0354806
0.234032
1.17625
1.22227
1.13199
1.13639
1.25839
1.49189
1.63632
1.56454
1.7269
1.85832
2.0194
1.54326
0.458023
0.0347149
0.00256428
0.00578467
0.0301318
0.0382043
0.0375845
0.0372395
0.0371637
0.0371722
0.0371962
0.0372052
0.0371908
0.0371497
0.0370855
0.0370003
0.0368984
0.0367814
0.0366646
0.0365545
0.0364488
0.03635
0.0362571
0.0361735
0.036096
0.0360183
0.0359448
0.0358829
0.0358306
0.0357789
0.0357222
0.0356654
0.0356198
0.0355898
0.0355702
0.0355536
0.0355366
0.0355181
0.0354992
0.0354819
0.0354668
0.0354536
0.035442
0.0354321
0.0354243
0.0354339
0.0354622
0.225318
1.04923
1.12901
1.13627
1.19991
1.36321
1.58485
1.68774
1.61854
1.83741
1.976
2.11643
1.5878
0.504572
0.0447877
0.00346217
0.00441858
0.0252244
0.0379382
0.0376608
0.0371859
0.0370207
0.0369829
0.0369882
0.0369959
0.0369906
0.0369644
0.0369153
0.0368468
0.0367637
0.0366647
0.0365626
0.0364652
0.036371
0.0362805
0.0361934
0.0361145
0.0360443
0.0359759
0.0359086
0.0358487
0.0357983
0.0357506
0.0356983
0.0356438
0.0355978
0.0355664
0.0355461
0.0355302
0.0355144
0.0354972
0.0354792
0.0354624
0.0354478
0.0354351
0.0354242
0.0354146
0.0354069
0.0354161
0.0354433
0.213216
0.954419
1.19425
1.23915
1.31298
1.45942
1.6359
1.68255
1.67601
1.96325
2.1134
2.22754
1.60756
0.519311
0.0493644
0.00425826
0.00412443
0.0217536
0.0377664
0.0379858
0.0373443
0.0370446
0.0369226
0.0368791
0.0368613
0.0368449
0.036818
0.0367741
0.036716
0.0366474
0.0365641
0.0364735
0.036384
0.0362968
0.0362127
0.0361318
0.0360591
0.035996
0.0359358
0.0358738
0.0358149
0.0357651
0.0357207
0.0356736
0.0356227
0.035577
0.0355439
0.035522
0.0355061
0.0354918
0.0354762
0.0354592
0.0354428
0.0354284
0.0354162
0.0354058
0.0353965
0.035389
0.0353977
0.0354237
0.199044
0.958295
1.31125
1.32367
1.38625
1.49891
1.61715
1.64737
1.75561
2.10853
2.2748
2.34549
1.60528
0.506675
0.0489323
0.00487028
0.00430381
0.0198301
0.0376997
0.0384827
0.0376618
0.0371997
0.0369666
0.0368507
0.0367875
0.0367447
0.0367063
0.0366615
0.036609
0.0365497
0.036477
0.0363933
0.0363082
0.0362263
0.0361488
0.0360755
0.0360094
0.0359515
0.0358965
0.0358386
0.0357812
0.0357321
0.0356905
0.0356485
0.0356019
0.0355569
0.0355219
0.035498
0.0354819
0.0354689
0.035455
0.0354392
0.0354232
0.0354088
0.0353969
0.0353869
0.035378
0.0353706
0.0353788
0.0354037
0.186877
1.04932
1.37328
1.35819
1.39915
1.45967
1.5222
1.5716
1.87342
2.28016
2.46469
2.45382
1.59636
0.474409
0.0440466
0.0052891
0.00473992
0.0189707
0.0377389
0.0390842
0.0380868
0.0374472
0.0370869
0.0368845
0.0367651
0.0366872
0.0366294
0.0365772
0.0365234
0.0364662
0.0363985
0.0363194
0.0362385
0.0361624
0.0360921
0.0360258
0.0359645
0.035909
0.0358565
0.0358024
0.035748
0.0357005
0.0356612
0.0356233
0.0355806
0.0355367
0.0355002
0.0354746
0.035458
0.0354461
0.0354339
0.0354192
0.0354036
0.0353892
0.0353772
0.0353674
0.0353589
0.0353518
0.0353595
0.0353832
0.179492
1.1292
1.36674
1.34757
1.35476
1.33815
1.40011
1.52675
2.03214
2.48543
2.68519
2.53898
1.58584
0.421452
0.0365987
0.00564268
0.00537534
0.0190298
0.0379922
0.0397293
0.0385698
0.0377546
0.0372634
0.0369688
0.0367873
0.0366686
0.0365847
0.036517
0.0364542
0.0363933
0.0363275
0.036253
0.0361775
0.0361078
0.0360431
0.0359809
0.0359217
0.0358669
0.0358162
0.0357661
0.0357161
0.0356713
0.0356335
0.035598
0.0355585
0.035516
0.0354788
0.0354521
0.035435
0.0354235
0.0354125
0.0353991
0.0353841
0.0353696
0.0353574
0.0353476
0.0353395
0.0353326
0.0353399
0.0353624
0.174556
1.13242
1.31671
1.29155
1.24749
1.20421
1.27226
1.58196
2.24331
2.72923
2.93953
2.62545
1.54165
0.342037
0.0287695
0.00610563
0.00618072
0.019729
0.0384244
0.0403539
0.0390704
0.0380999
0.0374832
0.0370946
0.0368463
0.036681
0.0365645
0.036475
0.0363986
0.0363315
0.0362669
0.0361975
0.0361271
0.0360618
0.0359996
0.035938
0.0358792
0.0358254
0.0357771
0.0357313
0.0356856
0.0356435
0.035607
0.0355727
0.0355355
0.0354948
0.0354578
0.0354306
0.0354131
0.0354015
0.0353911
0.0353787
0.0353644
0.03535
0.0353375
0.0353276
0.0353196
0.035313
0.0353199
0.0353412
0.167967
1.05283
1.24848
1.21188
1.13079
1.09909
1.2318
1.73965
2.51182
3.01144
3.22956
2.71228
1.48349
0.256111
0.0223349
0.00670334
0.00715287
0.0209749
0.0389939
0.040908
0.0395532
0.038462
0.037732
0.0372505
0.0369313
0.0367144
0.0365616
0.0364481
0.0363573
0.0362839
0.0362202
0.0361541
0.0360855
0.0360206
0.0359581
0.0358957
0.0358372
0.0357856
0.0357408
0.0356988
0.0356561
0.0356162
0.0355808
0.0355475
0.0355121
0.0354735
0.0354376
0.0354104
0.0353923
0.0353801
0.0353696
0.035358
0.0353444
0.0353303
0.0353177
0.0353075
0.0352995
0.0352931
0.0352997
0.0353199
0.156793
0.905744
1.12929
1.11939
1.04439
1.0419
1.29325
1.99424
2.84015
3.3303
3.48174
2.80192
1.44236
0.185117
0.0174726
0.00719338
0.00833803
0.0231674
0.0398567
0.0413834
0.039985
0.0388141
0.0379919
0.0374246
0.037034
0.0367643
0.0365751
0.0364384
0.0363338
0.0362529
0.0361872
0.0361207
0.0360492
0.0359813
0.0359177
0.0358551
0.0357977
0.0357487
0.0357075
0.0356683
0.0356271
0.0355884
0.0355547
0.035523
0.0354893
0.0354527
0.0354182
0.0353913
0.0353727
0.0353594
0.0353482
0.0353369
0.0353242
0.0353105
0.0352979
0.0352874
0.0352793
0.035273
0.0352794
0.0352984
0.139173
0.718678
0.96537
1.0161
0.976473
1.05049
1.46218
2.35437
3.22636
3.68531
3.71846
2.86488
1.41019
0.138849
0.0131128
0.00725962
0.0101372
0.027098
0.0411501
0.0418137
0.0403524
0.0391309
0.0382419
0.0376044
0.0371509
0.0368321
0.0366083
0.0364491
0.0363291
0.0362366
0.0361637
0.0360929
0.0360164
0.035944
0.0358797
0.0358184
0.0357621
0.0357148
0.0356759
0.0356385
0.0355982
0.0355604
0.0355288
0.0354997
0.0354679
0.0354327
0.0353995
0.035373
0.0353539
0.0353395
0.0353272
0.0353157
0.0353036
0.0352905
0.035278
0.0352675
0.0352591
0.0352529
0.0352589
0.0352769
0.114086
0.539106
0.810158
0.934501
0.941996
1.10336
1.76635
2.83208
3.6632
4.05786
3.89712
2.93192
1.42294
0.132788
0.00910563
0.00725806
0.0139694
0.0332124
0.0427001
0.0422445
0.0406673
0.0393971
0.0384631
0.0377789
0.0372788
0.0369183
0.0366612
0.0364779
0.0363392
0.0362304
0.0361459
0.0360691
0.0359879
0.0359109
0.0358455
0.0357858
0.03573
0.0356826
0.0356446
0.0356088
0.0355699
0.0355331
0.0355037
0.0354778
0.035448
0.0354139
0.0353814
0.0353553
0.0353357
0.0353203
0.0353068
0.0352946
0.0352827
0.0352701
0.035258
0.0352475
0.035239
0.0352328
0.0352385
0.0352554
0.09126
0.449667
0.755483
0.887504
0.919014
1.26154
2.27456
3.42489
4.1346
4.43148
4.02308
2.98227
1.47351
0.171819
0.00886847
0.00836488
0.022486
0.040325
0.0442469
0.0427317
0.0409609
0.0396161
0.0386452
0.037934
0.0374058
0.0370144
0.0367271
0.0365182
0.0363585
0.0362316
0.0361334
0.0360499
0.0359651
0.0358838
0.0358155
0.0357559
0.0356999
0.035651
0.0356129
0.0355791
0.0355426
0.0355073
0.0354799
0.035457
0.0354296
0.0353963
0.0353642
0.0353382
0.0353181
0.0353016
0.0352869
0.0352738
0.0352616
0.0352496
0.035238
0.0352276
0.035219
0.0352128
0.0352181
0.035234
0.146432
0.585335
0.802164
0.84779
0.922425
1.71921
3.04476
4.09788
4.62459
4.70312
4.10403
3.01234
1.54005
0.242055
0.0151115
0.0103012
0.0315046
0.0458967
0.0457689
0.0433066
0.0412498
0.0397931
0.0387805
0.0380527
0.0375116
0.0371025
0.036793
0.0365621
0.036384
0.036241
0.0361287
0.0360369
0.0359482
0.0358621
0.0357883
0.0357262
0.0356696
0.0356197
0.0355815
0.0355499
0.0355166
0.0354835
0.0354575
0.035437
0.0354122
0.0353803
0.0353484
0.035322
0.0353011
0.0352832
0.0352673
0.0352531
0.0352404
0.0352288
0.0352178
0.0352077
0.0351992
0.035193
0.0351978
0.0352127
0.263908
0.700568
0.736408
0.718744
1.37323
2.71697
4.01693
4.79422
5.11195
4.89479
4.12844
3.00225
1.58927
0.320176
0.025461
0.0123196
0.0323965
0.0483045
0.0471766
0.04392
0.0415261
0.0399378
0.0388767
0.0381319
0.0375839
0.037168
0.0368486
0.0366056
0.0364155
0.0362596
0.0361328
0.0360289
0.0359329
0.0358406
0.0357596
0.0356931
0.0356364
0.0355874
0.0355501
0.0355209
0.0354913
0.0354609
0.0354359
0.0354166
0.0353947
0.0353655
0.0353344
0.0353075
0.0352849
0.0352652
0.0352477
0.0352324
0.0352192
0.035208
0.0351976
0.035188
0.0351797
0.0351736
0.0351778
0.0351916
0.205321
0.35637
0.633285
1.4724
2.77261
4.08706
5.00668
5.46128
5.53949
5.00363
4.07734
2.92396
1.58747
0.372139
0.0346158
0.0136975
0.0295308
0.0472689
0.0478278
0.0443248
0.0417193
0.0400563
0.038972
0.0382198
0.0376695
0.0372535
0.036933
0.0366845
0.036484
0.0363123
0.0361652
0.0360407
0.0359291
0.0358259
0.0357356
0.0356632
0.0356056
0.0355577
0.0355208
0.035493
0.0354667
0.0354388
0.0354134
0.0353934
0.0353743
0.03535
0.0353217
0.0352941
0.0352687
0.0352462
0.0352268
0.0352106
0.0351975
0.0351867
0.0351772
0.0351683
0.0351605
0.0351545
0.0351581
0.0351705
0.127987
0.616183
1.19653
1.76924
2.31319
2.82281
3.29588
3.73059
4.12458
4.4745
4.77557
5.02096
5.20081
5.30051
5.29783
5.15776
4.82294
4.19539
3.10804
1.4477
0.130811
0.625489
1.21159
1.79048
2.34158
2.85976
3.34325
3.79068
4.20015
4.5688
4.8924
5.16471
5.37643
5.51351
5.55407
5.46328
5.18442
4.62553
3.65547
2.21464
0.134785
0.635464
1.22788
1.81345
2.37215
2.89932
3.39366
3.85425
4.2797
4.66768
5.01455
5.31476
5.55985
5.7369
5.82587
5.79559
5.59827
5.16528
4.4195
3.36357
0.142792
0.651466
1.2522
1.84561
2.41255
2.94899
3.45421
3.92782
4.36895
4.77585
5.14554
5.47332
5.7519
5.97019
6.11145
6.15105
6.05472
5.78083
5.29733
4.63705
0.159945
0.681927
1.29491
1.89796
2.47369
3.01918
3.53448
4.01989
4.47515
4.89915
5.2897
5.64305
5.95337
6.21184
6.40573
6.51765
6.52613
6.41008
6.162
5.81439
0.196225
0.740239
1.37137
1.986
2.57034
3.1234
3.64648
4.14079
4.60687
5.04439
5.45198
5.827
6.16508
6.45974
6.70199
6.88056
6.98323
7.0008
6.93484
6.80835
0.272375
0.847441
1.50328
2.1301
2.72077
3.27757
3.80376
4.30183
4.77332
5.21879
5.63778
6.02865
6.3884
6.71251
6.99494
7.22869
7.4071
7.52651
7.59027
7.61264
0.429783
1.03482
1.7186
2.35406
2.94471
3.49783
4.01939
4.51353
4.9829
5.42897
5.85212
6.25156
6.62535
6.97036
7.28255
7.55752
7.79153
7.98306
8.13467
8.2545
0.736265
1.34408
2.04885
2.6812
3.25923
3.7967
4.30268
4.78292
5.24106
5.67927
6.09849
6.49852
6.878
7.23469
7.56567
7.86798
8.13925
8.37852
8.58699
8.76857
1.26719
1.82127
2.52241
3.12798
3.67327
4.17869
4.6557
5.1109
5.54822
5.97002
6.37736
6.77017
7.14727
7.50672
7.84617
8.16333
8.45643
8.72443
8.96712
9.18516
2.07277
2.49957
3.1516
3.69518
4.18213
4.63691
5.07118
5.49074
5.89866
6.29665
6.6853
7.06411
7.43162
7.78585
8.12463
8.44598
8.74835
9.03025
9.29011
9.52612
3.24343
3.38486
3.91806
4.35966
4.76407
5.15229
5.53275
5.90865
6.28097
6.64991
7.01489
7.37437
7.72623
8.06833
8.39865
8.71532
9.01694
9.30107
9.56384
9.80273
4.93597
4.45022
4.76643
5.07564
5.38382
5.6971
6.01788
6.34585
6.67932
7.01637
7.3546
7.69074
8.02202
8.34622
8.66151
8.96597
9.25849
9.53712
9.78925
10.0179
5.92852
5.5044
5.61526
5.79323
6.00555
6.24374
6.50409
6.78284
7.07634
7.38053
7.69099
8.0014
8.30917
8.61174
8.90722
9.19303
9.46514
9.72722
9.95488
10.1596
6.56461
6.30156
6.35365
6.44561
6.58169
6.75533
6.96011
7.1906
7.44146
7.70756
7.98353
8.26375
8.54362
8.81963
9.08841
9.34549
9.58737
9.81255
10.008
10.1756
7.00479
6.83918
6.8806
6.94402
7.04062
7.17301
7.33835
7.53134
7.74624
7.97748
8.21924
8.46625
8.71403
8.9582
9.19424
9.41753
9.62464
9.81078
9.96721
10.0911
7.28689
7.19312
7.23163
7.28544
7.36437
7.47334
7.612
7.77673
7.96256
8.16413
8.37593
8.59279
8.81005
9.02314
9.22732
9.41785
9.59027
9.73924
9.85834
9.94255
7.43338
7.40028
7.43676
7.48618
7.55559
7.65004
7.77039
7.91425
8.07749
8.25527
8.44247
8.6341
8.82544
9.01185
9.18857
9.35074
9.49341
9.61124
9.69862
9.75032
7.44863
7.47415
7.50746
7.55325
7.61606
7.7005
7.80788
7.93651
8.08281
8.24237
8.41045
8.58231
8.75329
8.91878
9.07406
9.21422
9.33424
9.42888
9.49287
9.52117
7.32645
7.41427
7.44383
7.48615
7.54383
7.62102
7.71924
7.83709