/*--------------------------------*- C++ -*----------------------------------*\
| =========                 |                                                 |
| \\      /  F ield         | OpenFOAM: The Open Source CFD Toolbox           |
|  \\    /   O peration     | Version:  v1912                                 |
|   \\  /    A nd           | Website:  www.openfoam.com                      |
|    \\/     M anipulation  |                                                 |
\*---------------------------------------------------------------------------*/
FoamFile
{
    version     2.0;
    format      ascii;
    class       volScalarField;
    location    "8";
    object      p;
}
// * * * * * * * * * * * * * * * * * * * * * * * * * * * * * * * * * * * * * //

dimensions      [1 -1 -2 0 0 0 0];


internalField   nonuniform List<scalar> 
20320
(
411361
421615
421647
421697
421754
421827
421909
421999
422092
422192
422310
422456
422634
422835
423032
423185
423261
423266
423246
423237
391472
401373
401413
401465
401529
401607
401700
401801
401905
402017
402150
402314
402503
402703
402888
403026
403095
403100
403089
403156
372199
381781
381824
381881
381950
382036
382132
382231
382338
382455
382588
382736
382896
383060
383209
383330
383414
383477
383564
383748
353534
362814
362858
362919
362992
363079
363171
363268
363372
363485
363607
363738
363874
364010
364138
364253
364357
364464
364611
364843
335460
344448
344493
344554
344629
344712
344800
344893
344992
345097
345209
345325
345444
345563
345680
345794
345911
346044
346220
346469
317958
326662
326708
326768
326842
326922
327005
327093
327185
327282
327384
327489
327596
327705
327815
327930
328055
328202
328393
328651
301014
309440
309486
309546
309617
309692
309770
309852
309938
310027
310120
310215
310313
310414
310521
310636
310766
310923
311124
311391
284613
292769
292814
292875
292942
293012
293085
293161
293239
293320
293404
293490
293580
293674
293777
293892
294026
294190
294402
294681
268746
276637
276682
276741
276804
276869
276936
277005
277074
277146
277219
277296
277376
277464
277562
277675
277812
277984
278207
278501
253400
261032
261077
261133
261192
261252
261312
261371
261431
261491
261552
261616
261685
261762
261853
261964
262103
262281
262518
262829
238567
245944
245989
246041
246095
246148
246199
246247
246294
246339
246384
246431
246484
246548
246628
246732
246870
247055
247306
247642
224237
231364
231408
231456
231503
231547
231587
231622
231651
231677
231701
231726
231757
231800
231863
231954
232087
232277
232546
232910
210399
217282
217323
217366
217406
217440
217466
217483
217492
217493
217488
217483
217482
217494
217529
217599
217720
217911
218198
218600
197043
203686
203723
203760
203792
203813
203823
203820
203802
203772
203731
203685
203639
203606
203597
203630
203726
203911
204218
204668
184160
190568
190601
190631
190653
190662
190653
190625
190576
190508
190421
190320
190215
190115
190039
190010
190057
190219
190542
191056
171739
177916
177945
177969
177981
177976
177947
177891
177807
177693
177550
177382
177196
177004
176827
176695
176651
176753
177076
177670
159769
165720
165745
165764
165766
165746
165697
165613
165490
165326
165118
164868
164579
164263
163939
163642
163430
163391
163657
164340
148240
153970
153992
154005
153999
153966
153896
153784
153623
153406
153128
152784
152374
151899
151373
150825
150315
149963
149991
150685
137140
142656
142675
142684
142671
142626
142539
142402
142204
141936
141588
141147
140602
139942
139160
138255
137257
136259
135531
135672
126456
131764
131782
131788
131770
131717
131617
131459
131230
130918
130505
129973
129296
128443
127374
126030
124331
122170
119405
116497
-2887.15
-2903.02
-2839.68
-2358.52
-2904.97
-382.397
6992.16
468.792
101917
134601
23039
3151.52
2017.64
3840.14
675.266
1097.86
686.177
108.179
185.957
186.218
158.77
138.072
122.905
111.289
102.053
94.4786
88.1208
82.6931
78.0026
73.9032
70.2854
67.068
64.1865
61.5888
59.2393
57.1075
55.1664
53.3938
51.7712
50.2837
48.9179
47.6613
46.5087
45.4537
44.4866
43.5995
42.7849
42.0399
41.3612
40.7465
40.1944
39.7037
39.2677
38.8806
38.5414
38.2543
38.0164
37.8217
37.6725
37.575
-2920.02
-3001
-3349.67
-2928.12
-3159.46
-3077.58
-1627.76
-4599.38
11287
27755.1
-927.261
492.162
264.78
191.733
80.0568
43.1584
61.9875
98.9369
148.371
169.392
152.232
133.577
118.712
107.058
97.7201
90.04
83.5877
78.0791
73.3207
69.1637
65.4966
62.237
59.3195
56.6903
54.3133
52.1577
50.1958
48.4046
46.7657
45.2638
43.8852
42.6169
41.4536
40.3895
39.4141
38.5197
37.6984
36.9473
36.2633
35.6437
35.087
34.5926
34.1537
33.7633
33.4214
33.1325
32.8935
32.6971
32.5464
32.4483
-2857.89
-3159.74
-3257.26
-3186.54
-3132.67
-3186.71
-2983.91
1521.85
11027.5
2138.09
1444.84
660.361
339.664
161.134
50.0239
17.6001
30.9768
71.6756
121.815
146.533
140.148
126.108
112.853
101.795
92.6831
85.0828
78.651
73.1365
68.3615
64.1834
60.4943
57.2127
54.2745
51.6262
49.2318
47.0602
45.0841
43.2801
41.6291
40.1164
38.7284
37.4512
36.2796
35.2082
34.2265
33.3259
32.499
31.7428
31.0546
30.4308
29.8703
29.3728
28.9313
28.538
28.1937
27.9037
27.6635
27.4659
27.3138
27.2144
-3116.72
-3170.71
-3242.1
-3275.29
-3205.34
-3224.46
-3055.37
-689.6
5168.71
1414.54
1505.74
679.423
269.424
158.637
62.3683
5.04574
12.7267
54.1286
99.4765
123.657
124.8
115.998
105.274
95.4042
86.8606
79.5466
73.2652
67.8316
63.0991
58.9417
55.261
51.9806
49.04
46.3868
43.986
41.8075
39.8245
38.0138
36.3557
34.8363
33.4424
32.1596
30.9824
29.9062
28.9199
28.0144
27.1834
26.4232
25.7314
25.1045
24.5413
24.0413
23.5975
23.2019
22.8557
22.5647
22.3234
22.1247
21.9718
21.8718
-3182.85
-3195.73
-3235.71
-3267.33
-3254.85
-3333.41
-3451.53
-2952.07
-955.932
1069.62
1590.48
328.243
138.256
134.411
69.1751
4.65183
2.50741
40.6652
79.9793
102.446
108.157
103.959
96.1494
87.896
80.223
73.3973
67.4013
62.1404
57.5139
53.423
49.7842
46.5304
43.6067
40.9641
38.5695
36.3941
34.412
32.601
30.9414
29.4196
28.0235
26.7385
25.5589
24.4801
23.4911
22.5824
21.7489
20.9859
20.2915
19.6622
19.0976
18.5955
18.1502
17.7531
17.4056
17.1134
16.8711
16.6712
16.5182
16.418
-3201.99
-3221.94
-3244.57
-3265.06
-3258.47
-3346.24
-3544.63
-3648.45
-2768.58
-908.859
1022.97
-74.9464
6.34211
75.8377
64.2231
17.192
8.51475
33.8025
63.374
83.3382
91.4335
90.7739
85.8195
79.3765
72.7939
66.6304
61.0463
56.0481
51.5924
47.6146
44.0529
40.8524
37.9665
35.3513
32.9762
30.8142
28.8416
27.0374
25.382
23.8625
22.4682
21.1844
20.0054
18.9264
17.9368
17.0268
16.1924
15.428
14.7323
14.1019
13.5368
13.0335
12.5866
12.1886
11.8405
11.5477
11.3044
11.1038
10.9505
10.8498
-3236.6
-3248.15
-3266.31
-3278.54
-3254.71
-3301.48
-3458.85
-3386.6
-3174.77
-2498.86
544.898
-94.2537
-51.3522
15.2427
39.1893
20.9965
14.0162
28.2865
49.307
66.3081
75.2588
77.1487
74.6604
70.0169
64.6425
59.2684
54.2022
49.549
45.3262
41.5082
38.0588
34.939
32.1123
29.5417
27.1999
25.0627
23.1085
21.3182
19.6734
18.1613
16.7729
15.494
14.3185
13.2417
12.2538
11.3447
10.5109
9.74682
9.05128
8.42108
7.85628
7.35247
6.90473
6.50607
6.15816
5.86536
5.62108
5.41981
5.26617
5.16475
-3268.87
-3284.54
-3294.6
-3308.95
-3271.77
-3251.76
-3386.29
-3386.65
-3305
-3137.03
-67.6783
-88.6866
-71.6676
-24.447
9.60395
12.3058
11.8192
21.518
36.9045
51.019
60.0037
63.5624
63.0134
60.0176
55.8697
51.3572
46.8876
42.6477
38.7131
35.099
31.7964
28.7843
26.0386
23.5299
21.2354
19.1343
17.2079
15.439
13.811
12.3118
10.9339
9.66355
8.49481
7.4231
6.43932
5.53322
4.70184
3.93942
3.2454
2.6169
2.05317
1.55011
1.10204
0.703268
0.356072
0.0635913
-0.181559
-0.38347
-0.537073
-0.638987
-3291.58
-3310.55
-3317.66
-3340.41
-3323.38
-3300.44
-3358.94
-3366.6
-3330.27
-3853.31
-79.0198
-87.2124
-75.7377
-45.7509
-14.6507
-1.29739
4.51012
13.2641
25.3591
37.1637
45.7851
50.2688
51.1562
49.5763
46.5928
42.9609
39.134
35.3579
31.7573
28.3868
25.2629
22.3847
19.7408
17.3111
15.0778
13.0243
11.135
9.39538
7.79069
6.31029
4.9471
3.68935
2.53085
1.46715
0.489753
-0.410882
-1.23804
-1.99698
-2.68822
-3.31385
-3.8754
-4.37694
-4.82456
-5.22241
-5.56825
-5.86058
-6.10653
-6.30877
-6.46179
-6.56364
-3293.78
-3311.67
-3328.47
-3355.78
-3342.07
-3336.99
-3350.72
-3340.79
-3305.01
-4011.56
-157.634
-97.457
-77.3144
-57.5332
-32.1509
-15.1378
-5.21317
3.93195
14.2822
24.4434
32.4796
37.3936
39.292
38.8684
36.9333
34.1537
30.9842
27.7026
24.4704
21.3755
18.459
15.7386
13.2164
10.882
8.72348
6.72873
4.88606
3.1838
1.60933
0.153153
-1.19045
-2.43168
-3.57655
-4.62934
-5.59785
-6.4907
-7.3116
-8.06513
-8.75182
-9.37349
-9.93189
-10.4313
-10.8778
-11.2738
-11.6177
-11.9099
-12.1558
-12.3578
-12.5104
-12.612
-3290.89
-3303.3
-3330.26
-3360.81
-3354.95
-3325.31
-3325.97
-3318.96
-3255.56
-3928.96
-363.257
-94.3177
-81.2931
-65.9201
-44.4171
-27.3562
-15.5733
-5.92134
3.51983
12.5078
19.9279
24.9795
27.5535
28.0341
27.0034
25.0138
22.4875
19.7113
16.8692
14.0742
11.3884
8.84658
6.46409
4.24014
2.16893
0.244185
-1.54245
-3.1993
-4.73666
-6.16274
-7.4823
-8.70291
-9.83063
-10.8694
-11.8265
-12.7094
-13.522
-14.2682
-14.9486
-15.5649
-16.1192
-16.6157
-17.0604
-17.4541
-17.7957
-18.0868
-18.3319
-18.5332
-18.6852
-18.7868
-3294.17
-3313.14
-3331.28
-3345.38
-3350.62
-3327.03
-3323.13
-3318.53
-3295.7
-1945.47
-628.355
-61.59
-88.1912
-72.1911
-53.2829
-37.6371
-25.6112
-15.8459
-7.00303
1.13246
7.99792
13.0196
16.0173
17.1792
16.9001
15.6154
13.6965
11.4189
8.9753
6.49565
4.05796
1.71192
-0.515582
-2.61547
-4.58736
-6.43188
-8.15335
-9.75696
-11.2502
-12.6408
-13.9313
-15.1273
-16.2345
-17.2562
-18.199
-19.0695
-19.8722
-20.6093
-21.282
-21.8914
-22.4402
-22.9329
-23.3748
-23.7662
-24.1048
-24.394
-24.6377
-24.8375
-24.9884
-25.0897
-3298.31
-3304.22
-3315.5
-3322.85
-3342.53
-3327.67
-3326.33
-3331.21
-3340.78
-2638.13
-867.915
-137.132
-97.5083
-77.228
-60.2136
-46.282
-34.9349
-25.5253
-17.2478
-9.78919
-3.41617
1.4808
4.72071
6.37633
6.70164
6.02668
4.66287
2.86205
0.813566
-1.34423
-3.52245
-5.66012
-7.71993
-9.68409
-11.5461
-13.301
-14.9489
-16.4917
-17.9349
-19.2837
-20.5402
-21.7075
-22.7908
-23.7924
-24.7182
-25.5742
-26.3649
-27.0915
-27.7548
-28.3559
-28.8981
-29.3859
-29.8239
-30.2121
-30.5474
-30.8341
-31.076
-31.2738
-31.4226
-31.5229
-3300.96
-3293.43
-3306.8
-3316.3
-3326.54
-3323.87
-3325.42
-3330.83
-3349.26
-3040.5
-252.883
-93.5354
-89.7657
-79.3997
-65.6538
-53.6225
-43.4532
-34.771
-27.1471
-20.3076
-14.3908
-9.67759
-6.32705
-4.33002
-3.53284
-3.69494
-4.5649
-5.92238
-7.58919
-9.427
-11.3406
-13.2618
-15.1445
-16.9637
-18.7067
-20.3633
-21.9302
-23.4057
-24.7928
-26.0947
-27.3121
-28.4467
-29.5023
-30.4808
-31.3869
-32.2262
-33.0028
-33.7172
-34.3696
-34.9613
-35.4958
-35.9777
-36.4107
-36.7939
-37.1254
-37.4095
-37.6491
-37.844
-37.9906
-38.0897
-3310.55
-3306.34
-3307.88
-3319.91
-3316.41
-3321.13
-3322.76
-3325.98
-3314.69
-3864.2
-49.653
-52.1953
-76.4805
-77.6963
-69.1952
-59.7739
-51.1903
-43.5196
-36.6652
-30.4507
-24.9846
-20.4985
-17.1323
-14.915
-13.7616
-13.5036
-13.9449
-14.8996
-16.2066
-17.7332
-19.3833
-21.0842
-22.7837
-24.4509
-26.0674
-27.6188
-29.0978
-30.5003
-31.826
-33.0762
-34.2499
-35.3477
-36.3718
-37.324
-38.2081
-39.0284
-39.7886
-40.4891
-41.1291
-41.7103
-42.2361
-42.711
-43.1374
-43.5148
-43.8418
-44.1226
-44.359
-44.5507
-44.6955
-44.7932
-3322.08
-3332.33
-3316.29
-3320.93
-3319.31
-3320.9
-3319.65
-3318.68
-3316.6
-3652.08
28.2778
-32.2422
-62.4014
-73.3695
-70.8995
-64.878
-58.2487
-51.8009
-45.8119
-40.2502
-35.2467
-31.0223
-27.7129
-25.3702
-23.9577
-23.3641
-23.4413
-24.0377
-25.0129
-26.2436
-27.6359
-29.1167
-30.6301
-32.1409
-33.6257
-35.0664
-36.4519
-37.7761
-39.0359
-40.2299
-41.356
-42.4131
-43.4022
-44.3251
-45.1844
-45.9833
-46.7251
-47.4097
-48.0357
-48.6056
-49.1217
-49.5879
-50.0067
-50.3775
-50.6992
-50.9755
-51.2084
-51.3968
-51.5397
-51.6365
-3344.9
-3346.18
-3338.23
-3328.42
-3327.43
-3326.45
-3322.51
-3318.69
-3322.46
-3308.38
-476.47
-48.8518
-60.7571
-70.0339
-72.0596
-69.4233
-64.8494
-59.7201
-54.6455
-49.7534
-45.225
-41.291
-38.0919
-35.6976
-34.1069
-33.2521
-33.026
-33.3103
-33.9845
-34.9387
-36.084
-37.3487
-38.6763
-40.0285
-41.3784
-42.7044
-43.9922
-45.2338
-46.4233
-47.5575
-48.6321
-49.6449
-50.5962
-51.4867
-52.3184
-53.0935
-53.8149
-54.4817
-55.0923
-55.6493
-56.1543
-56.6109
-57.0211
-57.3843
-57.7
-57.9711
-58.2005
-58.3858
-58.5261
-58.6213
-3374.82
-3364.91
-3357.49
-3348.06
-3342.55
-3339.46
-3334.34
-3330.74
-3321.56
-3847
-483.034
-94.0957
-69.4781
-71.4731
-74.6161
-74.1517
-71.3131
-67.4362
-63.2569
-59.0244
-54.9735
-51.3481
-48.2982
-45.9088
-44.2041
-43.1514
-42.6784
-42.6947
-43.1007
-43.8009
-44.713
-45.7692
-46.914
-48.1083
-49.3215
-50.5302
-51.7173
-52.8727
-53.9886
-55.0594
-56.0792
-57.0449
-57.9554
-58.811
-59.6124
-60.3616
-61.0605
-61.7076
-62.3012
-62.8433
-63.3361
-63.7825
-64.1831
-64.5378
-64.8467
-65.1124
-65.338
-65.5197
-65.6572
-65.7507
-3393.44
-3383.09
-3380.73
-3373.97
-3363.74
-3359.45
-3350.81
-3342.61
-3331.41
-3894.04
-4.71428
-75.3843
-73.6923
-76.6384
-79.2359
-79.6186
-77.9614
-75.1344
-71.7618
-68.1442
-64.5538
-61.2409
-58.3637
-56.0196
-54.2524
-53.0555
-52.3844
-52.1742
-52.3448
-52.8147
-53.5099
-54.3683
-55.3362
-56.3746
-57.4517
-58.5419
-59.6261
-60.6928
-61.7321
-62.7362
-63.6986
-64.6146
-65.4818
-66.3001
-67.0693
-67.7903
-68.4645
-69.0901
-69.665
-70.1908
-70.67
-71.105
-71.4954
-71.8409
-72.1428
-72.4031
-72.6236
-72.8012
-72.9361
-73.0278
-3404.17
-3404.19
-3405.9
-3404.56
-3395.55
-3387.42
-3372.66
-3359.41
-3354.63
-3695.72
-217.738
-53.6887
-72.4774
-81.3083
-85.0738
-85.9344
-85.031
-82.994
-80.2845
-77.1985
-74.0298
-71.0171
-68.3223
-66.0508
-64.2591
-62.9608
-62.1347
-61.7356
-61.7017
-61.9654
-62.4619
-63.1348
-63.9338
-64.8208
-65.7635
-66.7352
-67.7157
-68.692
-69.6523
-70.5874
-71.4899
-72.3539
-73.1759
-73.9546
-74.6894
-75.3804
-76.028
-76.6305
-77.1852
-77.6936
-78.1583
-78.5802
-78.9595
-79.2958
-79.59
-79.8444
-80.0591
-80.2323
-80.3646
-80.4546
-3409.34
-3418.31
-3426.21
-3432.64
-3431.97
-3416.65
-3399
-3381.98
-3366.38
-3975.29
-355.019
-95.5943
-84.4579
-88.2766
-91.9889
-93.1609
-92.6968
-91.172
-88.9377
-86.2768
-83.4689
-80.7287
-78.2123
-76.0268
-74.2376
-72.8727
-71.9269
-71.3723
-71.1627
-71.2438
-71.56
-72.061
-72.7006
-73.4424
-74.2538
-75.1082
-75.9851
-76.8702
-77.7499
-78.6142
-79.4547
-80.2645
-81.0393
-81.7768
-82.4757
-83.1349
-83.7546
-84.3322
-84.8654
-85.3555
-85.8045
-86.2123
-86.5797
-86.9062
-87.192
-87.4394
-87.6485
-87.8175
-87.9465
-88.0343
-3413.82
-3424.18
-3434.75
-3446.23
-3450.87
-3439.74
-3421.37
-3402.33
-3383.35
-4152.9
-327.856
-117.232
-101.256
-99.3098
-100.852
-101.543
-101.101
-99.7715
-97.8086
-95.4548
-92.9318
-90.4223
-88.0677
-85.9715
-84.2023
-82.7959
-81.7597
-81.0784
-80.7193
-80.64
-80.7938
-81.1368
-81.6276
-82.2312
-82.9159
-83.6557
-84.4301
-85.2237
-86.0224
-86.8148
-87.5919
-88.3456
-89.0718
-89.7666
-90.428
-91.0544
-91.6446
-92.1962
-92.707
-93.1775
-93.6097
-94.003
-94.3578
-94.6732
-94.9498
-95.1899
-95.393
-95.5577
-95.683
-95.7685
-3407.77
-3421.35
-3431.32
-3443.58
-3452.72
-3447.96
-3432.35
-3415.33
-3397.57
-4311.85
-345.358
-132.781
-117.222
-112.485
-111.659
-111.179
-110.274
-108.842
-106.968
-104.794
-102.471
-100.142
-97.9244
-95.9124
-94.1716
-92.7418
-91.6379
-90.8542
-90.3688
-90.1496
-90.1582
-90.3573
-90.7095
-91.1826
-91.7462
-92.375
-93.0489
-93.7519
-94.4697
-95.1896
-95.9024
-96.5994
-97.2755
-97.9262
-98.5489
-99.1411
-99.701
-100.226
-100.713
-101.163
-101.578
-101.956
-102.297
-102.601
-102.868
-103.1
-103.296
-103.456
-103.577
-103.661
-3398.67
-3411.76
-3418.97
-3428.66
-3438.98
-3439.29
-3429.78
-3418.2
-3403.94
-4485.77
-336.703
-159.746
-134.765
-126.994
-123.769
-121.823
-120.149
-118.392
-116.445
-114.33
-112.125
-109.922
-107.812
-105.872
-104.161
-102.72
-101.565
-100.699
-100.108
-99.7675
-99.6472
-99.7154
-99.9396
-100.29
-100.739
-101.261
-101.838
-102.452
-103.089
-103.737
-104.385
-105.025
-105.65
-106.256
-106.839
-107.396
-107.925
-108.422
-108.885
-109.314
-109.71
-110.072
-110.399
-110.69
-110.948
-111.171
-111.36
-111.514
-111.632
-111.713
-3389.31
-3400.16
-3404.06
-3410.02
-3418.51
-3421.47
-3418.39
-3414.28
-3407.1
-4594.78
-237.501
-180.919
-152.645
-142.033
-136.563
-133.131
-130.583
-128.369
-126.23
-124.079
-121.918
-119.791
-117.756
-115.872
-114.19
-112.742
-111.55
-110.617
-109.937
-109.492
-109.258
-109.208
-109.314
-109.551
-109.891
-110.312
-110.795
-111.322
-111.881
-112.457
-113.041
-113.623
-114.197
-114.758
-115.3
-115.821
-116.318
-116.786
-117.224
-117.632
-118.009
-118.354
-118.666
-118.946
-119.192
-119.407
-119.588
-119.736
-119.849
-119.927
-3381.03
-3389.5
-3391.5
-3396.1
-3402.72
-3405.9
-3406.58
-3408
-3412.33
-4477.08
-163.156
-185.843
-167.397
-156.149
-149.317
-144.712
-141.37
-138.676
-136.286
-134.033
-131.859
-129.764
-127.775
-125.932
-124.27
-122.819
-121.597
-120.61
-119.856
-119.321
-118.987
-118.831
-118.83
-118.96
-119.198
-119.523
-119.916
-120.361
-120.842
-121.348
-121.869
-122.394
-122.917
-123.431
-123.933
-124.418
-124.881
-125.321
-125.734
-126.119
-126.476
-126.803
-127.101
-127.368
-127.603
-127.808
-127.981
-128.122
-128.231
-128.305
-3374.23
-3379.67
-3381.22
-3387.51
-3394.06
-3397.09
-3399.15
-3402.39
-3418.11
-4287.24
-185.544
-181.213
-177.512
-168.427
-161.396
-156.189
-152.291
-149.192
-146.551
-144.167
-141.945
-139.849
-137.882
-136.063
-134.414
-132.96
-131.714
-130.683
-129.867
-129.254
-128.832
-128.582
-128.483
-128.515
-128.659
-128.893
-129.201
-129.565
-129.973
-130.41
-130.869
-131.337
-131.809
-132.278
-132.739
-133.187
-133.617
-134.028
-134.414
-134.777
-135.113
-135.423
-135.706
-135.959
-136.183
-136.377
-136.542
-136.676
-136.78
-136.852
-3370.46
-3372.13
-3372.95
-3381.52
-3391.57
-3394.12
-3397.06
-3397.36
-3528.02
-4015.48
-218.097
-183.198
-184.999
-178.865
-172.536
-167.308
-163.161
-159.798
-156.956
-154.446
-152.161
-150.045
-148.083
-146.275
-144.634
-143.175
-141.909
-140.841
-139.972
-139.294
-138.795
-138.461
-138.274
-138.217
-138.272
-138.421
-138.648
-138.936
-139.272
-139.644
-140.041
-140.454
-140.876
-141.3
-141.72
-142.13
-142.528
-142.909
-143.269
-143.608
-143.924
-144.217
-144.483
-144.722
-144.934
-145.118
-145.274
-145.402
-145.501
-145.57
-3370.6
-3371.02
-3370.74
-3390.3
-3391.31
-3394.23
-3398.23
-3397.18
-4130.02
-3576.24
-244.512
-186.907
-192.176
-188.142
-182.849
-177.984
-173.863
-170.397
-167.432
-164.828
-162.486
-160.345
-158.377
-156.573
-154.935
-153.47
-152.186
-151.088
-150.174
-149.439
-148.874
-148.465
-148.2
-148.062
-148.036
-148.106
-148.256
-148.471
-148.74
-149.048
-149.386
-149.744
-150.117
-150.496
-150.875
-151.25
-151.614
-151.965
-152.298
-152.614
-152.909
-153.184
-153.434
-153.659
-153.859
-154.033
-154.18
-154.3
-154.394
-154.46
-3373.41
-3376.14
-3380.9
-3395.62
-3394.86
-3396.98
-3401.55
-3382.1
-4805.52
-3082.45
-250.974
-200.204
-200.186
-197.016
-192.609
-188.263
-184.352
-180.924
-177.927
-175.277
-172.897
-170.737
-168.762
-166.958
-165.32
-163.85
-162.551
-161.427
-160.475
-159.691
-159.068
-158.594
-158.259
-158.048
-157.949
-157.945
-158.024
-158.17
-158.373
-158.621
-158.902
-159.208
-159.532
-159.868
-160.207
-160.545
-160.876
-161.198
-161.505
-161.797
-162.071
-162.327
-162.561
-162.772
-162.959
-163.122
-163.261
-163.375
-163.464
-163.527
-3373.91
-3382.61
-3393.4
-3399.04
-3401.41
-3403.78
-3406.57
-3430.37
-4604.22
-2488.14
-226.517
-215.982
-208.66
-205.765
-202.032
-198.234
-194.638
-191.355
-188.406
-185.761
-183.375
-181.208
-179.232
-177.429
-175.791
-174.317
-173.006
-171.86
-170.876
-170.051
-169.378
-168.847
-168.451
-168.175
-168.009
-167.938
-167.95
-168.032
-168.174
-168.363
-168.59
-168.846
-169.124
-169.416
-169.716
-170.018
-170.316
-170.608
-170.889
-171.157
-171.411
-171.647
-171.865
-172.062
-172.236
-172.389
-172.52
-172.627
-172.712
-172.772
-3367.34
-3383.85
-3397.2
-3403.44
-3407.35
-3409.71
-3406.46
-3793.7
-4424.81
-1697.11
-223.111
-219.878
-216.6
-214.236
-211.227
-207.991
-204.761
-201.693
-198.857
-196.265
-193.904
-191.75
-189.783
-187.986
-186.351
-184.875
-183.556
-182.392
-181.382
-180.522
-179.806
-179.227
-178.776
-178.443
-178.217
-178.085
-178.036
-178.058
-178.142
-178.275
-178.451
-178.658
-178.892
-179.143
-179.404
-179.67
-179.936
-180.199
-180.454
-180.698
-180.931
-181.149
-181.35
-181.532
-181.695
-181.837
-181.96
-182.061
-182.141
-182.198
-3352.52
-3375.67
-3390.76
-3401.39
-3408.52
-3411.79
-3389.6
-4772.92
-4042.86
-628.141
-251.511
-227.527
-224.482
-222.594
-220.324
-217.63
-214.778
-211.96
-209.281
-206.783
-204.476
-202.354
-200.407
-198.625
-196.998
-195.525
-194.2
-193.024
-191.993
-191.104
-190.352
-189.731
-189.233
-188.849
-188.57
-188.383
-188.278
-188.246
-188.275
-188.357
-188.482
-188.644
-188.835
-189.046
-189.27
-189.502
-189.736
-189.97
-190.199
-190.421
-190.632
-190.832
-191.016
-191.184
-191.335
-191.468
-191.582
-191.677
-191.753
-191.806
-3331.99
-3360.11
-3378.29
-3393.09
-3402.33
-3406.04
-3548.05
-4577
-3729.06
-325.738
-239.379
-237.341
-232.836
-231.223
-229.497
-227.255
-224.755
-222.197
-219.698
-217.32
-215.09
-213.019
-211.106
-209.347
-207.735
-206.269
-204.944
-203.759
-202.712
-201.8
-201.019
-200.362
-199.824
-199.395
-199.069
-198.833
-198.678
-198.595
-198.575
-198.608
-198.687
-198.805
-198.954
-199.128
-199.316
-199.515
-199.719
-199.925
-200.128
-200.327
-200.518
-200.699
-200.867
-201.022
-201.161
-201.284
-201.39
-201.479
-201.55
-201.6
-3311.12
-3339.12
-3359.51
-3378.08
-3390.32
-3380.73
-4560.1
-4259.24
-3143.8
-287.382
-250.365
-246.296
-241.877
-240.278
-238.879
-236.965
-234.765
-232.452
-230.136
-227.89
-225.753
-223.747
-221.88
-220.153
-218.563
-217.108
-215.788
-214.601
-213.544
-212.615
-211.809
-211.123
-210.55
-210.083
-209.714
-209.434
-209.235
-209.107
-209.041
-209.029
-209.065
-209.142
-209.252
-209.388
-209.543
-209.711
-209.886
-210.064
-210.243
-210.419
-210.589
-210.752
-210.905
-211.047
-211.175
-211.288
-211.387
-211.469
-211.534
-211.582
-3300.44
-3318
-3337.22
-3357.46
-3379.63
-3656.57
-4343.48
-4063.54
-1906.87
-272.046
-262.271
-256.221
-251.809
-249.912
-248.58
-246.857
-244.881
-242.772
-240.627
-238.513
-236.476
-234.544
-232.732
-231.044
-229.482
-228.046
-226.736
-225.551
-224.489
-223.549
-222.725
-222.016
-221.413
-220.913
-220.508
-220.189
-219.949
-219.78
-219.673
-219.621
-219.617
-219.655
-219.728
-219.83
-219.952
-220.09
-220.237
-220.39
-220.545
-220.699
-220.85
-220.995
-221.133
-221.262
-221.379
-221.483
-221.574
-221.649
-221.71
-221.754
-3306.21
-3303.78
-3317.73
-3333.12
-3390.82
-4333.73
-3996.93
-3966.82
-498.669
-282.756
-272.773
-266.771
-262.484
-260.233
-258.708
-257.018
-255.166
-253.205
-251.2
-249.207
-247.27
-245.417
-243.664
-242.022
-240.495
-239.083
-237.788
-236.611
-235.549
-234.603
-233.768
-233.04
-232.414
-231.886
-231.45
-231.097
-230.821
-230.615
-230.471
-230.382
-230.342
-230.344
-230.383
-230.451
-230.543
-230.651
-230.772
-230.901
-231.034
-231.167
-231.299
-231.428
-231.551
-231.667
-231.773
-231.868
-231.951
-232.021
-232.077
-232.118
-3328.22
-3303.06
-3309.49
-3323.78
-4109.07
-3785.46
-4049.39
-3380.92
-294.696
-287.443
-283.011
-277.544
-273.664
-271.144
-269.294
-267.498
-265.666
-263.787
-261.886
-259.996
-258.151
-256.375
-254.687
-253.095
-251.606
-250.224
-248.95
-247.785
-246.73
-245.783
-244.94
-244.2
-243.557
-243.006
-242.543
-242.162
-241.856
-241.617
-241.439
-241.317
-241.244
-241.213
-241.22
-241.258
-241.32
-241.401
-241.496
-241.602
-241.713
-241.828
-241.943
-242.055
-242.165
-242.268
-242.363
-242.449
-242.524
-242.589
-242.641
-242.679
-3396.52
-3317.81
-3325.62
-4046.75
-3582.11
-3940.79
-4312.15
-1357.16
-317.989
-297.87
-293.098
-288.515
-285.13
-282.421
-280.261
-278.283
-276.39
-274.535
-272.699
-270.892
-269.128
-267.428
-265.804
-264.266
-262.82
-261.472
-260.223
-259.077
-258.032
-257.089
-256.245
-255.497
-254.841
-254.273
-253.789
-253.384
-253.051
-252.784
-252.578
-252.425
-252.322
-252.262
-252.239
-252.249
-252.284
-252.339
-252.41
-252.493
-252.584
-252.681
-252.78
-252.878
-252.973
-253.064
-253.149
-253.227
-253.295
-253.354
-253.402
-253.438
-5753.6
-3712.53
-3736.88
-3212.3
-3640.13
-4279.57
-4088.7
-338.664
-308.527
-308.091
-303.045
-299.59
-296.451
-293.739
-291.451
-289.294
-287.308
-285.444
-283.649
-281.906
-280.214
-278.584
-277.023
-275.54
-274.141
-272.83
-271.611
-270.487
-269.458
-268.523
-267.682
-266.931
-266.268
-265.688
-265.189
-264.764
-264.409
-264.118
-263.887
-263.708
-263.578
-263.492
-263.442
-263.426
-263.436
-263.467
-263.515
-263.577
-263.649
-263.728
-263.812
-263.896
-263.979
-264.059
-264.134
-264.203
-264.264
-264.318
-264.362
-264.395
116179
121284
121301
121307
121287
121228
121120
120948
120698
120352
119887
119278
118488
117466
116133
114361
111901
108201
101594
88155.6
106020
111114
111131
111138
111119
111061
110950
110772
110510
110142
109643
108980
108108
106965
105451
103408
100546
96314.8
89656.1
79545.8
95887.2
100969
100989
100999
100983
100930
100823
100648
100383
100007
99491.1
98798.3
97881.2
96672.9
95075.6
92940.5
90034.1
85996.9
80332.3
72654.5
85781.4
90851.3
90874.5
90889.9
90882.6
90838.8
90743.3
90578.1
90322.2
89950.8
89433.9
88734.6
87805.7
86583.5
84981
82876.5
80102.5
76444.3
71682.1
65758
75704.1
80763.1
80791.2
80814.4
80818.6
80789.8
80711.4
80564
80324.9
79968.3
79464.3
78777
77862.1
76663.3
75107.5
73101.5
70531.7
67276.7
63250
58496.7
65656.2
70705.8
70740.5
70773.8
70793
70783.4
70727
70602.5
70385.7
70050.5
69567.8
68904.4
68020.5
66867.9
65387.8
63511.3
61163.5
58278.4
54830.3
50887
55637.8
60681.5
60724.5
60770
60806.7
60819.3
60787.7
60688.2
60495.5
60183.6
59725.4
59091.2
58246.8
57152
55760.6
54022.6
51889.9
49328.3
46338.5
42982.7
45650.6
50693.7
50746.8
50805.7
50861.2
50897.2
50890.6
50814.9
50643.7
50351.9
49915.9
49310.6
48507.7
47474.4
46174.5
44571.9
42636.7
40353.2
37731.6
34821.2
35705.2
40750.5
40812.9
40884.6
40959.3
41018.5
41034.9
40978.1
40820.7
40540.5
40119
39537.8
38774.4
37801.7
36590.1
35113.1
33353.6
31307.8
28988.5
26428.2
25840.5
30864.1
30923.7
31006.9
31104.4
31188.8
31225.1
31178.8
31021.8
30737.4
30317.2
29751.6
29023.7
28109.1
26980.1
25614.4
24005.7
22162.4
20102.5
17828.3
16319.4
21014.3
21044.9
21161
21304.9
21424.6
21478.9
21430.8
21251.8
20937.2
20497.1
19936.3
19241.5
18386.1
17336.6
16065
14577.9
12902.4
11100.7
9088.89
8054.85
10850.2
11006.9
11302.7
11567.7
11746.3
11819.5
11755.5
11512.9
11115.5
10616.1
10046.5
9387.81
8604.48
7626.53
6382.49
4923.15
3303.73
1659.6
109.171
-569.16
434.708
1376.58
1978.21
2299.48
2470.17
2496.45
2373.74
1973.93
1415.42
821.421
265.656
-334.401
-1071.42
-1567.03
-2196.48
-2426.05
-1929.52
-1437.41
-869.581
-450.657
-434.02
-429.46
-430.622
-434.066
-436.057
-441.611
-448.594
-457.396
-459.785
-455.467
-455.168
-458.101
-459.247
-460.995
-466.828
-464.762
-421.282
-421.193
-423.554
-448.937
-441.651
-437.986
-436.764
-437.331
-437.078
-436.471
-436.102
-436.391
-437.154
-438.59
-439.425
-439.892
-440.211
-440.623
-441.338
-441.044
-441.746
-443.447
-443.367
-455.37
-450.763
-448.501
-447.354
-447.054
-447.098
-447.147
-447.235
-447.444
-447.747
-448.177
-448.654
-449.129
-449.588
-450.078
-450.597
-450.828
-450.973
-451.523
-451.927
-464.056
-459.403
-458.374
-457.626
-457.242
-457.091
-457.054
-457.101
-457.243
-457.475
-457.789
-458.148
-458.515
-458.884
-459.262
-459.636
-459.95
-460.269
-460.66
-461.022
-473.182
-468.333
-467.849
-467.399
-467.093
-466.925
-466.86
-466.876
-466.97
-467.135
-467.365
-467.637
-467.931
-468.232
-468.538
-468.845
-469.14
-469.438
-469.747
-470.04
-482.453
-477.424
-477.191
-476.925
-476.714
-476.578
-476.513
-476.512
-476.573
-476.689
-476.856
-477.06
-477.287
-477.528
-477.774
-478.02
-478.264
-478.506
-478.744
-478.97
-491.81
-486.601
-486.486
-486.326
-486.191
-486.097
-486.048
-486.044
-486.084
-486.165
-486.281
-486.426
-486.592
-486.771
-486.956
-487.143
-487.327
-487.508
-487.683
-487.849
-501.271
-495.842
-495.775
-495.673
-495.591
-495.534
-495.504
-495.503
-495.529
-495.582
-495.658
-495.753
-495.863
-495.984
-496.11
-496.238
-496.364
-496.488
-496.607
-496.72
-510.926
-505.122
-505.063
-504.996
-504.953
-504.926
-504.913
-504.914
-504.929
-504.959
-505.001
-505.055
-505.116
-505.184
-505.255
-505.327
-505.399
-505.468
-505.534
-505.596
-521.43
-514.387
-514.33
-514.305
-514.299
-514.296
-514.295
-514.296
-514.301
-514.31
-514.323
-514.34
-514.359
-514.38
-514.401
-514.422
-514.441
-514.458
-514.472
-514.483
-536.136
-523.282
-523.526
-523.604
-523.655
-523.68
-523.691
-523.691
-523.684
-523.67
-523.651
-523.628
-523.601
-523.571
-523.537
-523.501
-523.461
-523.419
-523.374
-523.328
26735.1
41420.1
52724.7
61904.8
67655.5
70495
72007.1
72570.8
72287.4
71114.3
68920
65453.7
60192.3
51773.3
35893.6
61116.8
48986.2
50523.3
54181.7
57304.8
59262.6
60294.7
60466.6
59795
58220
55608.1
51723.3
46149.3
38148.6
26718.3
62516
53765.1
50276.1
49918.3
50412.8
50819.4
50800.6
50200.4
48916
46840.3
43840.7
39744.4
34333.1
27388.4
18929.4
58855.9
52229.7
47918.4
45582.3
44301.7
43382.1
42396.8
41086.5
39277.2
36831.8
33627.8
29555
24536
18592.6
11987
53189.4
47808.5
43540.5
40446
38177.7
36339.4
34600.6
32710.9
30482.3
27770.2
24463.9
20491.3
15843.1
10612.1
4998.3
46550.4
41981.5
37960.9
34622.1
31855.8
29454.4
27196.4
24881.2
22340.8
19441.3
16085.2
12214.8
7788.86
2805.05
-1698.32
39307.8
35333.4
31615.6
28278.9
25309.6
22608.6
20037.9
17448.7
14705.8
11694.6
8299.68
4403.53
362.145
-1171.38
-464.973
31635.3
28132.1
24731.8
21527
18535.2
15723.7
13016.6
10298.5
7437.69
4284.22
1000.8
-841.153
-543.901
-393.178
-380.25
23619.6
20511.9
17438.7
14443.3
11541.6
8756.82
6033.87
3189.36
370.08
-1108.78
-512.809
-401.001
-387.617
-392.316
-393.675
15304.7
12549.8
9839.38
7109.35
4257.32
1390.4
-969.044
-1838.85
-603.27
-408.38
-395.989
-401.375
-402.734
-402.125
-401.884
6643.21
4129.64
1753
-613.541
-2711.87
-1992.92
-726.319
-415.287
-402.295
-408.953
-410.949
-410.97
-410.826
-410.673
-410.549
-2587.54
-3470.59
-2563.48
-1042.37
-501.318
-424.615
-407.942
-415.826
-418.457
-418.894
-419.189
-419.418
-419.483
-419.402
-419.22
-565.238
-477.705
-432.885
-417.202
-422.169
-426.298
-427.031