/*--------------------------------*- C++ -*----------------------------------*\
| =========                 |                                                 |
| \\      /  F ield         | OpenFOAM: The Open Source CFD Toolbox           |
|  \\    /   O peration     | Version:  v1912                                 |
|   \\  /    A nd           | Website:  www.openfoam.com                      |
|    \\/     M anipulation  |                                                 |
\*---------------------------------------------------------------------------*/
FoamFile
{
    version     2.0;
    format      ascii;
    class       volScalarField;
    location    "8";
    object      p_rgh;
}
// * * * * * * * * * * * * * * * * * * * * * * * * * * * * * * * * * * * * * //

dimensions      [1 -1 -2 0 0 0 0];


internalField   nonuniform List<scalar> 
20320
(
426629
426704
426736
426786
426843
426916
426998
427088
427182
427281
427399
427545
427723
427924
428121
428275
428350
428355
428335
428326
426549
426637
426677
426729
426793
426871
426964
427065
427169
427280
427414
427577
427767
427966
428151
428289
428358
428364
428353
428420
426376
426496
426539
426596
426665
426752
426847
426946
427053
427171
427303
427451
427612
427775
427925
428045
428130
428192
428279
428463
426127
426284
426329
426389
426462
426549
426641
426738
426842
426955
427077
427208
427344
427480
427608
427723
427827
427935
428081
428314
425809
426001
426046
426107
426182
426266
426353
426446
426545
426651
426762
426878
426997
427116
427233
427347
427464
427597
427773
428022
425428
425650
425696
425757
425831
425910
425993
426081
426173
426270
426372
426477
426584
426693
426803
426918
427043
427190
427381
427639
424990
425239
425285
425345
425417
425491
425570
425651
425737
425826
425919
426014
426112
426214
426320
426435
426565
426722
426923
427191
424505
424776
424821
424882
424950
425020
425093
425168
425247
425327
425411
425497
425587
425682
425784
425899
426033
426197
426410
426688
423983
424272
424317
424376
424439
424504
424571
424640
424710
424781
424854
424931
425011
425099
425197
425310
425447
425619
425842
426136
423433
423734
423780
423836
423895
423955
424014
424074
424134
424193
424254
424318
424387
424465
424556
424667
424805
424984
425220
425532
422865
423175
423220
423273
423326
423379
423430
423478
423525
423570
423615
423662
423716
423780
423859
423964
424101
424286
424538
424873
422289
422603
422647
422695
422742
422786
422826
422860
422890
422916
422940
422965
422996
423039
423101
423193
423326
423516
423784
424149
421713
422027
422067
422110
422150
422184
422210
422227
422236
422237
422232
422227
422226
422238
422273
422343
422464
422655
422942
423345
421144
421453
421490
421527
421558
421580
421590
421586
421569
421538
421498
421451
421406
421373
421364
421396
421493
421678
421984
422435
420589
420890
420923
420953
420975
420984
420975
420947
420899
420830
420743
420643
420537
420437
420361
420332
420379
420541
420865
421378
420055
420344
420372
420397
420409
420403
420374
420319
420235
420121
419978
419810
419623
419432
419255
419122
419078
419180
419504
420098
419547
419820
419845
419863
419866
419846
419796
419712
419590
419426
419218
418967
418679
418363
418039
417742
417530
417491
417757
418439
419068
419324
419345
419359
419353
419319
419250
419138
418977
418760
418482
418138
417728
417253
416727
416178
415668
415316
415345
416039
418622
418860
418879
418888
418875
418830
418743
418606
418408
418140
417792
417351
416806
416146
415364
414459
413461
412463
411735
411876
418211
418430
418447
418454
418436
418383
418282
418124
417896
417584
417171
416639
415962
415109
414040
412696
410997
408836
406071
403162
-2564.2
-2901.74
-2781.9
-2083.65
-2859.66
145.202
7605.08
1031.34
102654
135598
23995.6
4240.88
3107.9
4930.4
899.455
1374.57
795.491
109.453
187.232
187.492
160.044
139.346
124.18
112.563
103.327
95.7527
89.395
83.9672
79.2767
75.1773
71.5595
68.3421
65.4606
62.8629
60.5134
58.3816
56.4405
54.6679
53.0453
51.5578
50.192
48.9355
47.7828
46.7279
45.7607
44.8736
44.0591
43.314
42.6353
42.0206
41.4685
40.9778
40.5419
40.1546
39.8155
39.5284
39.2905
39.0958
38.9467
38.8491
-2434.86
-2991.85
-1970.75
-1549.04
-3153.05
-3071.18
58.3816
-2325.78
15760.1
33409.9
2058.32
498.554
271.171
198.125
87.14
50.1043
68.6776
105.329
154.762
175.784
158.624
139.968
125.103
113.45
104.112
96.4316
89.9793
84.4708
79.7123
75.5553
71.8883
68.6286
65.7111
63.0819
60.7049
58.5493
56.5874
54.7963
53.1573
51.6553
50.2768
49.0086
47.8452
46.781
45.8058
44.9113
44.09
43.3389
42.6549
42.0353
41.4786
40.9842
40.5453
40.1549
39.813
39.5241
39.285
39.0887
38.938
38.8399
-2025.47
-3146.43
-3220.92
-2858.82
-3120.13
-3175.1
-2972.31
1533.45
11668.4
2149.98
1456.46
672.254
353.223
231.908
75.5976
29.201
42.5777
83.2766
133.416
158.133
151.749
137.709
124.454
113.396
104.284
96.6837
90.2519
84.7374
79.9624
75.7843
72.0952
68.8136
65.8754
63.2271
60.8327
58.6612
56.685
54.881
53.2301
51.7173
50.3293
49.0522
47.8805
46.8091
45.8274
44.9268
44.0999
43.3438
42.6555
42.0317
41.4713
40.9737
40.5322
40.1389
39.7946
39.5046
39.2645
39.0668
38.9147
38.8154
-2997.25
-3149.19
-3224.27
-3252.65
-3188.44
-3207.56
-3038.46
-672.696
8676.69
1431.68
1522.71
696.33
286.327
175.561
79.2983
21.9601
29.6464
71.0333
116.38
140.561
141.704
132.902
122.177
112.308
103.764
96.4502
90.1688
84.7352
80.0027
75.8453
72.1646
68.8842
65.9436
63.2904
60.8896
58.7111
56.7281
54.9174
53.2593
51.7399
50.346
49.0632
47.886
46.8098
45.8235
44.918
44.087
43.3268
42.635
42.0081
41.4449
40.9448
40.5011
40.1055
39.7593
39.4683
39.227
39.0282
38.8754
38.7754
-3157.24
-3171.74
-3212.54
-3245.03
-3232.55
-3311.11
-3429.23
-2540.69
773.427
1091.95
1612.78
528.134
160.558
156.932
91.4764
26.9589
24.8101
62.9665
102.281
124.747
130.458
126.26
118.451
110.197
102.524
95.6986
89.7026
84.4417
79.8152
75.7243
72.0855
68.8318
65.908
63.2654
60.8707
58.6954
56.7133
54.9023
53.2426
51.7209
50.3248
49.0398
47.8602
46.7814
45.7924
44.8837
44.0502
43.2872
42.5928
41.9635
41.3989
40.8969
40.4514
40.0543
39.7068
39.4147
39.1724
38.9725
38.8195
38.7193
-3171.37
-3192.44
-3216.78
-3237.26
-3230.67
-3318.42
-3516.83
-2928.18
-2740.79
-582.999
26049.9
-14.1171
34.1384
103.646
92.019
44.9879
36.3106
61.5983
91.1698
111.134
119.229
118.57
113.615
107.172
100.59
94.4262
88.8421
83.8439
79.3883
75.4105
71.8488
68.6482
65.7623
63.1471
60.772
58.61
56.6375
54.8332
53.1779
51.6584
50.264
48.9803
47.8013
46.7222
45.7327
44.8226
43.9882
43.2239
42.5282
41.8978
41.3327
40.8293
40.3825
39.9844
39.6364
39.3436
39.1002
38.8996
38.7463
38.6456
-3200.37
-3206.68
-3232.92
-3244.72
-3220.93
-3267.99
-3425.46
-3353.21
-3141.38
-31.9438
31356.5
-60.8648
-17.9632
48.641
72.5782
54.3855
47.4051
61.6754
82.6959
99.6971
108.648
110.538
108.049
103.406
98.0314
92.6573
87.5911
82.938
78.7151
74.8971
71.4478
68.3279
65.5013
62.9307
60.5889
58.4517
56.4974
54.7072
53.0623
51.5503
50.1618
48.883
47.7075
46.6306
45.6428
44.7336
43.8999
43.1358
42.4402
41.8101
41.2452
40.7415
40.2937
39.895
39.5471
39.2543
39.0101
38.8087
38.6551
38.5537
-3226.49
-3180.98
-3255.51
-3269.87
-3232.68
-3212.67
-3347.21
-3347.57
-3265.9
-1619.89
-28.596
-49.6044
-32.5852
14.6424
48.6862
51.3881
50.9015
60.6003
75.9867
90.1012
99.086
102.645
102.096
99.0999
94.952
90.4395
85.9698
81.73
77.7954
74.1813
70.8786
67.8666
65.1209
62.6122
60.3177
58.2166
56.2902
54.5213
52.8933
51.3942
50.0161
48.7459
47.5771
46.5054
45.5216
44.6155
43.7841
43.0217
42.3277
41.6992
41.1354
40.6324
40.1843
39.7855
39.4384
39.1459
38.9007
38.6988
38.5452
38.4433
-3242.47
-3217.98
-3272.78
-3295.29
-3241.63
-2948.08
-3314.06
-3321.61
-3285.05
35557.1
4626.64
-42.3347
-30.8599
-0.871053
30.2271
43.5804
49.3879
58.1419
70.237
82.0414
90.6629
95.1466
96.0341
94.4541
91.4706
87.8387
84.0118
80.2357
76.6352
73.2646
70.1407
67.2625
64.6186
62.1889
59.9556
57.9021
56.0128
54.2732
52.6685
51.1881
49.8249
48.5672
47.4086
46.3449
45.3676
44.4669
43.6398
42.8808
42.1896
41.564
41.0024
40.5008
40.0533
39.6554
39.3096
39.0172
38.7713
38.5691
38.416
38.3141
-3238.14
-3259.81
-3269.97
-3305
-3285.78
-2760.31
-3192.26
-3289.16
-3254.15
43291.2
49.2281
-46.6798
-26.5372
-6.75603
18.6263
35.6394
45.564
54.7091
65.0593
75.2206
83.2568
88.1708
90.0692
89.6455
87.7105
84.9309
81.7613
78.4798
75.2476
72.1527
69.2362
66.5158
63.9935
61.6592
59.5006
57.5059
55.6632
53.9609
52.3865
50.9303
49.5867
48.3455
47.2006
46.1479
45.1793
44.2864
43.4656
42.712
42.0253
41.4037
40.8453
40.3458
39.8994
39.5034
39.1595
38.8673
38.6214
38.4193
38.2668
38.1651
-3230.92
-3218.81
-3259.38
-3301.27
-3075.12
-3268.1
-3224.59
-3262.18
-3198.77
48472
-306.132
-31.5335
-24.5107
-9.13776
12.3652
29.4261
41.209
50.861
60.3021
69.2902
76.7102
81.7619
84.3358
84.8164
83.7857
81.7961
79.2698
76.4937
73.6515
70.8565
68.1707
65.629
63.2464
61.0225
58.9513
57.0265
55.2398
53.583
52.0457
50.6196
49.3
48.0794
46.9517
45.9129
44.9558
44.073
43.2603
42.5142
41.8337
41.2174
40.6632
40.1666
39.722
39.3282
38.9867
38.6955
38.4504
38.2492
38.0972
37.9955
-3228.1
-2971.99
-3074.7
-3282.48
-3056.68
-3261.93
-3260.24
-3255.63
-3218.17
-1882.57
-492.777
114.558
-25.296
-9.29594
9.6123
25.2581
37.2841
47.0492
55.8922
64.0277
70.8931
75.9148
78.9125
80.0745
79.7953
78.5106
76.5917
74.3141
71.8705
69.3908
66.9532
64.6071
62.3797
60.2798
58.3078
56.4633
54.7418
53.1382
51.6449
50.2545
48.964
47.768
46.6608
45.639
44.6962
43.8256
43.023
42.2859
41.6132
41.0038
40.455
39.9623
39.5204
39.129
38.7904
38.5012
38.2575
38.0577
37.9068
37.8055
-3159.59
-3208.75
-3047.68
-3253.73
-3204.98
-3258.56
-3257.21
-3262.08
-3256.37
-2509.4
64440.5
-68.0138
-28.3905
-8.11031
8.90413
22.8357
34.1828
43.5924
51.8699
59.3285
65.7015
70.5985
73.8384
75.494
75.8193
75.1444
73.7806
71.9798
69.9313
67.7735
65.5953
63.4576
61.3978
59.4336
57.5716
55.8168
54.1689
52.626
51.1828
49.834
48.5775
47.4102
46.3269
45.3253
44.3995
43.5435
42.7528
42.0262
41.3629
40.7618
40.2196
39.7318
39.2938
38.9057
38.5703
38.2836
38.0417
37.844
37.6951
37.5948
-3211.43
-3217.91
-3190.07
-3240.62
-3147.53
-3248.42
-3249.97
-3255.38
-3272.68
-2959.39
70343.5
-18.0837
-14.314
-3.94788
9.79792
21.8292
31.9986
40.6807
48.3046
55.1441
61.061
65.7741
69.1247
71.1217
71.9189
71.7568
70.8869
69.5294
67.8625
66.0248
64.1112
62.1899
60.3072
58.488
56.7451
55.0884
53.5216
52.046
50.659
49.3571
48.1396
47.005
45.9495
44.971
44.0648
43.2256
42.449
41.7345
41.0821
40.4905
39.956
39.474
39.0411
38.6578
38.3263
38.0423
37.8027
37.6077
37.4611
37.3622
-3225.39
-3056.04
-3218.43
-3183.11
-3233.39
-3229.87
-3240.86
-3244.08
-3231.86
62011.5
9823.15
29.7041
5.41892
4.20308
12.7042
22.1256
30.7091
38.3798
45.2342
51.4487
56.9147
61.4009
64.7671
66.9844
68.1378
68.3958
67.9545
66.9999
65.6928
64.1662
62.5161
60.8152
59.1157
57.4485
55.832
54.2806
52.8016
51.3991
50.0734
48.8233
47.6495
46.5517
45.5276
44.5754
43.6912
42.871
42.1108
41.4103
40.7703
40.189
39.6633
39.1884
38.762
38.3846
38.0576
37.7768
37.5404
37.3487
37.2039
37.1062
-3228.2
-2969.68
-3223.03
-3189.32
-3228.55
-3227.9
-3231.19
-3230.21
-3228.12
8477.11
35424.9
56.2205
26.0613
15.0931
17.5632
23.5846
30.2139
36.6618
42.6508
48.2124
53.2159
57.4403
60.7498
63.0925
64.5049
65.0985
65.0214
64.4249
63.4497
62.2191
60.8267
59.346
57.8325
56.3218
54.8369
53.3963
52.0107
50.6865
49.4268
48.2327
47.1066
46.0496
45.0604
44.1375
43.2783
42.4794
41.7375
41.053
40.4269
39.857
39.341
38.8748
38.456
38.0852
37.7634
37.4871
37.2542
37.0658
36.9229
36.8262
-3225.89
-3239.98
-3194.87
-3233.28
-3232.29
-3231.31
-3227.33
-3223.23
-3227.29
-3213.23
21051.1
46.2918
34.3865
25.1097
23.084
25.7204
30.2942
35.4235
40.4981
45.3902
49.9187
53.8527
57.0517
59.446
61.0367
61.8916
62.1176
61.8333
61.1591
60.2049
59.0597
57.7949
56.4673
55.1151
53.7652
52.4393
51.1514
49.9099
48.7203
47.5861
46.5115
45.4987
44.5475
43.6569
42.8253
42.0501
41.3287
40.6619
40.0513
39.4943
38.9893
38.5327
38.1225
37.7593
37.4437
37.1725
36.9431
36.7579
36.6175
36.5223
-3236.46
-3250.98
-3255.32
-3246.11
-3240.59
-3237.11
-3232.39
-3228.67
-3219.62
56738.6
91349.2
7.84861
32.4662
30.4712
27.3282
27.7926
30.6313
34.5081
38.6874
42.9199
46.9709
50.5962
53.6462
56.0355
57.7402
58.793
59.2659
59.2497
58.8436
58.1434
57.2314
56.1751
55.0303
53.8361
52.6227
51.4141
50.227
49.0716
47.9557
46.885
45.8651
44.8995
43.989
43.1333
42.3319
41.5827
40.8839
40.2367
39.6431
39.101
38.6082
38.1619
37.7612
37.4065
37.0977
36.8319
36.6063
36.4246
36.2871
36.1937
-3198.04
-3262.6
-3271.79
-3265.1
-3254.88
-3245.84
-3241.94
-3233.41
-3222.54
30397.5
45031.1
33.483
35.175
32.2288
29.6314
29.2487
30.9059
33.7329
37.1055
40.723
44.3135
47.6263
50.5036
52.8477
54.6149
55.8117
56.4828
56.6931
56.5225
56.0526
55.3573
54.499
53.5311
52.4927
51.4156
50.3254
49.2411
48.1744
47.1352
46.1311
45.1687
44.2527
43.3854
42.5672
41.798
41.077
40.4029
39.7772
39.2022
38.6765
38.1972
37.7623
37.3719
37.0263
36.7245
36.4642
36.2437
36.0661
35.9311
35.8395
-3194.44
-3275.85
-3286.72
-3288.64
-3215.91
-3259.66
-3256.72
-3243.16
-3238.71
18925.3
61423.6
62.2251
43.4364
34.6055
30.8401
29.9794
30.8828
32.9198
35.6293
38.7153
41.8841
44.8967
47.5915
49.8631
51.6548
52.953
53.7792
54.1782
54.2122
53.9484
53.4519
52.779
51.98
51.093
50.1504
49.1786
48.1981
47.2218
46.2616
45.3264
44.424
43.5599
42.738
41.9593
41.2244
40.5335
39.8858
39.2834
38.7286
38.2202
37.7556
37.3337
36.9543
36.6181
36.3238
36.0695
35.8547
35.6815
35.5492
35.4592
-3258.97
-3294.98
-3294.99
-3308.9
-3218.92
-3293.57
-3275.05
-3258.89
-3243.24
56098.3
84333.5
27.4931
38.6295
34.8108
31.0985
29.9265
30.3907
31.9155
34.1498
36.8106
39.6185
42.3588
44.8751
47.0607
48.8498
50.2147
51.1605
51.7151
51.9247
51.8436
51.5274
51.0265
50.3868
49.6451
48.8337
47.9793
47.1023
46.2173
45.3375
44.4732
43.6327
42.8229
42.0481
41.3106
40.6117
39.9524
39.3328
38.7552
38.222
37.7319
37.2829
36.8751
36.5077
36.1812
35.8954
35.648
35.4389
35.2699
35.1409
35.0531
-3279.73
-3292.92
-3304.26
-3315.29
-3314.84
-3309.05
-3290.85
-3271.9
-3252.95
68521.5
79419.8
13.1566
29.1326
31.0792
29.537
28.8464
29.2881
30.6175
32.5804
34.9342
37.4573
39.9668
42.3213
44.4175
46.1867
47.5931
48.6293
49.3106
49.6697
49.749
49.5952
49.2522
48.7614
48.1578
47.4731
46.7333
45.959
45.1653
44.3666
43.5743
42.7972
42.0434
41.3172
40.6224
39.961
39.3347
38.7445
38.1928
37.682
37.2115
36.7793
36.3861
36.0313
35.7157
35.4392
35.1992
34.996
34.8313
34.7061
34.6205
-3266.1
-3281.55
-3293.48
-3301.09
-3314.9
-3308.83
-3294.47
-3277.12
-3259.75
90799.2
84630.2
5.0412
20.5997
25.3371
26.1631
26.6427
27.5485
28.9799
30.8538
33.0281
35.3509
37.6805
39.8976
41.9097
43.6505
45.0803
46.1841
46.9679
47.4533
47.6724
47.6639
47.4649
47.1126
46.6394
46.0758
45.4471
44.7732
44.0701
43.3523
42.6324
41.9197
41.2227
40.5466
39.8959
39.2732
38.681
38.1211
37.5963
37.1091
36.6589
36.2445
35.8664
35.5251
35.2213
34.9544
34.7221
34.5257
34.3661
34.2446
34.1611
-3249.37
-3263.46
-3273.58
-3281.1
-3293.59
-3293.9
-3284.39
-3272.4
-3258.55
114704
90808.6
-14.3582
10.6233
18.3945
21.6196
23.5655
25.2393
26.9964
28.9436
31.0579
33.2634
35.466
37.5757
39.5162
41.2266
42.6682
43.8227
44.6889
45.28
45.6205
45.7409
45.6727
45.4484
45.0977
44.649
44.1269
43.5504
42.9362
42.2987
41.6511
41.0027
40.3631
39.7377
39.1321
38.5491
37.9922
37.4634
36.9663
36.5035
36.0744
35.6783
35.3164
34.9893
34.6977
34.4405
34.2166
34.0278
33.874
33.7563
33.6752
-3232.32
-3247.01
-3250.95
-3256.93
-3265.42
-3268.2
-3265.21
-3260.78
-3254.01
137155
87098.2
-27.8288
0.44498
11.0568
16.5273
19.9593
22.5071
24.7207
26.8596
29.0108
31.172
33.2988
35.3336
37.2175
38.9004
40.348
41.5404
42.4731
43.1532
43.5982
43.8322
43.8822
43.7756
43.5393
43.1991
42.7783
42.2954
41.7676
41.2091
40.633
40.0488
39.4665
38.8925
38.3324
37.7897
37.2688
36.7723
36.3034
35.8656
35.4581
35.0811
34.7362
34.4238
34.1443
33.8978
33.6832
33.5021
33.3543
33.2412
33.1632
-3216.03
-3228.45
-3230.57
-3235.11
-3240.73
-3244.16
-3245.65
-3246.93
-3251.4
154388
77542.1
-24.9134
-6.46775
4.78035
11.613
16.2172
19.5594
22.2534
24.6437
26.8967
29.0703
31.1653
33.1542
34.9978
36.6596
38.1109
39.3329
40.3197
41.0739
41.6087
41.943
42.0991
42.1001
41.97
41.7316
41.4067
41.0133
40.5689
40.0873
39.5814
39.0606
38.5355
38.0127
37.4982
36.9964
36.512
36.0483
35.6085
35.196
34.8107
34.4536
34.1261
33.8284
33.5616
33.3265
33.1219
32.9485
32.8072
32.699
32.6244
-3201.18
-3210.74
-3212.18
-3217.69
-3225.15
-3228.15
-3230.18
-3233.48
-3249.2
164622
57910.8
-12.3033
-8.60235
0.482376
7.51357
12.7202
16.619
19.7178
22.3588
24.7427
26.9649
29.0605
31.0276
32.847
34.4951
35.9497
37.1955
38.2266
39.043
39.6552
40.0772
40.3278
40.4266
40.3944
40.251
40.0168
39.7086
39.3442
38.9368
38.4991
38.0408
37.5724
37.1004
36.6313
36.1706
35.723
35.2923
34.882
34.4953
34.1328
33.7962
33.4861
33.2037
32.9505
32.7269
32.5323
32.3673
32.2331
32.1297
32.0578
-3189.32
-3195.09
-3195.2
-3204.39
-3190.83
-3217.08
-3219.65
-3220.32
2404.84
173018
35837.5
-6.16451
-7.96573
-1.83195
4.49696
9.72537
13.8724
17.2352
20.0777
22.5874
24.8728
26.9879
28.9506
30.7586
32.3991
33.858
35.1243
36.1922
37.0612
37.7395
38.2379
38.5726
38.7596
38.8165
38.7614
38.6123
38.3852
38.0973
37.7609
37.3892
36.992
36.5792
36.1575
35.7335
35.3136
34.9029
34.5052
34.1246
33.7644
33.4252
33.1092
32.8167
32.5503
32.3111
32.099
31.9148
31.7588
31.6316
31.5328
31.4636
-3181.11
-3185.72
-3185.4
-2795.86
-3159.34
-3208.93
-3212.89
-3211.82
98008.7
181726
18157.5
-1.60482
-6.87328
-2.8395
2.45378
7.31871
11.4397
14.9059
17.8705
20.4744
22.817
24.9574
26.9252
28.7298
30.3678
31.8323
33.1164
34.215
35.1284
35.8636
36.4289
36.8377
37.103
37.2409
37.2668
37.197
37.0467
36.8315
36.5631
36.255
35.9169
35.5582
35.186
34.8067
34.4272
34.053
33.6885
33.3377
33.0042
32.6886
32.3932
32.119
31.8687
31.6435
31.4436
31.2702
31.1229
31.0022
30.9082
30.8422
-3175.42
-3182.33
-3161.9
-3200.77
-3201.14
-3203.26
-3198.56
-3188.38
168225
190638
4302.66
-6.48406
-6.46599
-3.29542
1.11112
5.4574
9.36779
12.7957
15.7929
18.4437
20.8228
22.9829
24.9578
26.7622
28.4002
29.8706
31.1691
32.2934
33.2453
34.0292
34.6522
35.1261
35.4612
35.6718
35.7715
35.7751
35.6965
35.5499
35.3468
35.0995
34.818
34.5118
34.1877
33.8523
33.513
33.175
32.8437
32.5225
32.2155
31.9236
31.6492
31.3937
31.1595
30.9483
30.7611
30.5985
30.4595
30.3454
30.2562
30.1933
-3167.28
-3179.74
-3025.65
-3195.92
-3199.13
-3054.13
-3204.28
-3228.08
197684
199800
-24.2285
-13.6939
-6.37211
-3.47724
0.255982
4.05433
7.65009
10.9331
13.882
16.5274
18.9135
21.0799
23.0563
24.8592
26.4972
27.9717
29.282
30.4284
31.4121
32.2372
32.9103
33.4408
33.8375
34.1129
34.2794
34.3502
34.3382
34.256
34.1146
33.9255
33.6983
33.4423
33.1646
32.8722
32.5724
32.2705
31.9721
31.6805
31.3995
31.1312
30.8777
30.6411
30.4234
30.2265
30.052
29.8995
29.7687
29.6614
29.5768
29.5166
-3151.91
-3172.44
-3003.62
-3191.6
-3128.23
-3127.98
-3195.45
52482.5
206586
203072
-12.1
-8.86678
-5.58928
-3.22506
-0.216244
3.01964
6.2497
9.31816
12.1541
14.7454
17.1068
19.2606
21.2284
23.0251
24.6599
26.1358
27.4553
28.6188
29.6286
30.489
31.2051
31.7843
32.2346
32.5679
32.7942
32.9257
32.9749
32.9527
32.8691
32.7354
32.5603
32.3525
32.1193
31.8681
31.607
31.3406
31.0746
30.8123
30.5573
30.3124
30.0797
29.8618
29.6608
29.4787
29.3163
29.1735
29.0509
28.9502
28.87
28.813
-3128.1
-3155.74
-3170.87
-3181.5
-3049.96
-3191.68
-3169.71
191200
215846
128457
-31.6222
-7.63851
-4.59325
-2.70557
-0.43498
2.25861
5.11136
7.92889
10.608
13.1061
15.4132
17.5347
19.4815
21.2643
22.8906
24.3642
25.6886
26.8649
27.8962
28.7855
29.5374
30.1584
30.6559
31.0399
31.3194
31.506
31.6105
31.6433
31.6138
31.5322
31.4066
31.2449
31.0543
30.8429
30.6189
30.3871
30.1526
29.9191
29.6899
29.4682
29.2565
29.0571
28.8725
28.7047
28.5541
28.4212
28.3068
28.2119
28.1364
28.083
-3098.47
-3131.18
-3149.34
-3164.17
-3172.76
-3177.12
-3319.12
224349
225197
45129.2
-10.4525
-8.41424
-3.90936
-2.29702
-0.57064
1.67127
4.17117
6.7291
9.22803
11.6067
13.8364
15.9073
17.8204
19.5798
21.191
22.6578
23.9825
25.167
26.2141
27.1261
27.9078
28.5643
29.1028
29.5312
29.8579
30.0939
30.2485
30.3312
30.3516
30.3186
30.2395
30.1215
29.972
29.7989
29.6101
29.4114
29.2074
29.0018
28.7982
28.5996
28.4087
28.2279
28.0592
27.9047
27.7656
27.6425
27.5361
27.4474
27.3769
27.3269
-3068.33
-3101
-3121.38
-3129.36
-3152.2
-3142.6
197722
233867
234982
2569.26
-12.2385
-8.16991
-3.7508
-2.15136
-0.753109
1.1614
3.36102
5.67475
7.99
10.2363
12.3733
14.3791
16.2463
17.9735
19.5636
21.0178
22.3379
23.5255
24.5826
25.5117
26.3171
27.0032
27.5764
28.0434
28.4121
28.6919
28.8915
29.0198
29.0856
29.0971
29.0614
28.9847
28.8742
28.7381
28.5831
28.4155
28.2408
28.062
27.8832
27.7075
27.537
27.3743
27.221
27.0796
26.9515
26.8379
26.7394
26.6574
26.5921
26.5448
-3048.2
-3070.51
-3089.73
-3109.97
-3132.13
26631.6
243148
243428
240918
-24.5545
-14.78
-8.72944
-4.3172
-2.42022
-1.08867
0.633933
2.61031
4.71899
6.86463
8.97864
11.0155
12.947
14.7595
16.4473
18.0096
19.4451
20.7553
21.9405
23.0024
23.9429
24.7659
25.4758
26.0781
26.5782
26.9835
27.3022
27.542
27.7113
27.8183
27.8706
27.8744
27.8364
27.763
27.6619
27.5396
27.4019
27.2547
27.1015
26.9465
26.7925
26.6419
26.4967
26.3583
26.2298
26.1128
26.0083
25.9178
25.8422
25.7818
25.7376
-3044.36
-3046.76
-3060.57
-3076.1
-3133.8
251795
253026
253057
86526.3
-25.7322
-15.7498
-9.74801
-5.46059
-3.20964
-1.68419
0.00507899
1.8574
3.81841
5.82346
7.81595
9.75347
11.6068
13.359
15.0009
16.5286
17.9402
19.2352
20.4127
21.474
22.4203
23.2557
23.9837
24.6093
25.137
25.5738
25.9264
26.2018
26.4079
26.552
26.6413
26.6813
26.6789
26.6403
26.5721
26.4808
26.372
26.2512
26.1223
25.9897
25.8561
25.724
25.5956
25.4721
25.3564
25.2502
25.1549
25.0724
25.0025
24.9461
24.9053
-3056.58
-3036.33
-3042.58
-3057.04
232947
262942
262678
263346
1387.05
-20.7156
-16.2836
-10.8161
-6.93703
-4.41657
-2.56639
-0.770357
1.06122
2.93995
4.84176
6.73144
8.57692
10.3523
12.0409
13.6323
15.1209
16.5033
17.7775
18.942
19.9973
20.9443
21.787
22.5276
23.1709
23.721
24.1841
24.5655
24.8719
25.1107
25.288
25.4105
25.4838
25.5141
25.5073
25.4698
25.4077
25.3263
25.231
25.1257
25.014
24.8994
24.7846
24.6719
24.5628
24.4598
24.3644
24.2782
24.2031
24.1387
24.086
24.048
-3114.91
-3041.19
-3049.01
234410
273023
272664
272293
197412
-41.3843
-21.2647
-16.4932
-11.9101
-8.52433
-5.81583
-3.65575
-1.67831
0.215095
2.07008
3.90568
5.7133
7.47662
9.17728
10.8016
12.3394
13.7849
15.1332
16.3817
17.5285
18.5731
19.5163
20.3607
21.1086
21.7645
22.332
22.8159
23.2214
23.5545
23.8213
24.0276
24.1799
24.2833
24.3434
24.3658
24.3567
24.3217
24.2661
24.1951
24.1123
24.0207
23.9242
23.8256
23.7273
23.6317
23.5408
23.456
23.3787
23.3103
23.2515
23.2029
23.1671
53365.1
31645.3
282923
283447
283019
282380
282571
16941.5
-21.8673
-21.431
-16.3856
-12.9306
-9.79172
-7.0799
-4.79173
-2.63425
-0.648324
1.21583
3.01065
4.75388
6.44511
8.07552
9.63645
11.1191
12.5186
13.8291
15.0481
16.1726
17.2017
18.1362
18.9776
19.7281
20.3917
20.9714
21.4709
21.8956
22.2508
22.5412
22.7727
22.9511
23.0813
23.168
23.217
23.2337
23.2236
23.1925
23.1445
23.0826
23.0101
22.931
22.8479
22.7635
22.6803
22.6002
22.5253
22.4568
22.3953
22.3417
22.2974
22.2643
417836
418036
418053
418059
418039
417981
417872
417701
417450
417104
416640
416031
415241
414218
412886
411113
408653
404953
398346
384908
417488
417676
417694
417701
417682
417623
417512
417335
417072
416704
416205
415542
414671
413527
412014
409970
407108
402877
396219
386108
417165
417341
417361
417371
417356
417302
417196
417020
416756
416380
415864
415171
414254
413045
411448
409313
406407
402369
396705
389027
416869
417034
417057
417072
417065
417021
416926
416761
416504
416133
415616
414917
413988
412766
411164
409059
406285
402627
397865
391940
416602
416756
416784
416807
416811
416782
416704
416557
416317
415961
415457
414769
413855
412656
411100
409094
406524
403269
399242
394489
416364
416508
416543
416576
416595
416586
416529
416405
416188
415853
415370
414707
413823
412670
411190
409314
406966
404081
400633
396690
416155
416294
416337
416382
416419
416432
416400
416301
416108
415796
415338
414703
413859
412764
411373
409635
407502
404941
401951
398595
415978
416116
416169
416228
416284
416320
416313
416237
416066
415774
415338
414733
413930
412897
411597
409994
408059
405776
403154
400244
415843
415983
416045
416117
416192
416251
416267
416211
416053
415773
415351
414770
414007
413034
411823
410345
408586
406540
404221
401661
415788
415907
415966
416049
416147
416231
416268
416221
416064
415780
415360
414794
414066
413152
412023
410657
409048
407205
405145
402871
416077
415867
415897
416014
416157
416277
416331
416283
416104
415790
415350
414789
414094
413239
412189
410918
409430
407755
405953
403941
417622
415513
415669
415965
416230
416409
416482
416418
416175
415778
415279
414709
414050
413267
412289
411045
409586
407966
406322
404772
-149.782
249230
350986
401446
416772
416943
416969
416846
416446
415888
415294
414738
414138
413401
412575
408584
394386
362114
260334
231687
-21.4691
-9.73708
-5.17772
-6.3398
-9.78314
644.376
2053.97
2841.99
2180.19
1128.41
44.3949
-30.8852
-33.8181
-34.9646
-36.7127
-42.545
-40.4796
3.00069
3.08913
0.728536
-9.9396
-7.55853
-3.89388
-2.67133
-3.23896
-2.98599
-2.37872
-2.00942
-2.2987
-3.06139
-4.49798
-5.33258
-5.79931
-6.11858
-6.53054
-7.24571
-6.95162
-7.65324
-9.35481
-9.27492
-6.56287
-6.86094
-4.59804
-3.45192
-3.15163
-3.19518
-3.24445
-3.33299
-3.54106
-3.84471
-4.27419
-4.75166
-5.22661
-5.68591
-6.17538
-6.69449
-6.92528
-7.0709
-7.62005
-8.02432
-5.43882
-5.69006
-4.66112
-3.9139
-3.52971
-3.37895
-3.34105
-3.38873
-3.53049
-3.76237
-4.07678
-4.43517
-4.803
-5.17186
-5.54908
-5.92323
-6.23725
-6.55679
-6.94736
-7.30927
-4.75481
-4.8106
-4.32668
-3.87671
-3.57017
-3.40249
-3.33715
-3.35381
-3.44719
-3.61299
-3.84206
-4.11444
-4.40804
-4.70975
-5.01597
-5.32203
-5.61757
-5.91552
-6.22407
-6.51765
-4.21517
-4.09148
-3.85892
-3.59251
-3.38128
-3.24501
-3.18007
-3.17976
-3.24012
-3.35696
-3.52314
-3.72706
-3.95495
-4.19537
-4.44119
-4.68763
-4.93124
-5.1732
-5.41174
-5.6378
-3.76247
-3.45885
-3.34325
-3.18334
-3.04849
-2.9542
-2.90535
-2.90182
-2.94187
-3.02242
-3.13867
-3.28373
-3.44955
-3.62838
-3.81365
-4.00023
-4.18462
-4.36525
-4.54042
-4.70693
-3.41346
-2.88974
-2.82255
-2.72057
-2.63888
-2.58162
-2.55186
-2.55048
-2.57694
-2.6295
-2.70542
-2.8008
-2.91098
-3.03131
-3.15732
-3.28513
-3.41179
-3.53541
-3.65457
-3.76767
-3.25871
-2.3599
-2.30061
-2.23353
-2.19081
-2.16337
-2.15013
-2.15119
-2.16676
-2.19636
-2.23876
-2.29202
-2.35378
-2.42152
-2.4927
-2.56498
-2.6365
-2.70583
-2.77194
-2.83395
-3.95278
-1.81408
-1.75749
-1.73203
-1.72622
-1.7234
-1.72234
-1.72373
-1.72866
-1.73776
-1.7509
-1.7675
-1.78672
-1.80754
-1.82878
-1.84938
-1.8684
-1.8851
-1.89918
-1.91067
-8.84853
-0.899214
-1.14344
-1.22151
-1.2723
-1.29774
-1.30845
-1.30868
-1.30111
-1.28744
-1.26874
-1.24568
-1.21881
-1.18852
-1.15499
-1.11836
-1.07871
-1.03624
-0.991485
-0.945404
323488
338173
349477
358657
364408
367248
368760
369323
369040
367867
365673
362206
356945
348526
332646
367679
355549
357086
360744
363867
365825
366857
367029
366358
364783
362171
358286
352712
344711
333281
378888
370138
366649
366291
366785
367192
367173
366573
365289
363213
360213
356117
350706
343761
335302
385038
378412
374101
371765
370484
369565
368579
367269
365460
363014
359810
355737
350719
344775
338170
389182
383801
379533
376438
374170
372332
370593
368703
366475
363763
360456
356484
351836
346605
340991
392353
387784
383763
380425
377658
375257
372999
370684
368143
365244
361888
358017
353591
348608
344104
394920
390946
387228
383891
380922
378221
375650
373061
370318
367307
363912
360016
355975
294844
-93.8534
397058
393554
390154
386950
383958
381146
378439
375721
372860
369707
366423
332106
24652.8
-27.7557
-14.8277
398852
395744
392671
389676
386774
383989
381266
378422
375603
354858
79515.7
-25.7682
-12.3845
-17.0835
-18.4428
400347
397592
394882
392152
389300
386433
384073
363757
115136
-23.3372
-10.9461
-16.3326
-17.6915
-17.0826
-16.8419
401496
398982
396606
394239
392141
336665
66369.9
-20.4342
-7.44211
-14.1008
-16.0961
-16.1171
-15.9738
-15.8201
-15.6966
402075
396882
355562
235072
-96.6555
-19.9525
-3.27949
-11.1632
-13.7947
-14.2315
-14.5269
-14.7556
-14.8208
-14.7396
-14.5578
1979.07
-63.2324
-18.4129
-2.72983
-7.6968
-11.8255
-12.5585
-12.3745
-12.6507
-13.1057
-13.4698
-13.6681
-13.7023
-13.5844
-13.3247
-3.09558
-11.08
-9.88458
-12.0209
-11.7335
-11.6301
-11.4623
-11.5858
-11.8912
-12.2098
-12.4387
-12.5319
-12.4794
-12.2878
-11.9708
-9.5775
-10.7078
-10.4634
-10.4302
-10.4808
-10.6147
-10.7095
-10.8532
-11.0487
-11.2195
-11.3029
-11.2763
-11.1397
-10.9016
-10.5746
-8.48199
-9.09489
-9.35376
-9.51544
-9.64509
-9.76224
-9.8591
-9.95652
-10.0416
-10.0785
-10.0457
-9.93888
-9.76002
-9.51381
-9.20836
-7.67925
-8.07605
-8.35709
-8.55228
-8.69208
-8.78918
-8.85032
-8.88175
-8.87807
-8.83071
-8.73666
-8.59537
-8.40706
-8.17508
-7.90691
-6.80019
-7.08489
-7.31918
-7.49381
-7.61184
-7.6801
-7.7056
-7.6928
-7.64355
-7.55959
-7.44245
-7.29303
-7.11347
-6.90911
-6.68885
-5.85218
-6.0619
-6.23858
-6.37277
-6.46182
-6.50757
-6.51275
-6.4804
-6.41423
-6.31854
-6.19731
-6.05455
-5.89565
-5.72816
-5.5617
-4.86553
-5.01823
-5.14616
-5.2438
-5.30821
-5.33811
-5.33307
-5.29434
-5.22511
-5.1304
-5.01654
-4.89053
-4.75984
-4.63279
-4.51762
-3.87543
-3.97841
-4.06456
-4.13078
-4.17442
-4.193
-4.18444
-4.14808
-4.08552
-4.00138
-3.9032
-3.80021
-3.70064
-3.61147
-3.53774
-2.89243
-2.94789
-2.99455
-3.03113
-3.05616
-3.06736
-3.06185
-3.03674
-2.99037
-2.92515
-2.84827
-2.7715
-2.70276
-2.64557
-2.60085
-1.92031
-1.92785
-1.93376
-1.939
-1.94405
-1.9483
-1.9494
-1.94277
-1.92043
-1.88254
-1.8308
-1.78179
-1.743
-1.71268
-1.68734
-0.893178
-0.844533
-0.8051
-0.777379
-0.764948
-0.770972
-0.797475
-0.842537
-0.8595
-0.869785
-0.835123
-0.816044
-0.812847
-0.808618
-0.793118
297497
296429
294770
293285
292211
291679
167198
-25.5726
-20.9878
-17.7798
-14.8359
-12.9115
-10.6561
-7.81529
-5.50702
-3.32993
-1.3147
0.542586
2.29632
3.97775
5.59764
7.15588
8.64804
10.0687
11.4129
12.6762
13.8551
14.9466
15.9501
16.8658
17.6944
18.4381
19.0995
19.6812
20.1879
20.6237
20.9927