/*--------------------------------*- C++ -*----------------------------------*\
| =========                 |                                                 |
| \\      /  F ield         | OpenFOAM: The Open Source CFD Toolbox           |
|  \\    /   O peration     | Version:  v1912                                 |
|   \\  /    A nd           | Website:  www.openfoam.com                      |
|    \\/     M anipulation  |                                                 |
\*---------------------------------------------------------------------------*/
FoamFile
{
    version     2.0;
    format      ascii;
    class       surfaceScalarField;
    location    "8";
    object      phi;
}
// * * * * * * * * * * * * * * * * * * * * * * * * * * * * * * * * * * * * * //

dimensions      [0 3 -1 0 0 0 0];
oriented        oriented;


internalField   nonuniform List<scalar> 
40282
(
0.00316113
0.0019013
1.96237
-1.97021
1.96698
0.0032326
-1.96137
1.95327
0.00810556
-1.9437
1.93292
0.0107722
-1.91998
1.90552
0.0144532
-1.89063
1.87534
0.0152892
-1.85996
1.84458
0.015374
-1.82953
1.81591
0.0136257
-1.8038
1.79167
0.0121334
-1.77746
1.75916
0.0182952
-1.73472
1.70204
0.0326754
-1.65925
1.60476
0.0544929
-1.53725
1.45571
0.0815371
-1.35953
1.24853
0.111
-1.123
0.983951
0.139054
-0.833787
0.676994
0.156793
-0.519796
0.368947
0.15085
-0.230678
0.110606
0.120072
-0.0141799
-0.0524683
0.0666482
0.0830501
-0.0696171
-0.013433
-0.00309052
0.00419453
1.89585
-1.89267
1.88777
-0.00999231
0.0148941
-1.88082
1.87199
-0.0172872
0.0261197
-1.8613
1.84879
-0.0233894
0.0358974
-1.83508
1.82024
-0.0289633
0.0438044
-1.80398
1.7865
-0.0320281
0.0495052
-1.76782
1.74747
-0.0331989
0.0535508
-1.72419
1.69587
-0.0344168
0.0627377
-1.66094
1.61896
-0.0411568
0.0831306
-1.57051
1.51654
-0.0580693
0.112039
-1.45798
1.39554
-0.0854592
0.1479
-1.32976
1.26109
-0.121048
0.189722
-1.18992
1.1167
-0.161715
0.234935
-1.04193
0.96621
-0.203022
0.278744
-0.890213
0.814612
-0.238219
0.31382
-0.739892
0.666208
-0.256984
0.330668
-0.593418
0.52128
-0.248534
0.320673
-0.449578
0.378062
-0.209263
0.280779
-0.306279
0.233416
-0.140773
0.213635
-0.158477
0.0807925
-0.0423023
0.119987
-0.00532086
0.0065393
1.82777
-1.8244
1.81888
-0.020473
0.0259885
-1.81164
1.80216
-0.0354164
0.0448914
-1.79065
1.77776
-0.048912
0.0618104
-1.76297
1.74597
-0.0597782
0.0767743
-1.72719
1.7058
-0.0688617
0.0902524
-1.67956
1.64702
-0.0796827
0.112221
-1.60829
1.56418
-0.101686
0.145793
-1.51556
1.46312
-0.13334
0.185781
-1.40743
1.34902
-0.170768
0.229179
-1.28843
1.22622
-0.212575
0.274785
-1.16297
1.09928
-0.257744
0.321435
-1.0357
0.972748
-0.30386
0.366814
-0.910853
0.850341
-0.346417
0.40693
-0.791375
0.733912
-0.37879
0.436252
-0.677666
0.622086
-0.393176
0.448756
-0.566387
0.509619
-0.383205
0.439973
-0.450747
0.388739
-0.347069
0.409078
-0.322626
0.251549
-0.287805
0.358882
-0.174766
0.0914751
-0.205937
0.289228
-0.00773076
0.00875094
1.76246
-1.75923
1.75355
-0.0311894
0.0368647
-1.74537
1.73595
-0.0550618
0.0644763
-1.72459
1.71043
-0.0753638
0.0895157
-1.6941
1.67468
-0.0947995
0.114219
-1.65006
1.61932
-0.116784
0.147523
-1.58296
1.54194
-0.150989
0.192016
-1.4971
1.44912
-0.193634
0.24161
-1.39854
1.34577
-0.239957
0.29272
-1.29123
1.2353
-0.287742
0.343674
-1.17837
1.12082
-0.335851
0.393395
-1.06307
1.00548
-0.38302
0.44061
-0.948401
0.892129
-0.427085
0.483357
-0.836865
0.782698
-0.464652
0.518819
-0.729582
0.677316
-0.491338
0.543604
-0.625537
0.573733
-0.502702
0.554506
-0.52127
0.467441
-0.495764
0.549593
-0.411521
0.352825
-0.470337
0.529033
-0.29076
0.22485
-0.428776
0.494686
-0.154731
0.0800206
-0.37009
0.4448
-0.0098461
0.011168
1.69897
-1.69546
1.69005
-0.0430541
0.0484639
-1.68299
1.67297
-0.0738941
0.0839095
-1.66041
1.64522
-0.104375
0.119558
-1.6254
1.59964
-0.137136
0.162895
-1.56829
1.53232
-0.182219
0.218188
-1.49265
1.44996
-0.235162
0.277848
-1.4048
1.35759
-0.290393
0.337607
-1.30867
1.25836
-0.345361
0.395667
-1.20695
1.15472
-0.398774
0.451013
-1.10191
1.04881
-0.449639
0.502747
-0.995633
0.942614
-0.496742
0.549761
-0.88993
0.837715
-0.538361
0.590575
-0.786039
0.734895
-0.572214
0.623358
-0.684191
0.633748
-0.595731
0.646174
-0.583302
0.532515
-0.606654
0.657441
-0.480998
0.428338
-0.603782
0.656442
-0.374126
0.317991
-0.587465
0.6436
-0.259625
0.198797
-0.559105
0.619933
-0.135347
0.0691257
-0.516291
0.582512
-0.0124211
0.0134354
1.63847
-1.6352
1.62994
-0.0534738
0.058733
-1.62187
1.61178
-0.0944645
0.104558
-1.59834
1.57939
-0.136611
0.15556
-1.55455
1.52471
-0.191681
0.221518
-1.49092
1.45399
-0.255678
0.29261
-1.4145
1.37287
-0.320991
0.362617
-1.32946
1.28454
-0.384628
0.429548
-1.23836
1.19114
-0.44535
0.492567
-1.14309
1.0944
-0.502365
0.55106
-1.04524
0.995773
-0.554883
0.604346
-0.946153
0.896499
-0.601925
0.651579
-0.846905
0.797432
-0.642245
0.691719
-0.748095
0.698869
-0.674392
0.723618
-0.649678
0.6004
-0.696927
0.746205
-0.550872
0.500898
-0.70876
0.758733
-0.450263
0.398742
-0.7095
0.761021
-0.346125
0.292226
-0.699581
0.753481
-0.236896
0.180036
-0.679706
0.736567
-0.121587
0.061518
-0.646521
0.70659
-0.0142377
0.0150765
1.57967
-1.57667
1.57112
-0.064547
0.0700936
-1.56391
1.55283
-0.114899
0.125978
-1.53584
1.51314
-0.177041
0.199737
-1.48591
1.45518
-0.252682
0.283414
-1.42166
1.38584
-0.329836
0.365654
-1.34808
1.30865
-0.403986
0.443417
-1.26777
1.22566
-0.473904
0.51602
-1.18247
1.13837
-0.539059
0.58316
-1.0935
1.04799
-0.598988
0.644498
-1.00196
0.955521
-0.65312
0.699561
-0.90876
0.861751
-0.700735
0.747744
-0.814548
0.767182
-0.740977
0.788343
-0.719657
0.671954
-0.772946
0.820649
-0.624025
0.575802
-0.795848
0.844071
-0.527195
0.478099
-0.809185
0.858281
-0.428405
0.378002
-0.812909
0.863312
-0.326789
0.274684
-0.8074
0.859505
-0.221627
0.167588
-0.792907
0.846947
-0.112564
0.0565895
-0.765458
0.821432
-0.0160494
0.0171454
1.52291
-1.52013
1.51573
-0.0750927
0.0794995
-1.5075
1.49328
-0.13883
0.153051
-1.47352
1.44954
-0.223808
0.247785
-1.42237
1.39266
-0.314363
0.344078
-1.36082
1.32714
-0.401127
0.434805
-1.29185
1.25512
-0.482234
0.518962
-1.21711
1.17796
-0.557406
0.596559
-1.13778
1.09669
-0.626518
0.667606
-1.05479
1.01217
-0.689335
0.731955
-0.968915
0.925091
-0.745476
0.7893
-0.880762
0.835977
-0.794437
0.839222
-0.790772
0.745167
-0.835642
0.881247
-0.699171
0.652777
-0.868532
0.914926
-0.605966
0.558705
-0.892667
0.939928
-0.510957
0.462675
-0.907839
0.956121
-0.413814
0.364332
-0.914131
0.963613
-0.314194
0.263377
-0.911837
0.962654
-0.211874
0.159697
-0.900913
0.95309
-0.106881
0.0535022
-0.876943
0.930321
-0.0181658
0.0189985
1.46856
-1.46631
1.46123
-0.084041
0.0891169
-1.45042
1.43416
-0.168825
0.185087
-1.41385
1.39054
-0.272047
0.295349
-1.36488
1.33722
-0.373386
0.401048
-1.3078
1.2768
-0.467786
0.498787
-1.24435
1.21058
-0.554881
0.588655
-1.17558
1.13944
-0.634898
0.671034
-1.10225
1.06409
-0.707951
0.746117
-1.02501
0.985093
-0.773963
0.813883
-0.944383
0.902932
-0.832695
0.874146
-0.860782
0.817969
-0.883798
0.926611
-0.77452
0.730456
-0.926879
0.970943
-0.685789
0.640527
-0.961571
1.00683
-0.594671
0.548218
-0.987618
1.03407
-0.501163
0.453503
-1.00494
1.0526
-0.405233
0.356357
-1.01365
1.06252
-0.306883
0.25683
-1.01394
1.064
-0.206228
0.155121
-1.00558
1.05669
-0.103572
0.0516935
-0.98379
1.03567
-0.0195471
0.019868
1.41654
-1.41421
1.40725
-0.0952351
0.102196
-1.39487
1.37845
-0.201939
0.218356
-1.35917
1.33766
-0.31827
0.339779
-1.31428
1.28922
-0.427943
0.452996
-1.26263
1.2346
-0.528876
0.556909
-1.2052
1.17452
-0.621493
0.652178
-1.1426
1.10951
-0.70629
0.739381
-1.0753
1.04
-0.783521
0.818816
-1.00367
0.966341
-0.853211
0.89054
-0.928048
0.888824
-0.915214
0.954439
-0.848695
0.807688
-0.969278
1.01029
-0.765823
0.72312
-1.01511
1.05781
-0.679597
0.635271
-1.05243
1.09675
-0.59016
0.544282
-1.08105
1.12693
-0.497657
0.450311
-1.10093
1.14828
-0.402273
0.353581
-1.11215
1.16084
-0.304278
0.254417
-1.1148
1.16466
-0.204061
0.153284
-1.10848
1.15926
-0.102179
0.0508913
-1.08809
1.13938
-0.0200448
0.0202066
1.36588
-1.36276
1.35453
-0.110072
0.118297
-1.34214
1.32689
-0.23461
0.24986
-1.30954
1.29045
-0.36051
0.379597
-1.2698
1.2477
-0.477045
0.499151
-1.2242
1.19934
-0.583866
0.608723
-1.17316
1.1457
-0.681806
0.70927
-1.11698
1.08701
-0.771504
0.801469
-1.05583
1.02345
-0.853288
0.88567
-0.989884
0.955155
-0.927242
0.96197
-0.919275
0.882255
-0.993268
1.03029
-0.84411
0.804853
-1.05116
1.09041
-0.764496
0.723056
-1.10065
1.14209
-0.680551
0.637003
-1.14148
1.18503
-0.592439
0.546893
-1.17346
1.219
-0.500405
0.453023
-1.19647
1.24385
-0.404807
0.355823
-1.21051
1.25949
-0.306149
0.255873
-1.21557
1.26584
-0.205094
0.153921
-1.21107
1.26225
-0.102483
0.0509637
-1.19162
1.24314
-0.020445
0.020839
1.31673
-1.31267
1.30433
-0.126869
0.135202
-1.29304
1.27973
-0.264478
0.277789
-1.26484
1.24855
-0.39765
0.413941
-1.23093
1.21201
-0.520068
0.538985
-1.1918
1.17031
-0.632351
0.653846
-1.14752
1.12344
-0.735542
0.759624
-1.09806
1.07137
-0.830344
0.857035
-1.04336
1.01403
-0.91712
0.946449
-0.983368
0.951366
-0.995977
1.02798
-0.918013
0.883302
-1.06684
1.10155
-0.847226
0.809781
-1.12949
1.16694
-0.770965
0.730784
-1.18366
1.22384
-0.689247
0.646375
-1.22903
1.2719
-0.602196
0.556751
-1.26531
1.31076
-0.510093
0.462291
-1.29227
1.34007
-0.413427
0.363601
-1.30973
1.35956
-0.312927
0.261534
-1.31752
1.36891
-0.209567
0.157183
-1.31487
1.36726
-0.104561
0.0519396
-1.29607
1.34869
-0.021396
0.0221319
1.26936
-1.26502
1.25751
-0.143368
0.150883
-1.24799
1.23706
-0.290177
0.301107
-1.22494
1.21169
-0.42901
0.442259
-1.19731
1.18177
-0.556554
0.572089
-1.16505
1.1471
-0.673959
0.691907
-1.12789
1.10739
-0.782359
0.802862
-1.08556
1.06236
-0.882476
0.905675
-1.03776
1.01172
-0.974685
1.00072
-0.984208
0.955185
-1.0591
1.08812
-0.924615
0.892462
-1.13564
1.1678
-0.85869
0.82327
-1.20409
1.23951
-0.786176
0.747389
-1.26409
1.30287
-0.706899
0.664708
-1.31523
1.35742
-0.620835
0.575315
-1.35707
1.40259
-0.528202
0.479574
-1.38913
1.43776
-0.429537
0.378219
-1.41098
1.4623
-0.325777
0.272394
-1.42214
1.47553
-0.218277
0.163658
-1.42161
1.47623
-0.108797
0.0540293
-1.40329
1.45806
-0.0229817
0.0239314
1.22345
-1.21957
1.21347
-0.157876
0.163979
-1.2061
1.19781
-0.310921
0.319211
-1.18867
1.17864
-0.454133
0.464164
-1.16766
1.15568
-0.586123
0.598104
-1.14262
1.12842
-0.708306
0.722507
-1.11302
1.09634
-0.821832
0.83851
-1.07833
1.05893
-0.927415
0.946817
-1.03807
1.01569
-1.02543
1.04781
-0.991728
0.96611
-1.11602
1.14163
-0.938768
0.90963
-1.19908
1.22822
-0.878626
0.845687
-1.2744
1.30733
-0.810746
0.773745
-1.34154
1.37854
-0.734633
0.693375
-1.39997
1.44123
-0.649953
0.604371
-1.449
1.49458
-0.556663
0.506899
-1.48783
1.5376
-0.455185
0.401674
-1.51559
1.56911
-0.346566
0.290111
-1.53132
1.58777
-0.232607
0.174406
-1.53353
1.59173
-0.115919
0.0576979
-1.51566
1.57388
-0.0248869
0.0258321
1.17965
-1.17648
1.17212
-0.169336
0.173697
-1.16711
1.16159
-0.326253
0.331772
-1.15552
1.14881
-0.472697
0.479406
-1.14136
1.13306
-0.608443
0.61674
-1.12383
1.11356
-0.734989
0.745259
-1.10217
1.08958
-0.853447
0.866036
-1.0757
1.06046
-0.964509
0.979753
-1.04376
1.02551
-1.06856
1.08681
-1.00562
0.983995
-1.16578
1.18741
-0.960517
0.93508
-1.25612
1.28155
-0.907567
0.877858
-1.33935
1.36906
-0.84583
0.811361
-1.41506
1.44953
-0.774335
0.734644
-1.48257
1.52226
-0.692198
0.646928
-1.54093
1.5862
-0.5988
0.547827
-1.58891
1.63989
-0.494075
0.437683
-1.62499
1.68138
-0.378872
0.31796
-1.64736
1.70827
-0.255369
0.191648
-1.65363
1.71736
-0.127513
0.0640837
-1.6365
1.69993
-0.0266781
0.0274184
1.13757
-1.1352
1.13273
-0.177185
0.179658
-1.13014
1.12742
-0.335964
0.338684
-1.12445
1.12109
-0.484533
0.487896
-1.1172
1.11265
-0.623284
0.62783
-1.10734
1.10114
-0.753657
0.759852
-1.09397
1.08572
-0.876679
0.88493
-1.07629
1.06559
-0.993014
1.00371
-1.05351
1.03995
-1.10309
1.11665
-1.02478
1.00788
-1.20713
1.22404
-0.989104
0.968304
-1.30523
1.32603
-0.945315
0.919958
-1.39727
1.42263
-0.892041
0.86136
-1.4829
1.51358
-0.827704
0.790855
-1.56145
1.5983
-0.750598
0.706727
-1.6318
1.67567
-0.659061
0.607463
-1.69226
1.74386
-0.551856
0.492258
-1.74047
1.80006
-0.428817
0.361848
-1.77324
1.84021
-0.29189
0.219788
-1.78643
1.85853
-0.14688
0.0757889
-1.77124
1.84233
-0.0279896
0.0283947
1.09713
-1.0961
1.09552
-0.181207
0.181792
-1.09529
1.09529
-0.340054
0.340054
-1.09534
1.09525
-0.489638
0.489725
-1.09487
1.09405
-0.630553
0.631371
-1.09267
1.09061
-0.764058
0.766117
-1.08777
1.08404
-0.89105
0.894778
-1.07932
1.07352
-1.01216
1.01797
-1.06651
1.05819
-1.12787
1.13619
-1.04842
1.03707
-1.23854
1.24989
-1.02396
1.00893
-1.34444
1.35947
-0.991761
0.972233
-1.4457
1.46523
-0.950086
0.925034
-1.54224
1.5673
-0.896754
0.864895
-1.63363
1.66549
-0.82907
0.788865
-1.71888
1.75908
-0.743848
0.693585
-1.79613
1.84639
-0.637667
0.575755
-1.86222
1.92414
-0.507644
0.433367
-1.9122
1.98648
-0.353344
0.268667
-1.93867
2.02334
-0.181806
0.0990593
-1.92953
2.01227
-0.0286032
0.0286245
1.05808
-1.05821
1.0594
-0.181462
0.180272
-1.06137
1.06391
-0.338732
0.336194
-1.06679
1.0698
-0.488208
0.4852
-1.07276
1.07554
-0.63035
0.627575
-1.07799
1.08002
-0.766119
0.764092
-1.08152
1.08239
-0.896235
0.895364
-1.08254
1.08188
-1.02128
1.02194
-1.08032
1.07773
-1.1418
1.14438
-1.074
1.069
-1.25832
1.26332
-1.06256
1.0545
-1.37138
1.37944
-1.04461
1.03265
-1.4815
1.49346
-1.01833
1.00131
-1.58906
1.60608
-0.981195
0.957528
-1.69424
1.71791
-0.929761
0.897258
-1.79675
1.82926
-0.859274
0.814954
-1.89538
1.9397
-0.763326
0.703323
-1.98715
2.04715
-0.633844
0.553879
-2.06591
2.14588
-0.462799
0.361059
-2.12001
2.22175
-0.252365
0.150173
-2.13066
2.23285
-0.0284596
0.0281194
1.02051
-1.02192
1.02467
-0.178229
0.175472
-1.02859
1.03339
-0.332419
0.327624
-1.0388
1.04461
-0.480666
0.474854
-1.05064
1.05675
-0.623011
0.616904
-1.06281
1.06874
-0.760012
0.754088
-1.07444
1.07983
-0.892153
0.886756
-1.08486
1.08944
-1.01994
1.01536
-1.09349
1.09695
-1.14397
1.14051
-1.09971
1.10167
-1.26494
1.26298
-1.1027
1.10266
-1.38368
1.38372
-1.10138
1.09866
-1.50113
1.50385
-1.09424
1.08783
-1.61833
1.62473
-1.07907
1.0675
-1.73637
1.74793
-1.05257
1.03359
-1.85631
1.8753
-1.00964
0.979592
-1.9789
2.00895
-0.941958
0.894816
-2.10379
2.15093
-0.835695
0.761483
-2.22759
2.3018
-0.668477
0.553337
-2.33896
2.4541
-0.417896
0.282467
-2.41597
2.5514
-0.0276305
0.0270012
0.984394
-0.986518
0.990558
-0.17197
0.16793
-0.996078
1.00275
-0.321731
0.315055
-1.01031
1.01852
-0.467656
0.459443
-1.02722
1.03628
-0.609128
0.600073
-1.04559
1.05507
-0.74619
0.736702
-1.06468
1.07435
-0.879041
0.869366
-1.08405
1.09374
-1.00807
0.998384
-1.10337
1.11291
-1.13388
1.12435
-1.1223
1.13149
-1.25731
1.24812
-1.14042
1.14903
-1.3794
1.3708
-1.15721
1.16487
-1.50144
1.49377
-1.1719
1.17813
-1.62501
1.61878
-1.18339
1.18746
-1.75211
1.74805
-1.19004
1.19076
-1.88531
1.88459
-1.18911
1.18437
-2.02809
2.03282
-1.17553
1.16102
-2.18543
2.19994
-1.13848
1.10409
-2.36461
2.399
-1.05152
0.969924
-2.57639
2.65799
-0.847395
0.742901
-2.85298
2.95748
-0.176793
0.396389
-0.219597
1.32088
-1.04071
-0.280172
0.508745
-0.574308
0.0655627
1.00309
-1.47471
0.471621
1.08652
-0.500728
-0.585797
0.257821
-0.0919468
-0.165874
0.348341
-1.67124
1.3229
3.99312
-5.94731
1.95419
5.30625
-2.23251
-3.07374
-1.31039
3.54112
-2.23074
-4.70724
5.13083
-0.423585
-5.40602
5.89065
-0.48463
-6.45402
6.77797
-0.323952
-6.88631
6.88588
0.000423585
-6.79968
6.74943
0.0502505
-6.72927
6.72885
0.000415775
-6.83426
6.83471
-0.000443629
-7.66361
7.85342
-0.189815
-6.73662
5.12241
1.61421
-3.78045
2.9097
0.870751
-2.37225
2.01851
0.353741
-1.76633
1.57527
0.191058
-1.42428
1.30147
0.122805
-1.19952
1.11331
0.0862113
-1.03919
0.974551
0.0646413
-0.917471
0.866595
0.0508761
-0.820833
0.779369
0.0414642
-0.741567
0.706949
0.034618
-0.67512
0.645725
0.0293947
-0.618417
0.592996
0.0254215
-0.569256
0.546998
0.0222583
-0.526051
0.506302
0.0197492
-0.487651
0.469996
0.0176551
-0.453209
0.437223
0.0159858
-0.422014
0.407518
0.0144963
-0.393673
0.380402
0.0132706
-0.367674
0.355467
0.012207
-0.343729
0.332396
0.0113333
-0.321439
0.310849
0.0105903
-0.30062
0.290719
0.00990023
-0.281097
0.271724
0.00937269
-0.262602
0.253733
0.00886897
-0.245107
0.2367
0.00840665
-0.22848
0.22044
0.00804054
-0.212579
0.204893
0.00768664
-0.197372
0.189997
0.00737484
-0.182762
0.175664
0.00709816
-0.168695
0.161849
0.00684574
-0.155121
0.148502
0.00661909
-0.141986
0.135564
0.00642174
-0.129225
0.122959
0.006266
-0.116761
0.110636
0.0061253
-0.104588
0.0986182
0.00597018
-0.0927162
0.0868691
0.00584704
-0.0810611
0.0752862
0.00577488
-0.0695459
0.0638413
0.00570461
-0.0581721
0.0525291
0.005643
-0.0469044
0.0412832
0.00562119
-0.0356656
0.0299618
0.00570383
-0.0243193
0.0183453
0.00597408
-0.78549
1.21864
-0.433147
0.917024
-1.1851
0.18266
0.0854206
1.24083
-1.09115
0.133546
-0.283223
1.00846
-1.11688
-0.728065
0.836484
1.42625
-2.00723
1.04465
-0.463667
2.38212
-2.52884
-0.174031
0.320758
2.28015
-2.17085
-1.68764
1.57835
2.18195
-2.04022
-2.48771
2.34598
1.10492
-0.390653
4.43701
-5.15127
-0.837769
1.94342
3.85216
-4.95782
-2.82373
3.69224
1.09344
-1.96195
-4.39049
5.19313
1.05466
-1.85729
-5.77524
6.158
0.766696
-1.14946
-6.35801
6.76719
0.230164
-0.639347
-7.11865
7.293
-0.00491978
-0.169428
-7.2197
6.86895
0.132416
0.218332
-6.3984
6.38085
-0.453409
0.470959
-5.87272
5.09475
-0.329041
1.10701
-4.40578
3.79776
-2.4341
3.04211
-3.22988
2.7277
-1.54043
2.04261
-2.32078
2.00732
-0.691288
1.00474
-1.76662
1.57877
-0.376672
0.564522
-1.42863
1.30595
-0.241691
0.364369
-1.20383
1.11734
-0.169634
0.256126
-1.04293
0.978065
-0.127142
0.192003
-0.920887
0.869968
-0.100028
0.150947
-0.824252
0.782907
-0.0814207
0.122765
-0.74526
0.710794
-0.0679381
0.102404
-0.679147
0.649899
-0.0577537
0.0870018
-0.622748
0.597503
-0.0499293
0.0751737
-0.573922
0.551812
-0.0437056
0.0658156
-0.531045
0.511455
-0.0388192
0.058409
-0.49295
0.475415
-0.0347221
0.0522575
-0.458757
0.442901
-0.0314328
0.0472888
-0.427782
0.413349
-0.0285458
0.0429787
-0.399566
0.386348
-0.026148
0.0393653
-0.373654
0.36147
-0.0240994
0.036284
-0.349728
0.338391
-0.0223749
0.033712
-0.327445
0.316848
-0.0209269
0.0315233
-0.306583
0.296639
-0.0196091
0.0295533
-0.286963
0.277551
-0.0185652
0.0279773
-0.26839
0.259453
-0.0175836
0.0265202
-0.250747
0.242255
-0.0167123
0.0252045
-0.233945
0.225827
-0.0159791
0.0240971
-0.217879
0.21009
-0.0152905
0.0230789
-0.202463
0.19497
-0.0146913
0.022184
-0.187618
0.180402
-0.0141546
0.0213703
-0.173304
0.166325
-0.0136664
0.020645
-0.159461
0.152694
-0.0132267
0.0199933
-0.146031
0.139463
-0.012843
0.0194111
-0.132969
0.126554
-0.0125413
0.018957
-0.120212
0.113934
-0.0122604
0.0185386
-0.107728
0.101591
-0.0119663
0.0181033
-0.0955147
0.0894903
-0.0117378
0.0177621
-0.08351
0.0775663
-0.0115866
0.0175304
-0.0716614
0.0657844
-0.011449
0.017326
-0.0599411
0.0541262
-0.0113352
0.01715
-0.0483239
0.0425329
-0.0112904
0.0170814
-0.0367388
0.0309302
-0.0114205
0.0172292
-0.0250929
0.0191996
-0.0118727
0.017766
-1.66799
2.13275
-0.464756
0.74354
-1.16566
-0.583067
1.00519
1.46239
-1.5164
0.407021
-0.353011
1.33602
-1.36426
-0.805936
0.834178
2.3653
-3.88808
-0.777382
2.30016
5.01206
-5.58451
-0.334229
0.906681
5.20524
-3.8214
-1.00739
-0.376441
3.03868
-2.61975
-1.86775
1.44882
0.67067
0.863646
5.87451
-7.40883
-0.860545
2.46689
5.64496
-7.25131
-3.72903
5.23252
3.10091
-4.6044
-6.65313
6.75268
3.00776
-3.10731
-6.29888
5.76883
1.04823
-0.518178
-5.68991
5.89451
0.920956
-1.12556
-6.22316
6.5304
0.524853
-0.832086
-6.64315
6.49597
-0.317233
0.464415
-6.11856
5.60922
-0.938402
1.44774
-4.83093
4.01029
-1.94713
2.76777
-3.4129
3.06164
-3.51815
3.86941
-2.79957
2.53366
-2.41184
2.67775
-2.26528
2.01881
-1.28465
1.53112
-1.8068
1.62906
-0.748109
0.925841
-1.48106
1.35722
-0.487631
0.611468
-1.25248
1.16269
-0.343895
0.43368
-1.08498
1.01698
-0.258066
0.326065
-0.956864
0.903347
-0.202827
0.256343
-0.855358
0.811904
-0.164839
0.208293
-0.772414
0.736305
-0.137404
0.173513
-0.703099
0.672471
-0.116704
0.147331
-0.64408
0.617651
-0.100793
0.127223
-0.593037
0.569973
-0.0882089
0.111273
-0.548292
0.527894
-0.078239
0.098636
-0.508647
0.490414
-0.0699657
0.0881985
-0.473125
0.456683
-0.063312
0.0797539
-0.441018
0.426064
-0.0575441
0.0724979
-0.411759
0.398035
-0.0526992
0.0664234
-0.384874
0.372226
-0.048606
0.0612539
-0.360037
0.348294
-0.0451473
0.0568904
-0.336965
0.325985
-0.0422031
0.0531828
-0.315363
0.305066
-0.0395948
0.0498916
-0.295059
0.285338
-0.0374616
0.0471825
-0.275877
0.266654
-0.0355033
0.0447264
-0.257681
0.248918
-0.03377
0.0425331
-0.24035
0.23198
-0.032275
0.0406448
-0.223792
0.215768
-0.0309029
0.0389266
-0.207911
0.200205
-0.0297176
0.0374241
-0.192643
0.185216
-0.028636
0.0360627
-0.177918
0.170734
-0.027656
0.0348399
-0.16367
0.156714
-0.0267943
0.0337506
-0.149855
0.143098
-0.0260217
0.0327784
-0.136435
0.12984
-0.0253965
0.031992
-0.123324
0.116879
-0.0248411
0.0312853
-0.1105
0.104194
-0.0242752
0.0305812
-0.0979503
0.0917556
-0.0238151
0.0300097
-0.0856189
0.0795175
-0.0235001
0.0296015
-0.0734503
0.0674237
-0.0232262
0.0292528
-0.0614301
0.0554593
-0.022994
0.0289649
-0.0495155
0.0435869
-0.0228931
0.0288217
-0.0376653
0.0317619
-0.0230298
0.0289332
-0.0258332
0.0199755
-0.0235762
0.0294339
-2.6679
3.52153
-0.85363
0.612027
-1.12595
-1.4037
1.91762
1.64746
-2.07448
0.201276
0.225745
2.44961
-2.91662
-1.24564
1.71266
3.52275
-4.50815
-3.5856
4.57101
5.76879
-7.26712
-2.66315
4.16149
8.84892
-9.34474
-0.550122
1.04594
6.62869
-1.92887
3.37081
-8.07064
0.926551
0.20109
8.98163
-10.1093
-0.558967
0.0451961
7.36246
-6.84868
-1.42334
3.63257
6.63515
-8.84438
-5.77592
6.70571
3.34472
-4.27451
-6.54498
6.0747
0.163126
0.307156
-5.60638
5.22887
1.07213
-0.694623
-5.0478
4.98408
0.901398
-0.837674
-4.92246
4.77032
-0.614137
0.766274
-4.4491
3.95098
-1.97402
2.47214
-3.31966
2.77924
-3.49034
4.03077
-2.51369
2.43884
-4.0836
4.15846
-2.38382
2.27466
-2.85548
2.96463
-2.12166
1.95186
-1.73712
1.90693
-1.78661
1.63558
-1.09037
1.24141
-1.50242
1.38595
-0.731535
0.847998
-1.28458
1.19566
-0.522707
0.611632
-1.11762
1.04855
-0.394254
0.463322
-0.987194
0.932197
-0.310264
0.36526
-0.882734
0.837875
-0.25212
0.296979
-0.797076
0.759687
-0.209973
0.247363
-0.725352
0.693602
-0.178269
0.210019
-0.664236
0.636845
-0.153903
0.181294
-0.611313
0.587382
-0.134576
0.158507
-0.564948
0.543812
-0.119218
0.140354
-0.523901
0.505044
-0.106566
0.125423
-0.487183
0.470181
-0.0963227
0.113325
-0.454003
0.438553
-0.0876011
0.103052
-0.423766
0.409573
-0.080246
0.0944398
-0.395966
0.382869
-0.0740068
0.0871037
-0.370276
0.35812
-0.0687323
0.0808886
-0.346398
0.335049
-0.0642398
0.0755892
-0.324074
0.313425
-0.0602677
0.0709166
-0.30312
0.293085
-0.0569721
0.0670071
-0.283336
0.273831
-0.0539958
0.0635007
-0.26458
0.255543
-0.0513532
0.0603897
-0.246731
0.238108
-0.0490585
0.057682
-0.229684
0.221426
-0.0469867
0.055244
-0.213347
0.205415
-0.045174
0.0531061
-0.197653
0.190014
-0.0435279
0.051167
-0.182518
0.175135
-0.0420521
0.0494348
-0.167878
0.160723
-0.0407409
0.0478962
-0.153683
0.146735
-0.0395671
0.0465154
-0.139888
0.133116
-0.0386093
0.0453813
-0.12643
0.119817
-0.0377617
0.0443746
-0.113277
0.106797
-0.036915
0.0433951
-0.100388
0.0940275
-0.0362287
0.0425894
-0.0877255
0.0814607
-0.0357258
0.0419905
-0.0752462
0.0690619
-0.0353029
0.0414872
-0.062921
0.0568024
-0.0349553
0.0410739
-0.0507183
0.0446544
-0.0347749
0.0408388
-0.0386084
0.0325846
-0.034837
0.0408609
-0.0265703
0.0206399
-0.0352583
0.0411888
-4.45098
5.32824
-0.877252
1.11131
-1.5359
-2.4357
2.86029
2.11314
-2.66435
-0.756073
1.30728
3.1337
-3.41873
-2.1075
2.39253
3.52018
-3.65391
-5.12266
5.25639
3.91303
-4.20401
-5.03812
5.3291
4.28942
-3.51341
-0.918819
0.142811
1.33113
-1.23406
10.2707
-10.3677
1.13924
-0.966272
10.6801
-10.853
2.71022
-1.7155
6.23636
-7.23108
0.366223
0.552756
10.6469
-11.5659
-1.60215
3.41185
5.98768
-7.79738
-4.6651
4.88123
-0.646032
0.429902
-4.44745
3.75573
0.109115
0.582604
-3.11253
2.66282
0.596056
-0.146347
-2.38794
2.18671
-0.93506
1.13629
-1.97503
1.75503
-2.86945
3.08945
-1.61454
1.64189
-4.29599
4.26865
-1.78762
1.93265
-4.10469
3.95966
-2.00389
1.99674
-3.016
3.02315
-1.9308
1.83144
-2.03883
2.13819
-1.71737
1.60209
-1.37385
1.48914
-1.49172
1.38975
-0.956887
1.05886
-1.29682
1.21311
-0.697433
0.781139
-1.13793
1.0704
-0.531243
0.598773
-1.0097
0.954771
-0.419873
0.474807
-0.905037
0.859679
-0.341756
0.387114
-0.81828
0.780209
-0.284787
0.322858
-0.745173
0.712701
-0.241858
0.274331
-0.682552
0.654466
-0.208785
0.236871
-0.628271
0.603694
-0.182542
0.20712
-0.580656
0.558933
-0.161586
0.183309
-0.538464
0.519065
-0.144371
0.16377
-0.500698
0.483206
-0.130401
0.147893
-0.466537
0.450638
-0.118599
0.134498
-0.435367
0.420772
-0.108701
0.123296
-0.406737
0.393264
-0.10027
0.113743
-0.380267
0.367759
-0.093114
0.105622
-0.355665
0.34399
-0.0869969
0.0986719
-0.332666
0.321711
-0.0816216
0.0925767
-0.311069
0.300741
-0.0770739
0.0874024
-0.2907
0.28094
-0.073042
0.0828013
-0.271412
0.262119
-0.069465
0.0787583
-0.253063
0.2442
-0.0663371
0.0752005
-0.235545
0.227059
-0.0635326
0.0720183
-0.218762
0.210616
-0.0610662
0.0692122
-0.202628
0.194787
-0.0588293
0.0666704
-0.187096
0.179518
-0.0568407
0.0644182
-0.172072
0.164727
-0.0550743
0.0624195
-0.157503
0.150371
-0.0534846
0.0606164
-0.143348
0.136402
-0.0521708
0.0591169
-0.129548
0.122758
-0.0510095
0.0577991
-0.116032
0.109397
-0.0498943
0.0565295
-0.102815
0.0963018
-0.0489681
0.0554811
-0.0898317
0.0834216
-0.0482686
0.0546787
-0.0770458
0.070721
-0.047685
0.0540098
-0.0644232
0.058169
-0.0472068
0.053461
-0.0519347
0.0457275
-0.0469092
0.0531164
-0.0395439
0.0334032
-0.0468842
0.0530249
-0.0272727
0.0212202
-0.0471252
0.0531777
-6.16567
6.96765
-0.801978
1.41013
-1.9118
-3.31202
3.81368
2.45349
-3.00276
-1.85158
2.40085
3.41198
-3.50394
-2.55961
2.65158
3.20019
-2.63933
-5.01506
4.4542
2.0561
-1.58416
-5.18383
4.71189
1.20674
-0.782717
0.563359
-0.987384
0.62857
-0.750415
10.1366
-10.0148
1.35801
-3.28592
9.18983
-7.26192
1.52764
-0.344502
10.138
-11.3211
0.333641
-0.24162
11.8151
-11.9072
-0.0399774
0.622582
9.01062
-9.59322
-1.99806
2.87629
0.199751
-1.07798
-2.92476
2.39938
-1.25087
1.77626
-1.66037
1.01158
-0.458464
1.10726
-0.582229
0.372643
-1.34654
1.55613
-0.35233
0.494302
-3.09023
2.94826
-0.759706
1.07165
-4.03645
3.72451
-1.35162
1.55711
-3.7703
3.56481
-1.68053
1.73236
-2.99723
2.9454
-1.72761
1.68443
-2.20779
2.25097
-1.61702
1.53718
-1.58562
1.66546
-1.45279
1.36907
-1.15134
1.23506
-1.28907
1.21426
-0.860094
0.934905
-1.14527
1.08175
-0.663893
0.727414
-1.02355
0.970263
-0.528541
0.581831
-0.921418
0.876567
-0.431871
0.476723
-0.835283
0.797245
-0.360712
0.39875
-0.761961
0.729206
-0.306661
0.339417
-0.698721
0.670265
-0.264881
0.293337
-0.643626
0.618633
-0.231677
0.25667
-0.595177
0.573022
-0.205046
0.227201
-0.552078
0.532235
-0.1832
0.203043
-0.513401
0.495489
-0.165412
0.183324
-0.478414
0.462127
-0.15052
0.166807
-0.446499
0.431515
-0.137975
0.15296
-0.417153
0.403307
-0.127301
0.141147
-0.389963
0.377097
-0.118218
0.131084
-0.364701
0.352693
-0.110423
0.122432
-0.341062
0.329792
-0.103603
0.114874
-0.318865
0.308263
-0.0977804
0.108382
-0.297978
0.287945
-0.0926193
0.102653
-0.278162
0.268622
-0.088078
0.097618
-0.259313
0.250219
-0.0840875
0.0931816
-0.241325
0.232636
-0.0805442
0.0892339
-0.224111
0.215758
-0.0773774
0.08573
-0.207569
0.199531
-0.0745263
0.0825641
-0.191633
0.183864
-0.0720135
0.0797822
-0.176232
0.168702
-0.0697812
0.0773112
-0.161283
0.153972
-0.0677625
0.0750741
-0.146761
0.139644
-0.0660759
0.0731932
-0.132611
0.12567
-0.0646105
0.0715519
-0.118805
0.111996
-0.0632023
0.0700105
-0.105253
0.0985701
-0.0620277
0.068711
-0.0919434
0.0853693
-0.06112
0.0676941
-0.0788547
0.0723706
-0.0603644
0.0668485
-0.0659256
0.0595167
-0.0597449
0.0661538
-0.0531407
0.0467949
-0.0593399
0.0656857
-0.0404776
0.0342042
-0.0591995
0.065473
-0.0279468
0.0217347
-0.0592629
0.0654749
-7.77147
8.48618
-0.714718
1.37104
-1.81912
-4.3131
4.76118
2.35708
-2.88183
-2.94045
3.46519
3.27867
-3.37724
-2.72485
2.82342
3.01344
-2.15209
-3.68414
2.82279
1.01082
-0.0597441
-3.98206
3.03099
-0.404595
0.214202
1.06491
-0.874519
0.722167
-1.46716
9.67381
-8.92882
2.15287
-1.6445
6.82726
-7.33562
0.336119
-0.259888
11.2754
-11.3517
0.246532
-0.231648
11.9309
-11.9458
0.0881222
0.0608223
9.82916
-9.97811
-0.568439
1.30564
1.92816
-2.66536
-1.67854
1.57821
-2.08291
2.18324
-1.20986
0.786444
-1.66244
2.08585
-0.440705
0.251685
-1.75865
1.94767
-0.241755
0.381073
-2.77804
2.63872
-0.610048
0.865543
-3.426
3.1705
-1.10061
1.28934
-3.36501
3.17628
-1.42279
1.50229
-2.87793
2.79843
-1.53461
1.53106
-2.27252
2.27606
-1.50024
1.4516
-1.72845
1.77709
-1.3926
1.32857
-1.30794
1.37197
-1.264
1.20051
-1.00369
1.06719
-1.13967
1.0822
-0.787591
0.845064
-1.02823
0.978065
-0.633276
0.68344
-0.931545
0.888213
-0.520562
0.563895
-0.847942
0.810387
-0.436207
0.473761
-0.775479
0.742917
-0.371854
0.404416
-0.712567
0.684073
-0.321607
0.350102
-0.657259
0.63209
-0.281561
0.30673
-0.608365
0.585948
-0.249322
0.271739
-0.564761
0.544553
-0.222844
0.243052
-0.525382
0.507129
-0.20126
0.219513
-0.489711
0.473017
-0.183125
0.199819
-0.457099
0.441796
-0.167984
0.183287
-0.427095
0.412942
-0.155032
0.169184
-0.399268
0.386108
-0.143993
0.157153
-0.373433
0.361147
-0.13448
0.146766
-0.349244
0.337682
-0.126155
0.137718
-0.326494
0.315639
-0.119024
0.129879
-0.305111
0.294832
-0.112722
0.123001
-0.284787
0.275013
-0.107193
0.116967
-0.265477
0.256165
-0.102309
0.111621
-0.24708
0.238144
-0.0979515
0.106887
-0.229413
0.220859
-0.0941127
0.102667
-0.212473
0.204241
-0.090629
0.0988608
-0.196153
0.188196
-0.0875794
0.0955363
-0.180365
0.172654
-0.0848678
0.0925789
-0.165057
0.157552
-0.0823932
0.0898976
-0.150186
0.142899
-0.0803342
0.0876209
-0.1357
0.128566
-0.0785093
0.0856426
-0.121526
0.114559
-0.0768443
0.0838116
-0.107674
0.100834
-0.0754145
0.0822542
-0.0940383
0.0873119
-0.0742886
0.081015
-0.0806354
0.0740032
-0.0733513
0.0799835
-0.0674273
0.0608596
-0.0725671
0.0791348
-0.0543414
0.0478555
-0.0720474
0.0785332
-0.0414004
0.0349764
-0.0717727