/*--------------------------------*- C++ -*----------------------------------*\
| =========                 |                                                 |
| \\      /  F ield         | OpenFOAM: The Open Source CFD Toolbox           |
|  \\    /   O peration     | Version:  v1912                                 |
|   \\  /    A nd           | Website:  www.openfoam.com                      |
|    \\/     M anipulation  |                                                 |
\*---------------------------------------------------------------------------*/
FoamFile
{
    version     2.0;
    format      ascii;
    class       volVectorField;
    location    "8";
    object      U;
}
// * * * * * * * * * * * * * * * * * * * * * * * * * * * * * * * * * * * * * //

dimensions      [0 1 -1 0 0 0 0];


internalField   nonuniform List<vector> 
20320
(
(1.89758 0.00495341 0)
(1.90067 -0.0079587 0)
(1.88789 0.000850643 0)
(1.86663 0.0035026 0)
(1.84481 0.0105602 0)
(1.81413 0.00977872 0)
(1.78569 0.0118672 0)
(1.7557 0.00823262 0)
(1.73132 0.00852744 0)
(1.7053 0.0189035 0)
(1.65817 0.0353972 0)
(1.57659 0.0630492 0)
(1.44701 0.101028 0)
(1.26202 0.146682 0)
(1.01997 0.196737 0)
(0.728914 0.233501 0)
(0.424804 0.221248 0)
(0.158317 0.163529 0)
(-0.0272144 0.0700752 0)
(-0.0898973 -0.0711093 0)
(1.89771 0.00853842 0)
(1.89156 0.0244085 0)
(1.87587 0.0437547 0)
(1.85356 0.0615434 0)
(1.8273 0.076467 0)
(1.79564 0.0850117 0)
(1.75785 0.0910471 0)
(1.7109 0.0992684 0)
(1.64075 0.132618 0)
(1.54406 0.187411 0)
(1.4271 0.259402 0)
(1.29569 0.34676 0)
(1.15349 0.444102 0)
(1.00406 0.541003 0)
(0.852143 0.620958 0)
(0.702603 0.661093 0)
(0.55681 0.639452 0)
(0.41314 0.548135 0)
(0.269089 0.393088 0)
(0.119997 0.175845 0)
(1.89773 0.0130222 0)
(1.89075 0.0513254 0)
(1.87377 0.0874048 0)
(1.84875 0.121762 0)
(1.82034 0.149715 0)
(1.78083 0.173209 0)
(1.72603 0.208165 0)
(1.64576 0.271964 0)
(1.54496 0.353102 0)
(1.4295 0.444022 0)
(1.30388 0.542034 0)
(1.17277 0.644737 0)
(1.04097 0.746882 0)
(0.912644 0.838962 0)
(0.790363 0.907388 0)
(0.67367 0.936861 0)
(0.558058 0.915565 0)
(0.435796 0.840777 0)
(0.298453 0.719163 0)
(0.140792 0.551185 0)
(1.89765 0.0183921 0)
(1.891 0.0750372 0)
(1.87232 0.1335 0)
(1.84644 0.182864 0)
(1.81301 0.230619 0)
(1.75935 0.291017 0)
(1.68118 0.379587 0)
(1.58476 0.482928 0)
(1.47598 0.591793 0)
(1.35869 0.701972 0)
(1.23626 0.811003 0)
(1.11205 0.916024 0)
(0.989316 1.01242 0)
(0.870467 1.09331 0)
(0.756225 1.15014 0)
(0.644837 1.17458 0)
(0.531955 1.16136 0)
(0.411593 1.11057 0)
(0.277987 1.02687 0)
(0.128684 0.906963 0)
(1.898 0.0232741 0)
(1.88955 0.102276 0)
(1.87207 0.174785 0)
(1.84419 0.248074 0)
(1.80021 0.331449 0)
(1.73007 0.443828 0)
(1.64158 0.569617 0)
(1.54086 0.697801 0)
(1.43176 0.823668 0)
(1.31709 0.944696 0)
(1.19932 1.05877 0)
(1.08073 1.16331 0)
(0.963219 1.25473 0)
(0.847955 1.32852 0)
(0.734853 1.37975 0)
(0.622316 1.40426 0)
(0.50738 1.40003 0)
(0.386399 1.36795 0)
(0.25614 1.31066 0)
(0.116028 1.22209 0)
(1.89752 0.0288718 0)
(1.89127 0.124201 0)
(1.87019 0.221177 0)
(1.83996 0.323124 0)
(1.78222 0.458177 0)
(1.70401 0.608925 0)
(1.61265 0.759634 0)
(1.51222 0.904913 0)
(1.40539 1.04252 0)
(1.29423 1.1709 0)
(1.1805 1.28844 0)
(1.0657 1.39309 0)
(0.950973 1.48233 0)
(0.836834 1.55331 0)
(0.723026 1.60329 0)
(0.608436 1.63029 0)
(0.491274 1.63372 0)
(0.369503 1.61453 0)
(0.24145 1.57398 0)
(0.107605 1.50418 0)
(1.89775 0.0324524 0)
(1.89029 0.149743 0)
(1.87079 0.266689 0)
(1.83056 0.417689 0)
(1.76501 0.595412 0)
(1.68459 0.772881 0)
(1.59399 0.941852 0)
(1.49593 1.10029 0)
(1.39231 1.24731 0)
(1.28466 1.38202 0)
(1.17422 1.50328 0)
(1.06203 1.60961 0)
(0.948779 1.6993 0)
(0.834753 1.77057 0)
(0.719756 1.82194 0)
(0.603127 1.8525 0)
(0.483885 1.86226 0)
(0.360977 1.85203 0)
(0.233641 1.82216 0)
(0.102997 1.76355 0)
(1.89758 0.0367946 0)
(1.89005 0.171744 0)
(1.86868 0.32328 0)
(1.81948 0.523688 0)
(1.75179 0.731742 0)
(1.67256 0.929146 0)
(1.58475 1.11285 0)
(1.49018 1.28261 0)
(1.39021 1.43832 0)
(1.28596 1.57955 0)
(1.17832 1.70555 0)
(1.06802 1.8153 0)
(0.955542 1.90765 0)
(0.841093 1.9815 0)
(0.724613 2.036 0)
(0.605798 2.07079 0)
(0.484213 2.08611 0)
(0.359427 2.08255 0)
(0.231244 2.05989 0)
(0.101224 2.00812 0)
(1.89728 0.0413652 0)
(1.89111 0.191739 0)
(1.86299 0.39274 0)
(1.81038 0.630556 0)
(1.74411 0.860849 0)
(1.66818 1.07443 0)
(1.58444 1.27108 0)
(1.49411 1.4515 0)
(1.39812 1.61604 0)
(1.29727 1.7646 0)
(1.1922 1.8967 0)
(1.08341 2.01165 0)
(0.971269 2.10865 0)
(0.855983 2.18695 0)
(0.737625 2.24606 0)
(0.616172 2.28582 0)
(0.49158 2.30649 0)
(0.363858 2.30847 0)
(0.233225 2.29112 0)
(0.101623 2.24366 0)
(1.89753 0.0438308 0)
(1.89047 0.218694 0)
(1.85704 0.466963 0)
(1.8053 0.731527 0)
(1.74271 0.979329 0)
(1.67152 1.20699 0)
(1.59285 1.41574 0)
(1.50742 1.60681 0)
(1.41583 1.78081 0)
(1.31859 1.93784 0)
(1.21609 2.0776 0)
(1.10868 2.19959 0)
(0.996619 2.30317 0)
(0.880121 2.38777 0)
(0.759371 2.45299 0)
(0.634566 2.49871 0)
(0.505977 2.52505 0)
(0.37398 2.53222 0)
(0.239166 2.51922 0)
(0.103888 2.47458 0)
(1.89806 0.0446266 0)
(1.88816 0.253393 0)
(1.85333 0.538562 0)
(1.80512 0.822857 0)
(1.74779 1.08527 0)
(1.68254 1.32574 0)
(1.60987 1.54626 0)
(1.53012 1.74832 0)
(1.44355 1.93266 0)
(1.35037 2.0995 0)
(1.25076 2.24864 0)
(1.14486 2.37962 0)
(1.03281 2.49186 0)
(0.914808 2.58478 0)
(0.791085 2.6579 0)
(0.662017 2.71094 0)
(0.528148 2.74383 0)
(0.390213 2.75644 0)
(0.249213 2.74745 0)
(0.108015 2.7047 0)
(1.89841 0.045696 0)
(1.88578 0.291156 0)
(1.85288 0.602961 0)
(1.80999 0.902395 0)
(1.75924 1.17743 0)
(1.70105 1.42983 0)
(1.63543 1.662 0)
(1.56233 1.87552 0)
(1.48168 2.0712 0)
(1.39338 2.24929 0)
(1.29733 2.40963 0)
(1.19344 2.55173 0)
(1.08165 2.67496 0)
(0.962036 2.77857 0)
(0.834807 2.86185 0)
(0.700438 2.92419 0)
(0.559713 2.9651 0)
(0.413755 2.98402 0)
(0.264078 2.97921 0)
(0.114272 2.93776 0)
(1.89848 0.048195 0)
(1.88451 0.327136 0)
(1.85583 0.657544 0)
(1.81963 0.968792 0)
(1.77668 1.25484 0)
(1.72673 1.51844 0)
(1.66936 1.76216 0)
(1.60415 1.98759 0)
(1.53069 2.19558 0)
(1.44852 2.38638 0)
(1.35723 2.55981 0)
(1.25637 2.71535 0)
(1.14559 2.85222 0)
(1.02466 2.96941 0)
(0.893637 3.06581 0)
(0.752932 3.14025 0)
(0.60349 3.19156 0)
(0.446849 3.21847 0)
(0.285214 3.21858 0)
(0.123277 3.17805 0)
(1.89833 0.0520096 0)
(1.88477 0.357949 0)
(1.86184 0.700788 0)
(1.8335 1.02112 0)
(1.7995 1.31667 0)
(1.75905 1.5907 0)
(1.71133 1.84574 0)
(1.65554 2.08337 0)
(1.59094 2.30444 0)
(1.51671 2.50924 0)
(1.43201 2.69762 0)
(1.33598 2.86902 0)
(1.22775 3.02252 0)
(1.1066 3.15681 0)
(0.972098 3.27022 0)
(0.824321 3.36079 0)
(0.664131 3.42626 0)
(0.493409 3.46415 0)
(0.315284 3.47081 0)
(0.136231 3.43101 0)
(1.8981 0.0563025 0)
(1.8865 0.381565 0)
(1.87038 0.731831 0)
(1.85087 1.05873 0)
(1.82692 1.36225 0)
(1.79724 1.64571 0)
(1.76066 1.91156 0)
(1.71609 2.16132 0)
(1.66244 2.39588 0)
(1.59855 2.61562 0)
(1.52313 2.8205 0)
(1.43474 3.01007 0)
(1.33185 3.18337 0)
(1.21291 3.33886 0)
(1.07654 3.47434 0)
(0.921931 3.58678 0)
(0.749246 3.67239 0)
(0.560291 3.72654 0)
(0.359228 3.74318 0)
(0.155512 3.70431 0)
(1.89787 0.0601089 0)
(1.8894 0.396952 0)
(1.88079 0.750325 0)
(1.87087 1.08134 0)
(1.8579 1.3911 0)
(1.84018 1.68274 0)
(1.81627 1.95847 0)
(1.78486 2.21977 0)
(1.74461 2.46759 0)
(1.69407 2.70253 0)
(1.6315 2.92483 0)
(1.55489 3.13434 0)
(1.46186 3.33037 0)
(1.3497 3.51148 0)
(1.21554 3.67514 0)
(1.05669 3.81743 0)
(0.871366 3.93255 0)
(0.659911 4.01254 0)
(0.426806 4.04658 0)
(0.186206 4.01028 0)
(1.8977 0.0626854 0)
(1.89307 0.4038 0)
(1.89233 0.756385 0)
(1.89247 1.08905 0)
(1.89114 1.40313 0)
(1.88636 1.7013 0)
(1.87654 1.98547 0)
(1.86024 2.25701 0)
(1.83603 2.51703 0)
(1.80228 2.76643 0)
(1.757 3.00593 0)
(1.69767 3.23599 0)
(1.62114 3.45663 0)
(1.52341 3.66711 0)
(1.3996 3.86544 0)
(1.24402 4.04758 0)
(1.05074 4.20622 0)
(0.815287 4.32927 0)
(0.538742 4.39745 0)
(0.240204 4.37109 0)
(1.89757 0.0636371 0)
(1.8971 0.402372 0)
(1.90423 0.750592 0)
(1.91451 1.0824 0)
(1.92513 1.39867 0)
(1.93393 1.70135 0)
(1.93929 1.99193 0)
(1.93984 2.27166 0)
(1.93422 2.54179 0)
(1.92086 2.8036 0)
(1.89777 3.05845 0)
(1.86233 3.30768 0)
(1.81099 3.55251 0)
(1.7389 3.79377 0)
(1.63935 4.03136 0)
(1.50317 4.26328 0)
(1.31803 4.48354 0)
(1.06878 4.67834 0)
(0.74201 4.81825 0)
(0.349546 4.83225 0)
(1.89748 0.0629143 0)
(1.90107 0.393399 0)
(1.91569 0.733989 0)
(1.93578 1.06246 0)
(1.95819 1.37861 0)
(1.98073 1.68342 0)
(2.00191 1.97783 0)
(2.02058 2.26292 0)
(2.03566 2.54001 0)
(2.04591 2.81078 0)
(2.04975 3.07718 0)
(2.045 3.34156 0)
(2.02858 3.60655 0)
(1.996 3.87515 0)
(1.94051 4.15058 0)
(1.85148 4.43591 0)
(1.71151 4.73267 0)
(1.49144 5.03647 0)
(1.14453 5.3228 0)
(0.623048 5.48866 0)
(1.89743 0.0607376 0)
(1.90463 0.377995 0)
(1.92597 0.708056 0)
(1.95507 1.03078 0)
(1.98859 1.34439 0)
(2.02448 1.64867 0)
(2.06151 1.94389 0)
(2.09891 2.23085 0)
(2.13603 2.51089 0)
(2.17224 2.78588 0)
(2.20668 3.05825 0)
(2.23823 3.33101 0)
(2.26531 3.6079 0)
(2.28561 3.8937 0)
(2.29558 4.19479 0)
(2.28924 4.52028 0)
(2.25516 4.8842 0)
(2.1684 5.30977 0)
(1.96332 5.83686 0)
(1.49297 6.4294 0)
(-4.01659 0.657363 0)
(-8.09344 -1.26989 0)
(-2.49731 0.281857 0)
(-5.58704 0.711847 9.6683e-22)
(-0.589291 -2.69639 0)
(0.0629318 -1.03648 0)
(-3.22392 1.89151 0)
(-23.3904 2.50432 0)
(-10.5258 -6.44386 0)
(10.6383 -4.15372 4.32277e-19)
(20.0333 -0.634648 0)
(22.3455 -0.94906 0)
(25.6323 -0.765002 -5.41181e-21)
(26.7361 -1.41217 -2.50936e-21)
(26.4147 -2.1241 0)
(26.4189 -4.24576 1.59678e-21)
(27.3238 -7.75715 -3.66599e-20)
(34.5864 -3.67372 8.07515e-19)
(22.1329 0.977384 0)
(12.1598 0.778307 5.29993e-20)
(8.25243 0.328733 -4.78378e-20)
(6.34617 0.19003 -6.73113e-20)
(5.19808 0.124752 2.50088e-20)
(4.42092 0.0877267 -1.94145e-20)
(3.8549 0.0658293 0)
(3.41846 0.0518972 -1.29744e-20)
(3.06821 0.0423155 0)
(2.77875 0.0353725 9.41667e-21)
(2.5348 0.0300842 1.63637e-20)
(2.32554 0.0260457 0)
(2.14343 0.0228544 6.36266e-21)
(1.98274 0.0202907 -5.66976e-21)
(1.8396 0.0181589 2.5492e-21)
(1.71075 0.0164585 -2.29999e-21)
(1.59395 0.0149222 0)
(1.48759 0.0136672 0)
(1.38986 0.0125709 -1.72616e-21)
(1.29963 0.011667 0)
(1.21547 0.0109033 1.44432e-21)
(1.13684 0.0101861 0)
(1.06286 0.0096418 0)
(0.99277 0.00911883 1.1197e-21)
(0.926431 0.00863168 0)
(0.863241 0.00825783 0)
(0.802806 0.00789453 -8.60148e-22)
(0.744944 0.00756444 -7.90005e-22)
(0.689312 0.00727529 0)
(0.635716 0.00701319 3.30508e-22)
(0.583962 0.00677613 -3.00142e-22)
(0.533836 0.00657305 2.70912e-22)
(0.485059 0.00641048 0)
(0.437395 0.00626459 -2.14599e-22)
(0.39088 0.0061014 0)
(0.345456 0.00597101 8.4389e-23)
(0.300766 0.00589735 0)
(0.256609 0.005824 0)
(0.212977 0.00575883 1.74574e-27)
(0.16972 0.00573741 6.49495e-28)
(0.127865 0.00583459 0)
(0.0890465 0.00614086 0)
(-6.19747 1.97039 0)
(-4.76364 -0.58408 0)
(-4.31951 -0.39392 6.0888e-21)
(-4.5492 1.54297 0)
(-4.94004 -1.76378 0)
(-10.508 1.23282 3.02491e-19)
(-9.62649 3.2673 4.21697e-20)
(-11.6352 4.80451 0)
(1.13306 -9.38481 -2.84191e-22)
(8.7686 -9.32196 1.93456e-19)
(13.9765 -2.9423 -3.65823e-23)
(18.8135 -1.45792 -8.85101e-19)
(23.2537 -1.29541 3.34823e-19)
(24.8255 -1.23283 0)
(27.5561 -0.181643 0)
(27.0457 -0.433571 2.53047e-20)
(24.812 -1.46842 0)
(20.995 -0.000611392 0)
(13.439 5.3727 2.53546e-22)
(9.86825 3.58387 0)
(7.56088 1.69235 0)
(6.00086 0.936704 0)
(4.97201 0.603008 2.52673e-20)
(4.25535 0.423737 -1.95933e-20)
(3.72511 0.317582 1.57451e-20)
(3.31331 0.249769 1.30049e-20)
(2.98165 0.203276 0)
(2.70713 0.169582 0)
(2.47523 0.144099 8.15885e-21)
(2.27583 0.124561 4.04017e-24)
(2.10204 0.109049 0)
(1.9485 0.0968141 -3.46095e-24)
(1.81148 0.0866125 -5.07384e-21)
(1.68789 0.0784088 0)
(1.57564 0.0712356 0)
(1.47303 0.0652368 -3.77082e-21)
(1.37855 0.0601387 0)
(1.29097 0.0558626 0)
(1.2092 0.0522361 0)
(1.13253 0.0489705 -1.32193e-21)
(1.06017 0.0463617 -1.21634e-21)
(0.99156 0.0439387 2.23714e-21)
(0.926344 0.0417625 -1.0248e-21)
(0.864098 0.0399315 0)
(0.804498 0.0382336 8.61097e-22)
(0.747241 0.0367463 0)
(0.692063 0.0354012 -7.25672e-22)
(0.63879 0.0341905 3.31167e-22)
(0.58721 0.0331072 3.00988e-22)
(0.53714 0.0321452 -2.71879e-22)
(0.488352 0.0313911 2.42811e-22)
(0.440654 0.0306977 2.15343e-22)
(0.394002 0.0299736 -3.83216e-22)
(0.348294 0.0294002 0)
(0.303296 0.0290195 0)
(0.258848 0.0286825 0)
(0.214877 0.0283936 0)
(0.171248 0.0282796 2.02299e-23)
(0.1288 0.0285637 -2.21e-23)
(0.0892589 0.0295752 0)
(-8.32354 3.84879 0)
(-5.49546 1.92171 -3.61357e-20)
(-5.44409 -0.851694 0)
(-5.22199 1.66447 4.31785e-20)
(-13.5761 2.93654 3.2856e-20)
(-21.011 1.07929 -2.39554e-19)
(-16.637 1.34179 0)
(-13.6326 5.38554 5.48774e-18)
(8.53206 -12.8844 0)
(7.81811 -12.5628 0)
(21.5326 -9.3477 0)
(28.1121 -6.32645 0)
(22.6434 -1.46255 0)
(22.2385 -2.17607 0)
(24.256 -1.2329 0)
(24.3514 0.721563 0)
(21.2847 2.13652 0)
(14.7381 4.66582 7.2916e-20)
(9.21423 7.36552 0)
(8.10815 5.06053 0)
(6.9956 2.79458 0)
(5.82766 1.6591 0)
(4.92053 1.08882 0)
(4.2461 0.77014 0)
(3.73008 0.578411 0)
(3.32293 0.454658 0)
(2.99273 0.369495 0)
(2.71849 0.307859 0)
(2.48626 0.26144 8.32158e-21)
(2.28622 0.225796 0)
(2.11171 0.197516 -6.44689e-21)
(1.95753 0.175138 0)
(1.82002 0.156631 0)
(1.69604 0.141665 0)
(1.58344 0.128765 0)
(1.48033 0.11796 0)
(1.38524 0.108774 -1.74048e-21)
(1.29703 0.101029 0)
(1.21472 0.0944516 0)
(1.13752 0.0886009 0)
(1.06469 0.0838076 1.22752e-21)
(0.995713 0.0794469 -1.12904e-21)
(0.930161 0.0755497 1.03362e-21)
(0.867597 0.0722004 0)
(0.807713 0.0691478 8.67843e-22)
(0.750191 0.0664797 0)
(0.694788 0.0640606 0)
(0.641286 0.0618856 0)
(0.589466 0.0599472 0)
(0.539162 0.05822 -2.73726e-22)
(0.49017 0.0568279 0)
(0.442288 0.0555724 -4.33097e-22)
(0.395444 0.0543147 0)
(0.349523 0.0532985 0)
(0.304329 0.0525769 -7.34016e-23)
(0.25972 0.0519611 6.09754e-23)
(0.215603 0.0514519 -1.01008e-22)
(0.17186 0.0512057 2.03428e-23)
(0.129222 0.051453 0)
(0.0897295 0.0524957 2.42877e-24)
(-10.5253 4.94062 0)
(-5.95783 3.27807 0)
(-6.96629 -0.0698757 0)
(-10.9065 3.19088 0)
(-18.0987 8.19052 8.07815e-20)
(-26.8328 6.84593 0)
(-36.4588 1.94086 0)
(-4.79644 -12.6018 -2.84317e-20)
(6.34513 -19.1189 0)
(9.12149 -13.8498 8.96837e-22)
(15.8864 -15.1641 -1.6314e-18)
(26.1846 -6.57643 0)
(23.3027 0.251906 0)
(20.4532 -1.98715 4.75144e-23)
(18.8747 -1.85009 -1.5268e-22)
(17.3841 1.3136 -3.11119e-23)
(13.9945 4.3647 4.24379e-20)
(8.29586 7.51129 0)
(6.03155 8.17842 -5.53754e-20)
(6.52388 5.74998 0)
(6.22149 3.59817 -1.37544e-22)
(5.48756 2.30114 7.36011e-23)
(4.77344 1.5579 -3.79405e-23)
(4.17909 1.11842 1.90975e-20)
(3.6987 0.845407 -1.58537e-20)
(3.3086 0.665883 0)
(2.98714 0.541243 0)
(2.71775 0.450787 -1.4223e-24)
(2.48827 0.382721 5.3157e-25)
(2.28978 0.330389 0)
(2.11608 0.288877 6.52262e-21)
(1.96235 0.255847 0)
(1.82516 0.22866 0)
(1.70139 0.206638 0)
(1.58885 0.187894 -8.49922e-21)
(1.48557 0.172172 0)
(1.39019 0.158788 0)
(1.30162 0.147462 -1.60518e-21)
(1.21892 0.137811 2.93934e-21)
(1.14134 0.12929 -1.34633e-21)
(1.06818 0.12219 -2.47418e-21)
(0.99895 0.115802 0)
(0.933145 0.110131 -2.082e-21)
(0.870351 0.1052 0)
(0.810251 0.100756 -8.73735e-22)
(0.752528 0.0968626 8.02299e-22)
(0.696951 0.0933292 0)
(0.643285 0.0901669 3.35469e-22)
(0.591286 0.0873576 0)
(0.540801 0.0848398 -2.7532e-22)
(0.49164 0.0827784 -2.45741e-22)
(0.443611 0.0809425 2.1775e-22)
(0.396614 0.0791505 -1.93716e-22)
(0.350525 0.0776799 -1.72027e-22)
(0.305176 0.0765942 0)
(0.260443 0.0756817 6.11505e-23)
(0.216225 0.0749323 5.0776e-23)
(0.172415 0.0745163 -2.04166e-23)
(0.12972 0.0746076 0)
(0.0904357 0.0753403 0)
(-9.20747 9.99118 -1.41407e-19)
(-7.64238 5.19451 2.94516e-20)
(-9.64818 2.0251 0)
(-14.0233 4.48088 1.04659e-20)
(-17.4665 10.4134 9.88277e-20)
(-19.4238 10.411 0)
(-16.5701 1.01867 0)
(4.48045 -20.2688 -1.34204e-21)
(4.88859 -21.3576 6.71196e-22)
(-6.55531 -10.4229 -2.95218e-18)
(10.0959 -22.9608 4.69529e-19)
(13.8744 -14.4648 1.12459e-21)
(18.0873 1.2119 -2.01361e-19)
(14.6604 0.453748 0)
(10.3312 -0.791461 -1.16098e-22)
(7.47487 2.09553 -1.00862e-19)
(4.58617 6.03982 0)
(2.64307 8.55728 7.621e-20)
(3.89607 7.93853 4.82241e-20)
(5.1615 5.93439 0)
(5.37678 4.10511 1.18201e-20)
(5.03388 2.81298 -8.16396e-23)
(4.5373 1.97972 0)
(4.0512 1.45183 0)
(3.6266 1.10915 1.51837e-20)
(3.26644 0.878077 1.22045e-23)
(2.96194 0.715307 0)
(2.70269 0.596324 0)
(2.47951 0.506563 3.55604e-24)
(2.28507 0.437345 0)
(2.11404 0.382393 -1.30975e-20)
(1.96216 0.338459 -1.30526e-24)
(1.82623 0.302388 5.23933e-21)
(1.7033 0.273096 -9.45065e-21)
(1.59129 0.248394 8.54908e-21)
(1.48827 0.227684 7.76073e-21)
(1.39299 0.210033 0)
(1.30438 0.195038 -2.13805e-25)
(1.22158 0.182213 0)
(1.14385 0.170956 1.35421e-21)
(1.07053 0.161433 1.24345e-21)
(1.00119 0.152944 1.14334e-21)
(0.935257 0.145452 1.04597e-21)
(0.872336 0.138891 -9.56828e-22)
(0.812104 0.133017 8.78647e-22)
(0.754256 0.127843 8.06157e-22)
(0.698579 0.123155 -1.47786e-21)
(0.644805 0.118992 3.5462e-25)
(0.592681 0.115297 3.06133e-22)
(0.542059 0.111968 -2.76196e-22)
(0.492776 0.109207 2.46637e-22)
(0.444643 0.106775 0)
(0.397533 0.104445 1.94628e-22)
(0.351318 0.102507 -1.72713e-22)
(0.305855 0.101033 0)
(0.261034 0.0998039 6.14806e-23)
(0.216744 0.0987964 5.10225e-23)
(0.172897 0.0981769 5.76569e-26)
(0.130202 0.0980526 0)
(0.0910709 0.0984299 -4.96051e-24)
(-9.06173 12.6163 -1.23458e-19)
(-9.44059 6.93737 0)
(-11.66 4.16038 -1.62571e-22)
(-14.9574 5.12013 0)
(-14.636 9.41721 0)
(-10.8919 9.84937 -4.36624e-19)
(-2.86747 -1.6012 0)
(6.2078 -19.6212 -7.84266e-20)
(-2.54962 -14.8163 2.64362e-18)
(8.28094 -22.8459 -2.15574e-19)
(8.66569 -23.17 8.85274e-21)
(8.02399 -18.7165 -6.61121e-19)
(10.1872 -1.21157 -2.81701e-19)
(8.60824 2.98983 4.81866e-21)
(3.76317 1.55027 0)
(0.436561 2.92019 8.94037e-20)
(-0.741432 6.0008 0)
(0.531898 7.60511 0)
(2.66635 7.16698 -7.9467e-20)
(4.05365 5.81072 0)
(4.56557 4.36017 0)
(4.5261 3.17943 -1.39105e-20)
(4.23248 2.33314 -3.24197e-20)
(3.86897 1.75445 0)
(3.51521 1.35964 -1.40979e-20)
(3.19631 1.08499 0)
(2.91653 0.887766 1.08134e-20)
(2.67259 0.741947 0)
(2.45926 0.631231 1.66076e-20)
(2.27153 0.545386 0)
(2.10516 0.477118 -6.52168e-21)
(1.95655 0.422303 5.82531e-21)
(1.82281 0.37735 0)
(1.70135 0.340703 -4.72626e-21)
(1.59039 0.309986 4.27932e-21)
(1.48814 0.284235 -3.88754e-21)
(1.39342 0.262264 -1.29659e-24)
(1.30512 0.243558 1.61777e-21)
(1.22253 0.22749 -1.48292e-21)
(1.1449 0.213444 5.27396e-25)
(1.07166 0.201413 0)
(1.00238 0.190773 -1.14633e-21)
(0.93643 0.181417 -1.04882e-21)
(0.873487 0.173185 0)
(0.813217 0.16585 -4.49755e-25)
(0.75533 0.15935 -8.08661e-22)
(0.699627 0.153472 7.4134e-22)
(0.6458 0.148299 6.76306e-22)
(0.593607 0.143703 -6.1452e-22)
(0.542907 0.139546 -2.76698e-22)
(0.493546 0.136061 2.469e-22)
(0.445349 0.133013 2.19345e-22)
(0.398176 0.130144 -1.94977e-22)
(0.351884 0.127727 0)
(0.30635 0.125847 1.48268e-22)
(0.261474 0.124283 0)
(0.217142 0.122999 5.10983e-23)
(0.173276 0.122147 0)
(0.130592 0.121789 0)
(0.0915266 0.121855 0)
(-9.91846 15.822 9.84466e-20)
(-10.0507 8.85409 0)
(-12.1712 6.23329 0)
(-14.4398 5.37012 2.72163e-20)
(-12.1205 6.33249 0)
(-4.7526 6.93187 0)
(2.7951 -1.88811 0)
(5.30246 -18.3656 0)
(-3.61595 -13.3592 0)
(8.38084 -21.9302 0)
(8.76879 -23.1949 0)
(7.88157 -19.097 -3.6851e-20)
(5.27567 -4.48268 0)
(4.39961 4.21318 0)
(1.90229 3.63927 6.63931e-20)
(-0.282141 3.56692 0)
(-0.876596 5.23625 -8.34075e-23)
(0.308778 6.39906 0)
(1.95646 6.35718 -8.39655e-23)
(3.20467 5.52145 0)
(3.84649 4.42703 0)
(4.0071 3.41178 -8.7253e-21)
(3.88644 2.60795 -1.25672e-20)
(3.64511 2.01469 1.33175e-20)
(3.36965 1.58812 -1.27112e-20)
(3.09987 1.28066 0)
(2.85126 1.05469 1.66887e-23)
(2.62747 0.885046 1.33183e-23)
(2.42744 0.754915 0)
(2.24899 0.653221 -7.2098e-21)
(2.08921 0.572094 0)
(1.94525 0.506707 -5.76943e-21)
(1.81475 0.453098 4.09258e-24)
(1.69552 0.409168 -4.69667e-21)
(1.58614 0.372418 0)
(1.48509 0.341581 3.87657e-21)
(1.3913 0.315276 -3.53455e-21)
(1.30369 0.292841 -3.23269e-21)
(1.22163 0.273489 -1.48145e-21)
(1.14441 0.25662 -1.35758e-21)
(1.07147 0.242037 0)
(1.0024 0.229219 1.14642e-21)
(0.93658 0.217975 1.04994e-21)
(0.873743 0.208028 -6.87842e-25)
(0.81357 0.199207 0)
(0.755737 0.19135 8.094e-22)
(0.700067 0.184262 -7.42186e-22)
(0.646246 0.178064 6.7769e-22)
(0.594046 0.172551 0)
(0.543326 0.167554 2.7674e-22)
(0.493938 0.163321 0)
(0.44572 0.159639 0)
(0.398522 0.156224 0)
(0.352204 0.153319 0)
(0.30664 0.15102 0)
(0.261743 0.149105 0)
(0.217399 0.147532 0)
(0.173532 0.146427 -4.11689e-23)
(0.130864 0.145832 -1.49218e-23)
(0.0918231 0.14565 5.02551e-24)
(-9.79311 17.8893 0)
(-9.17823 10.3544 1.4298e-22)
(-10.7453 8.05664 9.9093e-20)
(-11.6552 5.82038 6.11038e-20)
(-8.66547 3.23586 0)
(-0.874422 2.80185 0)
(4.86291 -0.755573 0)
(3.65672 -14.6737 -3.24012e-19)
(2.00419 -16.1523 0)
(8.67735 -22.5459 0)
(8.91563 -23.1448 0)
(6.76775 -19.331 5.05295e-20)
(3.10635 -6.83178 0)
(2.01933 3.97079 0)
(1.10219 4.78601 2.02354e-20)
(0.148656 4.18931 0)
(-0.24608 4.84267 0)
(0.411131 5.56564 0)
(1.54931 5.66619 2.36615e-20)
(2.57671 5.17163 1.3817e-20)
(3.23164 4.37112 0)
(3.51052 3.53274 -4.67709e-21)
(3.52561 2.80437 -9.13634e-21)
(3.39449 2.2264 -1.08979e-20)
(3.19742 1.78822 -1.10527e-20)
(2.98075 1.46007 0)
(2.76767 1.21239 0)
(2.56787 1.02296 0)
(2.38442 0.875747 0)
(2.21754 0.759527 0)
(2.06603 0.666371 0)
(1.92803 0.590972 5.66244e-21)
(1.80176 0.529095 0)
(1.68557 0.478116 0)
(1.5784 0.435418 -4.22203e-21)
(1.47902 0.399513 -3.84733e-21)
(1.38655 0.368857 -2.85602e-24)
(1.30004 0.342704 0)
(1.21884 0.320055 0)
(1.14231 0.300351 0)
(1.06991 0.283215 0)
(1.0012 0.268222 0)
(0.935664 0.25506 0)
(0.873083 0.243358 0)
(0.813111 0.233036 0)
(0.755433 0.223814 0)
(0.699858 0.215505 0)
(0.646099 0.208262 0)
(0.593967 0.201811 0)
(0.543298 0.195969 5.53454e-22)
(0.493926 0.190975 0)
(0.445733 0.186633 0)
(0.398565 0.182665 0)
(0.352264 0.179266 0)
(0.30671 0.176538 1.47353e-22)
(0.261828 0.174263 0)
(0.217501 0.172389 0)
(0.173658 0.171021 0)
(0.131016 0.170187 0)
(0.0919868 0.169786 2.50041e-24)
(-8.74562 18.6101 -4.12872e-20)
(-7.59875 11.6508 0)
(-8.30099 9.14166 1.574e-19)
(-7.28299 5.88253 0)
(-1.73074 0.658367 0)
(0.561311 -0.579782 0)
(3.77025 -0.266541 -1.75569e-19)
(4.78937 -11.1778 0)
(6.70122 -18.0671 5.48995e-19)
(9.25781 -22.5473 0)
(9.18325 -22.8259 4.74058e-20)
(6.71831 -18.8554 -3.72815e-20)
(2.40137 -8.22902 0)
(0.719471 2.92384 0)
(0.460484 5.18 -1.20993e-19)
(0.243571 4.56406 1.53409e-20)
(0.106722 4.67427 -4.1763e-20)
(0.509204 5.03124 3.5971e-20)
(1.29192 5.12661 1.84999e-20)
(2.10626 4.8251 0)
(2.71821 4.2431 -4.97807e-21)
(3.0584 3.56789 -1.81631e-21)
(3.17051 2.92991 0)
(3.13117 2.38865 8.61727e-21)
(3.0068 1.95633 0)
(2.84338 1.61945 -9.29248e-21)
(2.66816 1.35772 8.76118e-21)
(2.4951 1.15322 0)
(2.33068 0.991854 0)
(2.17746 0.862991 0)
(2.03576 0.75903 6.09737e-21)
(1.90482 0.674396 5.52292e-21)
(1.78372 0.604769 -1.00188e-20)
(1.67143 0.547096 0)
(1.56712 0.498666 4.15923e-21)
(1.46989 0.457789 -7.59447e-21)
(1.37916 0.422811 -3.47257e-21)
(1.29407 0.392938 6.37273e-21)
(1.21408 0.367016 -2.93015e-21)
(1.13852 0.344502 -2.69049e-21)
(1.06686 0.324849 1.23574e-21)
(0.998718 0.307681 -1.27769e-24)
(0.933658 0.29259 -1.04294e-21)
(0.871475 0.279118 -9.54177e-22)
(0.811803 0.267289 -8.76845e-22)
(0.754356 0.256703 8.0543e-22)
(0.698967 0.24717 0)
(0.64535 0.23886 6.75403e-22)
(0.593346 0.23145 -1.00043e-24)
(0.542787 0.224764 0)
(0.493497 0.219002 0)
(0.445378 0.21398 0)
(0.398289 0.209446 0)
(0.35205 0.205549 -3.44526e-22)
(0.306546 0.202383 0)
(0.261714 0.199741 0)
(0.217438 0.197561 -1.03352e-22)
(0.173641 0.195921 -4.11016e-23)
(0.131047 0.194851 -1.48624e-23)
(0.0920453 0.194264 -5.04875e-24)
(-8.158 17.4308 0)
(-5.70111 12.6581 0)
(-5.81361 9.84172 0)
(-4.5702 5.50901 0)
(0.0574017 -0.69057 0)
(0.697157 -1.15443 0)
(1.45559 -1.02414 0)
(4.4247 -9.31629 0)
(7.58194 -18.9643 0)
(9.56909 -22.4415 0)
(9.36293 -22.6939 0)
(6.40013 -18.4873 0)
(2.45259 -8.80131 0)
(0.00924729 1.66654 0)
(-0.143901 5.11806 0)
(0.0514578 4.70131 0)
(0.175681 4.56601 0)
(0.515798 4.67868 0)
(1.09457 4.71512 0)
(1.74728 4.50723 0)
(2.29789 4.079 0)
(2.6596 3.54168 0)
(2.83482 2.99613 0)
(2.86694 2.50432 0)
(2.8059 2.09138 0)
(2.69294 1.75649 0)
(2.55578 1.48821 7.85223e-21)
(2.41089 1.2737 0)
(2.26722 1.10155 0)
(2.12921 0.962351 0)
(1.99854 0.849112 0)
(1.87574 0.756271 0)
(1.76069 0.679541 0)
(1.65301 0.615628 0)
(1.55223 0.561779 0)
(1.45774 0.516135 0)
(1.36914 0.476918 0)
(1.28582 0.44336 0)
(1.2073 0.414207 0)
(1.13293 0.388933 0)
(1.06227 0.366807 0)
(0.994925 0.34748 0)
(0.930526 0.330471 0)
(0.868861 0.315247 0)
(0.809586 0.301913 0)
(0.752468 0.289969 0)
(0.697347 0.279207 0)
(0.643964 0.269816 0)
(0.592167 0.261436 -6.09289e-22)
(0.541776 0.253904 -5.48804e-22)
(0.492633 0.247369 0)
(0.444648 0.241653 0)
(0.397676 0.236542 0)
(0.351542 0.232144 0)
(0.306134 0.228536 -1.46999e-22)
(0.261392 0.225522 6.17415e-23)
(0.217199 0.223025 -5.15055e-23)
(0.173481 0.221112 0)
(0.130957 0.219815 -1.46652e-23)
(0.0920066 0.219054 0)
(-8.02953 16.5493 -3.06341e-21)
(-4.72779 12.8033 0)
(-4.07006 10.6237 -1.37049e-19)
(-2.55379 5.48352 4.09902e-22)
(0.889425 -0.872917 0)
(0.991084 -1.49559 0)
(1.55311 -1.2633 0)
(3.95743 -8.11743 -6.59611e-20)
(7.87526 -19.5039 -2.03569e-20)
(9.57465 -22.4247 0)
(7.9176 -21.4275 6.49651e-19)
(7.11694 -19.4488 0)
(2.75433 -8.813 0)
(-0.320784 0.633476 -8.03447e-20)
(-0.675809 4.79646 -6.96952e-20)
(-0.261214 4.63502 4.58018e-20)
(0.0664149 4.42997 -9.56314e-23)
(0.434319 4.40844 0)
(0.920153 4.38835 2.70862e-20)
(1.46426 4.22473 -2.1285e-20)
(1.95451 3.90113 1.32977e-22)
(2.31417 3.47452 3.41683e-21)
(2.52607 3.01546 2.00444e-21)
(2.61052 2.57875 4.60299e-21)
(2.60204 2.1944 0)
(2.53457 1.8702 3.29213e-23)
(2.43401 1.60229 6.90215e-21)
(2.31746 1.38282 0)
(2.19527 1.20346 6.4107e-21)
(2.07334 1.05645 5.97542e-21)
(1.95471 0.935712 -5.54816e-21)
(1.84095 0.835885 5.10973e-21)
(1.73274 0.75285 0)
(1.63034 0.68324 0)
(1.5337 0.624349 0)
(1.44251 0.574205 0)
(1.35651 0.530938 3.35555e-21)
(1.27527 0.493801 -3.08997e-21)
(1.19843 0.461488 4.70983e-24)
(1.12548 0.433492 -2.62722e-21)
(1.05605 0.408946 -2.41903e-21)
(0.98973 0.38749 0)
(0.926176 0.368603 1.02441e-21)
(0.865184 0.351673 0)
(0.806439 0.33685 0)
(0.749761 0.323556 0)
(0.695006 0.311567 0)
(0.64194 0.301091 0)
(0.590414 0.291738 0)
(0.540259 0.283354 5.45008e-22)
(0.491329 0.276042 0)
(0.443529 0.269625 2.17873e-22)
(0.396723 0.263931 1.94043e-22)
(0.350733 0.259036 -1.69847e-22)
(0.305462 0.254978 -1.45682e-22)
(0.260849 0.25158 0)
(0.216778 0.248765 -5.12471e-23)
(0.173173 0.246581 -4.05163e-23)
(0.130752 0.245063 0)
(0.091881 0.244146 -2.547e-24)
(-6.58293 15.5448 -6.14478e-21)
(-4.88019 12.5769 0)
(-3.48985 10.7478 0)
(-0.822979 5.22981 1.48783e-20)
(2.08436 -0.49212 0)
(1.63717 -1.28927 -1.48729e-20)
(1.5987 -1.60329 -1.54488e-20)
(3.70942 -7.02402 0)
(8.29629 -20.6951 4.821e-19)
(8.87584 -22.3344 3.13256e-19)
(8.5875 -22.3185 -1.38113e-18)
(7.77306 -20.4132 0)
(2.96958 -8.34694 0)
(-0.388762 -0.00841102 0)
(-1.03969 4.36102 6.28869e-20)
(-0.542194 4.42282 -8.0843e-23)
(-0.0938692 4.24215 0)
(0.30826 4.1656 0)
(0.754951 4.11028 -2.47805e-20)
(1.23178 3.97147 0)
(1.67172 3.72075 1.28201e-20)
(2.01759 3.38165 0)
(2.24753 2.99946 5.63062e-22)
(2.36803 2.61829 3.11041e-21)
(2.40114 2.26783 4.68173e-21)
(2.37311 1.96085 5.61087e-21)
(2.30634 1.6992 0)
(2.2171 1.47951 0)
(2.11628 1.29654 -5.84035e-21)
(2.01086 1.14439 0)
(1.90487 1.01802 5.21158e-21)
(1.80081 0.912558 4.84839e-21)
(1.70009 0.824143 0)
(1.60359 0.749471 4.1432e-21)
(1.51166 0.685958 3.82914e-21)
(1.42429 0.63165 -6.82243e-24)
(1.34132 0.584621 3.27135e-21)
(1.26244 0.544091 3.02092e-21)
(1.18751 0.508719 0)
(1.11621 0.478037 2.58173e-21)
(1.04823 0.451118 -2.3812e-21)
(0.983133 0.427589 2.19617e-21)
(0.920589 0.406895 -1.01106e-21)
(0.860389 0.38832 9.29126e-22)
(0.802306 0.372026 -8.53528e-22)
(0.746194 0.357396 -7.85432e-22)
(0.691906 0.344197 0)
(0.639234 0.332637 -6.58615e-22)
(0.588056 0.322318 5.9749e-22)
(0.538217 0.313074 5.38625e-22)
(0.489565 0.304983 0)
(0.442005 0.297869 0)
(0.395406 0.291588 0)
(0.349607 0.286195 0)
(0.304517 0.281682 0)
(0.260077 0.277898 -6.11396e-23)
(0.216171 0.274762 -5.12402e-23)
(0.172714 0.272308 0)
(0.130427 0.270575 1.64051e-25)
(0.09167 0.269504 -2.53942e-24)
(-6.43683 14.1913 0)
(-4.64623 12.0693 0)
(-2.85592 10.6912 -4.85672e-21)
(0.225341 5.06669 0)
(1.9183 -0.0821288 0)
(1.45058 -0.990409 3.52272e-20)
(1.69313 -1.659 -2.42313e-20)
(4.15908 -6.49133 0)
(8.73711 -19.6998 0)
(8.52596 -20.5284 1.81906e-21)
(8.98167 -21.7834 0)
(7.97123 -21.4069 0)
(2.74246 -7.8255 8.87902e-20)
(-0.403993 -0.302923 6.33751e-20)
(-1.25239 3.90749 5.66349e-20)
(-0.741864 4.12821 4.50087e-20)
(-0.237292 4.01078 3.44475e-20)
(0.179841 3.93123 -6.70248e-23)
(0.603016 3.85828 2.30561e-20)
(1.03708 3.7384 0)
(1.4367 3.54278 0)
(1.76399 3.27345 6.63244e-21)
(1.99966 2.95776 1.02685e-21)
(2.14321 2.62938 3.59598e-21)
(2.20784 2.31505 3.44533e-21)
(2.21268 2.0296 0)
(2.17591 1.77896 -5.02858e-21)
(2.11205 1.56331 5.26922e-21)
(2.03189 1.38013 -5.24892e-21)
(1.94281 1.22546 0)
(1.84966 1.09538 4.84578e-21)
(1.75572 0.985677 -4.54573e-21)
(1.66304 0.892874 0)
(1.573 0.81385 3.96849e-21)
(1.48627 0.746229 -3.68956e-21)
(1.4031 0.688137 -3.41535e-21)
(1.32352 0.637695 6.33849e-21)
(1.24735 0.594022 0)
(1.17461 0.555751 2.72631e-21)
(1.10515 0.522427 0)
(1.03877 0.493194 -2.3347e-21)
(0.975069 0.467666 -4.2708e-24)
(0.913686 0.445242 -9.94514e-22)
(0.85445 0.425093 9.13287e-22)
(0.797171 0.407351 0)
(0.741754 0.39143 7.76909e-22)
(0.688026 0.377045 7.13913e-22)
(0.635838 0.364404 -1.58142e-24)
(0.585092 0.353118 -5.91815e-22)
(0.535636 0.343023 0)
(0.487327 0.334163 0)
(0.44006 0.326359 0)
(0.393718 0.319491 -1.91558e-22)
(0.348158 0.313594 1.67876e-22)
(0.303294 0.308621 -1.43798e-22)
(0.259072 0.304449 6.06771e-23)
(0.215369 0.300996 -5.04748e-23)
(0.172099 0.298277 0)
(0.129983 0.29633 -1.4303e-23)
(0.0913767 0.295113 0)
(-7.80244 13.8314 0)
(-4.73954 11.3557 0)
(-3.17029 10.0604 -1.28802e-21)
(0.478904 4.91235 0)
(1.77309 0.6215 6.2269e-20)