/*--------------------------------*- C++ -*----------------------------------*\
| =========                 |                                                 |
| \\      /  F ield         | OpenFOAM: The Open Source CFD Toolbox           |
|  \\    /   O peration     | Version:  v1912                                 |
|   \\  /    A nd           | Website:  www.openfoam.com                      |
|    \\/     M anipulation  |                                                 |
\*---------------------------------------------------------------------------*/
FoamFile
{
    version     2.0;
    format      ascii;
    class       surfaceScalarField;
    location    "4";
    object      alphaPhi0.water;
}
// * * * * * * * * * * * * * * * * * * * * * * * * * * * * * * * * * * * * * //

dimensions      [0 3 -1 0 0 0 0];
oriented        oriented;


internalField   nonuniform List<scalar> 
40282
(
0.00369005
0.000173925
2.43664
-2.44606
2.44692
-0.000858745
-2.44817
2.44746
0.000705398
-2.44537
2.44562
-0.000252671
-2.44626
2.44496
0.0013011
-2.44144
2.43451
0.00693221
-2.42166
2.40011
0.0215543
-2.36674
2.31881
0.0479277
-2.25509
2.17547
0.0796237
-2.0798
1.96783
0.111967
-1.84003
1.69823
0.141794
-1.54573
1.38676
0.15897
-1.22591
1.06758
0.158328
-0.915694
0.773568
0.142126
-0.643864
0.528551
0.115312
-0.428838
0.345038
0.0837998
-0.276427
0.221224
0.055203
-0.176772
0.139782
0.0369899
-0.106818
0.075732
0.0310857
-0.0459492
0.0191049
0.0268443
-0.000570797
0.000944718
2.3527
-2.35208
2.3507
-0.00155116
0.0029374
-2.34853
2.34669
-0.00293175
0.00477306
-2.34176
2.32906
-0.00297691
0.0156705
-2.30742
2.27553
-0.0144684
0.0463617
-2.23379
2.18347
-0.039512
0.0898251
-2.12586
2.06209
-0.0748858
0.138653
-1.99352
1.9213
-0.117242
0.189462
-1.84621
1.76889
-0.162374
0.239697
-1.68999
1.61015
-0.205968
0.285808
-1.52984
1.44925
-0.242317
0.322905
-1.36827
1.28658
-0.263968
0.345664
-1.20375
1.11942
-0.266609
0.350938
-1.03334
0.945402
-0.251312
0.339248
-0.855677
0.764413
-0.222755
0.314019
-0.672089
0.579453
-0.186831
0.279466
-0.487517
0.397409
-0.147836
0.237944
-0.310228
0.227331
-0.105822
0.188718
-0.151834
0.0892445
-0.0694619
0.132051
-0.0446793
0.017395
-0.0519646
0.0792489
-0.0017769
0.00207387
2.26847
-2.26694
2.26468
-0.00426676
0.00652506
-2.2558
2.23681
-0.0125292
0.0315142
-2.20781
2.17045
-0.0435026
0.0808678
-2.1264
2.07698
-0.0915586
0.140976
-2.02317
1.96573
-0.146851
0.204294
-1.90528
1.84238
-0.204032
0.266928
-1.77758
1.7114
-0.260209
0.32639
-1.64434
1.57683
-0.313015
0.380521
-1.50925
1.44185
-0.359528
0.42693
-1.37474
1.30791
-0.396109
0.462946
-1.24116
1.1742
-0.419155
0.48611
-1.10669
1.03827
-0.426522
0.494941
-0.968654
0.897654
-0.418381
0.489381
-0.825228
0.751486
-0.396764
0.470506
-0.676679
0.601166
-0.364143
0.439655
-0.525372
0.449742
-0.321835
0.397465
-0.374728
0.300836
-0.269418
0.34331
-0.228726
0.159329
-0.205384
0.274782
-0.0941533
0.0362212
-0.12618
0.184112
-0.00174589
0.00327805
2.18597
-2.18204
2.16565
-0.0150967
0.0314817
-2.13955
2.10573
-0.0605837
0.094402
-2.06587
2.02121
-0.124052
0.168713
-1.97268
1.92102
-0.193208
0.244871
-1.86681
1.81055
-0.262546
0.318804
-1.75267
1.69355
-0.329086
0.388207
-1.63352
1.57289
-0.390738
0.451373
-1.51191
1.45079
-0.445641
0.506757
-1.3897
1.32875
-0.49187
0.552823
-1.26797
1.20734
-0.527455
0.588084
-1.14679
1.08618
-0.550674
0.611281
-1.02538
0.964242
-0.560464
0.621602
-0.902643
0.840494
-0.556627
0.618776
-0.777759
0.714454
-0.539639
0.602944
-0.650645
0.586435
-0.510123
0.574334
-0.521942
0.457281
-0.468238
0.532899
-0.392527
0.327683
-0.413204
0.478049
-0.262633
0.197134
-0.34278
0.408279
-0.130975
0.0644777
-0.248515
0.315012
-0.00847989
0.0180795
2.09953
-2.08718
2.06126
-0.0540882
0.080009
-2.02849
1.99047
-0.131703
0.169731
-1.94828
1.90274
-0.21505
0.260588
-1.85448
1.80404
-0.297081
0.347528
-1.75183
1.69821
-0.374823
0.428438
-1.64351
1.58799
-0.446537
0.502051
-1.5319
1.47543
-0.510879
0.56735
-1.41875
1.36199
-0.566616
0.623378
-1.30524
1.24858
-0.612543
0.669204
-1.19203
1.1356
-0.647528
0.703959
-1.07926
1.02297
-0.670626
0.726916
-0.966674
0.910302
-0.681195
0.737567
-0.853797
0.797099
-0.678946
0.735643
-0.740158
0.682928
-0.663853
0.721083
-0.62536
0.567394
-0.635983
0.693948
-0.508949
0.449898
-0.595314
0.654365
-0.390066
0.329218
-0.541631
0.602479
-0.26707
0.203327
-0.474101
0.537843
-0.137746
0.0700916
-0.383998
0.451652
-0.0313596
0.0481873
2.01687
-1.99726
1.96756
-0.108785
0.138482
-1.93285
1.8942
-0.209043
0.247687
-1.85241
1.80804
-0.306521
0.350884
-1.76158
1.71342
-0.397822
0.44599
-1.66387
1.61321
-0.481553
0.532208
-1.56169
1.50952
-0.556862
0.609036
-1.45687
1.40388
-0.62303
0.676015
-1.35069
1.29738
-0.679351
0.732655
-1.24404
1.19071
-0.725125
0.778452
-1.13743
1.08421
-0.759698
0.812923
-1.03103
0.977888
-0.782518
0.835662
-0.92474
0.871544
-0.793192
0.846388
-0.818248
0.764789
-0.791515
0.844974
-0.711094
0.65708
-0.777462
0.831477
-0.602644
0.547671
-0.751177
0.80615
-0.49202
0.435526
-0.71297
0.769464
-0.378006
0.319264
-0.663259
0.722
-0.259105
0.197346
-0.601771
0.663531
-0.133808
0.0682124
-0.519697
0.585292
-0.0672585
0.0886971
1.9391
-1.91568
1.88472
-0.169586
0.20055
-1.84996
1.81216
-0.286741
0.324541
-1.77187
1.72952
-0.395111
0.437458
-1.68546
1.63999
-0.493711
0.539186
-1.59334
1.54574
-0.582249
0.629849
-1.49737
1.44839
-0.660536
0.70952
-1.39893
1.34911
-0.72834
0.778163
-1.29902
1.24873
-0.785367
0.835651
-1.19831
1.1478
-0.831282
0.881795
-1.09722
1.04657
-0.865755
0.916398
-0.995868
0.945081
-0.888511
0.939298
-0.894184
0.843135
-0.899376
0.950424
-0.791883
0.740363
-0.898319
0.949839
-0.6885
0.636206
-0.88549
0.937783
-0.583383
0.529921
-0.861255
0.914717
-0.475702
0.4206
-0.826207
0.88131
-0.364488
0.307246
-0.781012
0.838253
-0.248764
0.188942
-0.725417
0.785239
-0.127675
0.064781
-0.65072
0.713613
-0.111213
0.135235
1.86642
-1.84082
1.80986
-0.232194
0.263156
-1.77601
1.73976
-0.362303
0.398549
-1.70151
1.66157
-0.479387
0.519331
-1.62018
1.57757
-0.584044
0.626656
-1.53392
1.48938
-0.676753
0.721285
-1.44411
1.39822
-0.757811
0.803705
-1.3518
1.30496
-0.827358
0.874201
-1.25776
1.21025
-0.885414
0.93292
-1.16249
1.11449
-0.931921
0.979918
-1.06628
1.01786
-0.966801
1.01522
-0.969216
0.920342
-0.989999
1.03887
-0.871205
0.821764
-1.00154
1.05098
-0.771974
0.721776
-1.00158
1.05178
-0.671108
0.619896
-0.990433
1.04164
-0.568066
0.515537
-0.968637
1.02117
-0.462229
0.408064
-0.936903
0.991068
-0.35297
0.296886
-0.895912
0.951996
-0.239761
0.181555
-0.84528
0.903486
-0.122227
0.0616999
-0.776377
0.836905
-0.159542
0.18477
1.79747
-1.7708
1.74056
-0.294385
0.324627
-1.70811
1.67377
-0.434515
0.468852
-1.6378
1.60041
-0.558715
0.596107
-1.56177
1.52204
-0.668575
0.708305
-1.48135
1.43982
-0.76509
0.80662
-1.39755
1.35463
-0.848907
0.891825
-1.31114
1.26714
-0.920439
0.964441
-1.22268
1.1778
-0.979942
1.02482
-1.13253
1.08689
-1.02758
1.07322
-1.04089
0.994518
-1.06347
1.10984
-0.947773
0.900632
-1.08775
1.13489
-0.853066
0.805041
-1.1006
1.14862
-0.756514
0.70744
-1.10231
1.15139
-0.657769
0.607448
-1.09333
1.14365
-0.556424
0.504646
-1.07427
1.12604
-0.452069
0.39865
-1.04583
1.09925
-0.34436
0.289176
-1.00862
1.0638
-0.23309
0.176102
-0.962088
1.01908
-0.118219
0.0594412
-0.897566
0.956344
-0.209768
0.235291
1.73202
-1.70534
1.67621
-0.35489
0.38402
-1.64539
1.61306
-0.502798
0.535125
-1.57938
1.54448
-0.632899
0.667798
-1.50848
1.47149
-0.747346
0.78434
-1.43359
1.39488
-0.847449
0.886162
-1.35542
1.31529
-0.934086
0.974219
-1.27453
1.2332
-1.00787
1.0492
-1.19133
1.14894
-1.06924
1.11163
-1.10605
1.06267
-1.11854
1.16192
-1.0188
0.974424
-1.15605
1.20042
-0.929533
0.884099
-1.18204
1.22747
-0.838094
0.791483
-1.19682
1.24343
-0.744228
0.696291
-1.2008
1.24873
-0.647631
0.59821
-1.19445
1.24388
-0.547992
0.496948
-1.17841
1.22945
-0.445054
0.392295
-1.15331
1.20607
-0.338665
0.284171
-1.11963
1.17412
-0.22883
0.172669
-1.07665
1.13281
-0.115726
0.0580519
-1.01556
1.07324
-0.260254
0.285489
1.66927
-1.6431
1.61525
-0.41304
0.440891
-1.58608
1.55567
-0.567047
0.597455
-1.52411
1.49148
-0.702144
0.734774
-1.45786
1.42331
-0.820722
0.855265
-1.38792
1.35174
-0.924255
0.960438
-1.31482
1.27722
-1.01376
1.05136
-1.23898
1.20013
-1.09001
1.12886
-1.16069
1.12068
-1.15358
1.19358
-1.08011
1.03897
-1.20496
1.2461
-0.997244
0.954921
-1.24458
1.2869
-0.911972
0.868366
-1.27283
1.31644
-0.824066
0.779035
-1.29013
1.33516
-0.733232
0.686617
-1.29691
1.34353
-0.639153
0.590806
-1.29369
1.34204
-0.54155
0.491362
-1.28102
1.33121
-0.440234
0.388163
-1.25946
1.31153
-0.335162
0.281252
-1.22932
1.28323
-0.226466
0.17085
-1.1897
1.24531
-0.114461
0.0573748
-1.13162
1.1887
-0.309992
0.334657
1.60916
-1.58354
1.55691
-0.468613
0.495248
-1.52918
1.50039
-0.627548
0.656339
-1.47058
1.4398
-0.766997
0.797776
-1.40811
1.37557
-0.889357
0.921896
-1.34224
1.30817
-0.996152
1.03022
-1.27342
1.23802
-1.08849
1.12389
-1.20201
1.16542
-1.16725
1.20384
-1.12826
1.09054
-1.23316
1.27088
-1.05225
1.01337
-1.28686
1.32573
-0.973882
0.933754
-1.32891
1.36904
-0.892942
0.851401
-1.35984
1.40138
-0.809081
0.765929
-1.38011
1.42327
-0.721894
0.676923
-1.39022
1.43519
-0.630973
0.584002
-1.39062
1.43759
-0.535979
0.486885
-1.3818
1.4309
-0.436709
0.385455
-1.36417
1.41542
-0.333143
0.279803
-1.33785
1.39119
-0.225481
0.170232
-1.30175
1.357
-0.114124
0.0572431
-1.2467
1.30358
-0.358578
0.382699
1.55137
-1.52656
1.50083
-0.521859
0.547596
-1.47409
1.44638
-0.68503
0.712745
-1.41772
1.38816
-0.828409
0.857968
-1.35776
1.3266
-0.954246
0.985408
-1.29474
1.26224
-1.06404
1.09654
-1.22915
1.19554
-1.15898
1.19259
-1.16143
1.12684
-1.24005
1.27464
-1.09179
1.05627
-1.30817
1.34369
-1.02026
0.983737
-1.36415
1.40067
-0.946655
0.90896
-1.40871
1.44641
-0.870589
0.831472
-1.44251
1.48163
-0.791533
0.750695
-1.46611
1.50694
-0.708882
0.666017
-1.47999
1.52285
-0.622033
0.576868
-1.48458
1.52975
-0.530475
0.482817
-1.48022
1.52788
-0.433877
0.383652
-1.46713
1.51736
-0.332161
0.279441
-1.44521
1.49793
-0.225544
0.17054
-1.41314
1.46814
-0.114508
0.0575355
-1.36152
1.4185
-0.406214
0.430135
1.49488
-1.47087
1.44545
-0.573555
0.598974
-1.41902
1.39161
-0.740705
0.768119
-1.36327
1.33411
-0.887758
0.916927
-1.30419
1.27363
-1.01673
1.04729
-1.24252
1.21094
-1.12909
1.16067
-1.17898
1.14669
-1.2261
1.25838
-1.11412
1.0813
-1.30894
1.34176
-1.04823
1.0149
-1.37876
1.41209
-0.981273
0.947304
-1.4366
1.47057
-0.912923
0.878047
-1.48343
1.5183
-0.842583
0.806424
-1.52004
1.5562
-0.769458
0.731569
-1.54713
1.58502
-0.692637
0.652547
-1.5652
1.60529
-0.611189
0.568463
-1.5746
1.61733
-0.524282
0.478578
-1.57551
1.62121
-0.431304
0.382441
-1.56787
1.61674
-0.331994
0.280001
-1.55127
1.60326
-0.226528
0.171664
-1.52408
1.57894
-0.115515
0.0581812
-1.47667
1.534
-0.453756
0.478169
1.44005
-1.41607
1.3901
-0.625011
0.650981
-1.36299
1.33486
-0.796257
0.824394
-1.30581
1.276
-0.946814
0.976626
-1.24557
1.21469
-1.07845
1.10934
-1.18349
1.15211
-1.19263
1.22401
-1.12066
1.08922
-1.29077
1.32221
-1.05785
1.02659
-1.37438
1.40564
-0.995428
0.964349
-1.4449
1.47598
-0.933296
0.902192
-1.50376
1.53486
-0.870938
0.839414
-1.55219
1.58371
-0.807483
0.774995
-1.59126
1.62375
-0.741787
0.707689
-1.6218
1.6559
-0.672525
0.636119
-1.64438
1.68078
-0.598295
0.558888
-1.65928
1.69869
-0.517744
0.474728
-1.6665
1.70952
-0.429735
0.382693
-1.66564
1.71269
-0.333572
0.282396
-1.65581
1.70698
-0.229241
0.174237
-1.63483
1.68984
-0.117554
0.0593638
-1.59275
1.65094
-0.502727
0.528639
1.3861
-1.36107
1.33341
-0.678125
0.705778
-1.30443
1.27433
-0.853879
0.883986
-1.24332
1.21166
-1.00776
1.03942
-1.1796
1.14737
-1.14134
1.17357
-1.11519
1.08325
-1.25615
1.28809
-1.05172
1.02069
-1.35397
1.385
-0.990257
0.960442
-1.43674
1.46655
-0.931238
0.902598
-1.50643
1.53507
-0.874443
0.846661
-1.56491
1.5927
-0.819111
0.791632
-1.61386
1.64134
-0.764039
0.736129
-1.65464
1.68255
-0.707684
0.678471
-1.6883
1.71751
-0.648247
0.616757
-1.71554
1.74703
-0.583741
0.548932
-1.73668
1.77149
-0.512071
0.472902
-1.75155
1.79072
-0.431198
0.386761
-1.7594
1.80384
-0.339454
0.289217
-1.75865
1.80889
-0.236093
0.180257
-1.74617
1.802
-0.122021
0.0617789
-1.71107
1.77131
-0.55528
0.583975
1.33274
-1.30599
1.27526
-0.735315
0.76604
-1.24295
1.2094
-0.9162
0.949751
-1.17499
1.14011
-1.07312
1.108
-1.10516
1.07048
-1.2075
1.24218
-1.03641
1.0032
-1.32118
1.35439
-0.971056
0.940125
-1.41652
1.44745
-0.910481
0.882144
-1.49619
1.52452
-0.855079
0.829205
-1.56288
1.58875
-0.804401
0.780511
-1.61909
1.64298
-0.757351
0.734712
-1.66697
1.68961
-0.712365
0.69006
-1.70826
1.73056
-0.667531
0.644493
-1.74429
1.76733
-0.620639
0.595641
-1.77602
1.80102
-0.569146
0.540771
-1.80395
1.83232
-0.510108
0.476718
-1.828
1.86139
-0.440144
0.399925
-1.84726
1.88748
-0.355623
0.306872
-1.85945
1.9082
-0.253454
0.195414
-1.85984
1.91788
-0.13322
0.0678606
-1.83505
1.90041
-0.61406
0.647012
1.27956
-1.24949
1.21412
-0.799482
0.834854
-1.17682
1.13815
-0.986292
1.02496
-1.09872
1.05915
-1.14571
1.18529
-1.02001
0.981849
-1.27914
1.3173
-0.945095
0.910092
-1.38908
1.42408
-0.877075
0.846185
-1.47894
1.50984
-0.817471
0.790907
-1.55254
1.5791
-0.766404
0.743821
-1.61351
1.63609
-0.722979
0.703666
-1.66508
1.68439
-0.685652
0.668689
-1.70988
1.72684
-0.652514
0.636856
-1.75002
1.76568
-0.621429
0.605931
-1.78713
1.80262
-0.59004
0.5734
-1.82247
1.83911
-0.555614
0.536224
-1.85701
1.8764
-0.514697
0.490397
-1.8913
1.9156
-0.46257
0.430314
-1.92508
1.95733
-0.39258
0.348185
-1.95634
2.00073
-0.2959
0.234711
-1.97893
2.04011
-0.164464
0.086926
-1.97422
2.05176
-0.682039
0.720736
1.22677
-1.192
1.15018
-0.873908
0.915729
-1.10593
1.06016
-1.06767
1.11345
-1.01383
0.967943
-1.22859
1.27448
-0.923375
0.880861
-1.3583
1.40081
-0.840953
0.804025
-1.46073
1.49766
-0.77029
0.739817
-1.54117
1.57164
-0.712567
0.688411
-1.60504
1.62919
-0.667158
0.648576
-1.65716
1.67574
-0.632404
0.618369
-1.70146
1.71549
-0.606193
0.595602
-1.74095
1.75154
-0.586328
0.57811
-1.77791
1.78613
-0.570695
0.563833
-1.81412
1.82098
-0.557267
0.550724
-1.85111
1.85765
-0.543896
0.536416
-1.89045
1.89793
-0.527818
0.517489
-1.93394
1.94426
-0.504589
0.487942
-1.98354
2.00018
-0.46588
0.436028
-2.04077
2.07062
-0.395048
0.338537
-2.10369
2.1602
-0.261786
0.160621
-2.15433
2.2555
-0.762017
0.807485
1.17484
-1.13297
1.08247
-0.962386
1.01288
-1.0287
0.973248
-1.1646
1.22005
-0.917858
0.864087
-1.32503
1.3788
-0.813191
0.766067
-1.44647
1.4936
-0.723278
0.685097
-1.53605
1.57423
-0.651572
0.622586
-1.6021
1.63108
-0.59791
0.577241
-1.65218
1.67285
-0.560238
0.546544
-1.69229
1.70599
-0.535805
0.527681
-1.72685
1.73497
-0.521857
0.518052
-1.7589
1.76271
-0.516016
0.51554
-1.79055
1.79103
-0.516454
0.518625
-1.82336
1.82119
-0.521957
0.526387
-1.85875
1.85432
-0.531875
0.5384
-1.89856
1.89204
-0.54594
0.554442
-1.94568
1.93717
-0.563777
0.573637
-2.00507
1.99521
-0.583362
0.591571
-2.0859
2.07769
-0.595432
0.589389
-2.20644
2.21249
-0.563321
0.50251
-2.41804
2.47885
-6.47951e-180
1.25991e-176
-5.43225e-180
2.29115e-185
-1.58481e-187
1.07916e-184
9.47674e-190
-5.31723e-192
2.17726e-189
2.89719e-194
-1.52857e-196
4.44514e-194
7.76216e-199
-3.79842e-201
8.19175e-199
1.79035e-203
-8.13463e-206
1.32446e-203
3.55472e-208
-1.49501e-210
1.82143e-208
6.0343e-213
-2.34336e-215
2.06801e-213
8.75906e-218
-3.16463e-220
1.95153e-218
1.10532e-222
-3.73894e-225
1.51117e-223
1.22226e-227
-3.86529e-230
8.36636e-229
1.17989e-232
-3.48432e-235
1.70913e-234
1.00323e-237
-2.85026e-240
-8.94246e-243
7.97463e-243
-2.1925e-245
-1.55937e-247
5.91436e-248
-1.56288e-250
-1.57961e-252
4.03896e-253
-1.01935e-255
-1.31878e-257
2.50925e-258
-6.01644e-261
-9.22583e-263
1.40331e-263
-3.18103e-266
-5.53486e-268
6.99925e-269
-1.49378e-271
-2.84006e-273
3.09049e-274
-6.19536e-277
-1.23331e-278
1.20351e-279
-2.26435e-282
-4.5753e-284
4.12578e-285
-7.27722e-288
-1.51509e-289
1.24218e-290
-2.05107e-293
-4.42765e-295
3.27498e-296
-5.0513e-299
-1.1587e-300
7.52247e-302
-1.08081e-304
-2.6282e-306
1.49771e-307
-2.00037e-310
-5.09398e-312
2.57338e-313
-3.18732e-316
-8.4476e-318
3.80095e-319
-4.34778e-322
-9.88131e-324
0
0
0
0
0
0
0
0
0
0
0
0
0
0
0
0
0
0
0
0
0
0
0
0
0
0
0
0
0
0
0
0
0
0
0
0
0
0
0
0
0
0
0
0
0
0
0
0
0
0
0
0
0
0
0
0
0
0
0
0
0
0
0
0
0
0
0
0
0
0
0
0
0
0
0
0
0
0
0
0
0
0
0
0
0
0
0
0
0
0
0
0
0
0
0
0
-1.3406e-173
9.88979e-171
-3.67264e-174
5.37793e-179
-4.65481e-181
-2.84949e-181
3.98701e-178
3.3607e-183
-2.15376e-185
-6.70462e-186
1.06919e-182
1.28207e-187
-7.19376e-190
-1.4487e-190
2.44366e-187
3.82968e-192
-1.9425e-194
-2.76853e-195
4.82284e-192
9.41659e-197
-4.36937e-199
-4.57999e-200
8.1373e-197
1.94183e-201
-8.27406e-204
-6.41274e-205
1.15622e-201
3.38197e-206
-1.32739e-208
-7.45343e-210
1.36388e-206
5.01296e-211
-1.8252e-213
-7.19848e-215
1.33385e-211
6.41736e-216
-2.18082e-218
-5.71719e-220
1.07018e-216
7.16233e-221
-2.27324e-223
-3.35511e-225
6.41955e-222
6.96827e-226
-2.0634e-228
-9.2885e-231
1.95134e-227
5.90389e-231
-1.66741e-233
4.41761e-239
-1.01457e-235
4.65174e-236
-1.27969e-238
9.02576e-244
-2.28235e-240
3.46435e-241
-9.21284e-244
9.68075e-249
-2.50217e-245
2.40367e-246
-6.14299e-249
8.3148e-254
-2.16332e-250
1.53578e-251
-3.75204e-254
6.06286e-259
-1.58725e-255
8.94356e-257
-2.07766e-259
3.83816e-264
-1.0166e-260
4.69966e-262
-1.03361e-264
2.0783e-269
-5.60682e-266
2.20892e-267
-4.58561e-270
9.55146e-275
-2.6251e-271
9.23961e-273
-1.80737e-275
3.76859e-280
-1.05164e-276
3.43112e-278
-6.31975e-281
1.32981e-285
-3.75277e-282
1.12936e-283
-1.95614e-286
4.22089e-291
-1.20936e-287
3.28254e-289
-5.3328e-292
1.21449e-296
-3.53596e-293
8.3759e-295
-1.2709e-297
3.06795e-302
-9.10285e-299
1.86149e-300
-2.62918e-303
6.61834e-308
-1.99943e-304
3.58002e-306
-4.69981e-309
1.19949e-313
-3.6732e-310
5.94669e-312
-7.25732e-315
1.81386e-319
-5.62723e-316
8.54499e-318
-9.71333e-321
0
-7.5592e-322
9.88131e-324
0
0
0
0
0
0
0
0
0
0
0
0
0
0
0
0
0
0
0
0
0
0
0
0
0
0
0
0
0
0
0
0
0
0
0
0
0
0
0
0
0
0
0
0
0
0
0
0
0
0
0
0
0
0
0
0
0
0
0
0
0
0
0
0
0
0
0
0
0
0
0
0
0
0
0
0
0
0
0
0
0
0
0
0
0
0
0
0
0
0
0
0
0
0
0
0
0
0
0
0
0
0
0
0
0
0
0
0
0
0
0
0
0
0
0
0
0
0
0
0
0
0
0
-5.76353e-168
2.7549e-165
-9.48859e-169
2.94766e-173
-3.00199e-175
-3.80063e-175
2.81001e-172
2.4372e-177
-1.71865e-179
-1.13653e-179
9.23087e-177
1.0993e-181
-6.5089e-184
-2.74553e-184
2.34991e-181
3.61089e-186
-1.89103e-188
-5.58504e-189
4.92314e-186
9.39978e-191
-4.44851e-193
-9.59584e-194
8.6085e-191
2.00851e-195
-8.66831e-198
-1.38064e-198
1.25287e-195
3.58188e-200
-1.41853e-202
-1.6455e-203
1.50553e-200
5.3958e-205
-1.97508e-207
-1.62036e-208
1.48905e-205
6.96746e-210
-2.37109e-212
-1.30238e-213
1.19531e-210
7.78528e-215
-2.46585e-217
-7.80369e-219
7.12244e-216
7.53536e-220
-2.2226e-222
-2.39711e-224
2.17658e-221
6.32831e-225
-1.77617e-227
1.56364e-232
-1.72975e-229
4.92298e-230
-1.34497e-232
3.56202e-237
-3.92947e-234
3.61512e-235
-9.54694e-238
3.8773e-242
-4.24666e-239
2.47337e-240
-6.27946e-243
3.31325e-247
-3.58219e-244
1.56087e-245
-3.79401e-248
2.40924e-252
-2.57482e-249
9.01151e-251
-2.08968e-253
1.53729e-257
-1.63158e-254
4.72459e-256
-1.04049e-258
8.52891e-263
-9.07853e-260
2.22997e-261
-4.64529e-264
4.04102e-268
-4.35484e-265
9.39796e-267
-1.84534e-269
1.63756e-273
-1.79309e-270
3.51383e-272
-6.48587e-275
5.87459e-279
-6.49419e-276
1.16012e-277
-2.00905e-280
1.89803e-284
-2.10258e-281
3.36759e-283
-5.46158e-286
5.53799e-290
-6.09667e-287
8.56466e-289
-1.29819e-291
1.421e-295
-1.55088e-292
1.90132e-294
-2.6893e-297
3.1135e-301
-3.38064e-298
3.6733e-300
-4.84319e-303
5.71799e-307
-6.23209e-304
6.1624e-306
-7.56852e-309
8.78411e-313
-9.6801e-310
8.97591e-312
-1.02865e-314
1.17269e-318
-1.29775e-315
1.14036e-317
-1.22479e-320
0
-1.52666e-321
1.4822e-323
0
0
0
0
0
0
0
0
0
0
0
0
0
0
0
0
0
0
0
0
0
0
0
0
0
0
0
0
0
0
0
0
0
0
0
0
0
0
0
0
0
0
0
0
0
0
0
0
0
0
0
0
0
0
0
0
0
0
0
0
0
0
0
0
0
0
0
0
0
0
0
0
0
0
0
0
0
0
0
0
0
0
0
0
0
0
0
0
0
0
0
0
0
0
0
0
0
0
0
0
0
0
0
0
0
0
0
0
0
0
0
0
0
0
0
0
0
0
0
-1.13738e-162
4.06709e-160
-1.3611e-163
7.4147e-168
-8.65606e-170
-1.67157e-169
8.45831e-167
7.7097e-172
-5.84036e-174
-5.96573e-174
3.25407e-171
3.95161e-176
-2.44596e-178
-1.59455e-178
9.0993e-176
1.40536e-180
-7.56924e-183
-3.43722e-183
2.01662e-180
3.84651e-185
-1.85216e-187
-6.11281e-188
3.64693e-185
8.47887e-190
-3.70004e-192
-8.989e-193
5.41855e-190
1.54215e-194
-6.148e-197
-1.08714e-197
6.59165e-195
2.34971e-199
-8.62484e-202
-1.07754e-202
6.54534e-200
3.04619e-204
-1.03589e-206
-8.61797e-208
5.21769e-205
3.39394e-209
-1.07145e-211
-5.08804e-213
3.05356e-210
3.26122e-214
-9.57303e-217
-1.5227e-218
8.96452e-216
2.71325e-219
-7.58776e-222
1.52103e-226
-1.07393e-223
2.09529e-224
-5.70131e-227
3.37591e-231
-2.33963e-228
1.5263e-229
-4.01332e-232
3.61761e-236
-2.49627e-233
1.03536e-234
-2.61696e-237
3.0238e-241
-2.075e-238
6.47548e-240
-1.56687e-242
2.15179e-246
-1.46507e-243
3.70569e-245
-8.55719e-248
1.35135e-251
-9.10577e-249
1.92899e-250
-4.2399e-253
7.49802e-257
-5.0216e-254
9.08151e-256
-1.89297e-258
3.62318e-262
-2.4347e-259
3.83632e-261
-7.54765e-264
1.51385e-267
-1.03023e-264
1.4402e-266
-2.66201e-269
5.54853e-273
-3.81969e-270
4.76329e-272
-8.2452e-275
1.80173e-278
-1.24279e-275
1.38045e-277
-2.23561e-280
5.18242e-284
-3.5419e-281
3.5032e-283
-5.31206e-286
1.30366e-289
-8.79833e-287
7.79832e-289
-1.10834e-291
2.82424e-295
-1.89455e-292
1.5254e-294
-2.03219e-297
5.23625e-301
-3.53603e-298
2.62025e-300
-3.26855e-303
8.26828e-307
-5.69143e-304
3.94551e-306
-4.61165e-309
1.1227e-312
-7.87143e-310
5.22645e-312
-5.75416e-315
1.32566e-318
-9.38401e-316
6.16816e-318
-6.44756e-321
0
-9.88131e-322
4.94066e-324
0
0
0
0
0
0
0
0
0
0
0
0
0
0
0
0
0
0
0
0
0
0
0
0
0
0
0
0
0
0
0
0
0
0
0
0
0
0
0
0
0
0
0
0
0
0
0
0
0
0
0
0
0
0
0
0
0
0
0
0
0
0
0
0
0
0
0
0
0
0
0
0
0
0
0
0
0
0
0
0
0
0
0
0
0
0
0
0
0
0
0
0
0
0
0
0
0
0
0
0
0
0
0
0
0
0
0
0
0
0
0
0
0
0
0
-1.30492e-157
3.73724e-155
-1.20063e-158
1.06984e-162
-1.40101e-164
-3.6622e-164
1.40826e-161
1.35004e-166
-1.085e-168
-1.50866e-168
6.17864e-166
7.69589e-171
-4.94855e-173
-4.40041e-173
1.87602e-170
2.93403e-175
-1.62099e-177
-1.0022e-177
4.39121e-175
8.40854e-180
-4.11621e-182
-1.84367e-182
8.22718e-180
1.90961e-184
-8.42251e-187
-2.76868e-187
1.25125e-184
3.53962e-189
-1.42031e-191
-3.39106e-192
1.54578e-189
5.45458e-194
-2.00898e-196
-3.3768e-197
1.54805e-194
7.11012e-199
-2.42009e-201
-2.68782e-202
1.23539e-199
7.92914e-204
-2.50184e-206
-1.56474e-207
7.19809e-205
7.60905e-209
-2.23168e-211
-4.53986e-213
2.09533e-210
6.31974e-214
-1.76714e-216
6.37094e-221
-3.19627e-218
4.88035e-219
-1.32843e-221
1.37388e-225
-6.93354e-223
3.55828e-224
-9.36136e-227
1.46685e-230
-7.45559e-228
2.41574e-229
-6.10449e-232
1.21984e-235
-6.23729e-233
1.50867e-234
-3.64293e-237
8.58731e-241
-4.39761e-238
8.58485e-240
-1.97347e-242
5.29357e-246
-2.69706e-243
4.42244e-245
-9.65655e-248
2.89251e-251
-1.45911e-248
2.05353e-250
-4.2511e-253
1.39686e-256
-6.97825e-254
8.55932e-256
-1.67473e-258
5.93505e-262
-2.95255e-259
3.18066e-261
-5.85897e-264
2.21163e-267
-1.09875e-264
1.04577e-266
-1.80822e-269
7.19082e-273
-3.56191e-270
3.02754e-272
-4.9108e-275
2.03342e-278
-1.00166e-275
7.71617e-278
-1.1752e-280
5.00353e-284
-2.45387e-281
1.73579e-283
-2.48693e-286
1.07376e-289
-5.27214e-287
3.45806e-289
-4.66732e-292
2.01839e-295
-9.98489e-293
6.11628e-295
-7.78276e-298
3.30933e-301
-1.66225e-298
9.62136e-301
-1.15633e-303
4.67877e-307
-2.39918e-304
1.35291e-306
-1.54249e-309
5.69696e-313
-2.9958e-310
1.71728e-312
-1.86942e-315
6.13684e-319
-3.31881e-316
1.99362e-318
-2.08496e-321
0
-3.40905e-322
0
0
0
0
0
0
0
0
0
0
0
0
0
0
0
0
0
0
0
0
0
0
0
0
0
0
0
0
0
0
0
0
0
0
0
0
0
0
0
0
0
0
0
0
0
0
0
0
0
0
0
0
0
0
0
0
0
0
0
0
0
0
0
0
0
0
0
0
0
0
0
0
0
0
0
0
0
0
0
0
0
0
0
0
0
0
0
0
0
0
0
0
0
0
0
0
0
0
0
0
0
0
0
0
0
0
0
0
0
0
0
0
-9.83155e-153
2.34864e-150
-7.62796e-154
1.00704e-157
-1.45232e-159
-4.78444e-159
1.47725e-156
1.49415e-161
-1.26391e-163
-2.22544e-163
7.25528e-161
9.34121e-166
-6.22303e-168
-7.02364e-168
2.37837e-165
3.80242e-170
-2.1554e-172
-1.69052e-172
5.88995e-170
1.14259e-174
-5.69788e-177
-3.23105e-177
1.1504e-174
2.68524e-179
-1.1999e-181
-4.98702e-182
1.8057e-179
5.10016e-184
-2.06656e-186
-6.22995e-187
2.28782e-184
8.00328e-189
-2.96923e-191
-6.29596e-192
2.34004e-189
1.05734e-193
-3.61788e-196
-5.05723e-197
1.89813e-194
1.19054e-198
-3.77182e-201
-2.9647e-202
1.12464e-199
1.15153e-203
-3.38996e-206
-8.78176e-208
3.42229e-205
9.63173e-209
-2.69887e-211
1.41323e-215
-5.53069e-213
7.47122e-214
-2.03911e-216
3.13565e-220
-1.26959e-217
5.47747e-219
-1.44522e-221
3.40759e-225
-1.39768e-222
3.73869e-224
-9.46641e-227
2.87452e-230
-1.19053e-227
2.34219e-229
-5.65471e-232
2.03662e-235
-8.48894e-233
1.33032e-234
-3.04739e-237
1.24682e-240
-5.20096e-238
6.79103e-240
-1.47162e-242
6.68855e-246
-2.77187e-243
3.10045e-245
-6.3511e-248
3.15861e-251
-1.2912e-248
1.26481e-250
-2.4487e-253
1.32057e-256
-5.31091e-254
4.60969e-256
-8.4353e-259
4.86956e-262
-1.93264e-259
1.50028e-261
-2.59283e-264
1.56898e-267
-6.18533e-265
4.35341e-267
-7.09989e-270
4.40136e-273
-1.73682e-270
1.12446e-272
-1.72957e-275
1.08066e-278
-4.29729e-276
2.58324e-278
-3.74754e-281
2.33739e-284
-9.396e-282
5.28325e-284
-7.24568e-287
4.46494e-290
-1.81138e-287
9.67685e-290
-1.26018e-292
7.53287e-296
-3.08734e-293
1.6026e-295
-1.99225e-298
1.11276e-301
-4.65077e-299
2.42318e-301
-2.88481e-304
1.43894e-307
-6.23954e-305
3.36297e-307
-3.83902e-310
1.66472e-313
-7.5963e-311
4.29299e-313
-4.70344e-316
1.79588e-319
-8.64973e-317
5.0495e-319
-5.2865e-322
0
-9.38725e-323
0
0
0
0
0
0
0
0
0
0
0
0
0
0
0
0
0
0
0
0
0
0
0
0
0
0
0
0
0
0
0
0
0
0
0
0
0
0
0
0
0
0
0
0
0
0
0
0
0
0
0
0
0
0
0
0
0
0
0
0
0
0
0
0
0
0
0
0
0
0
0
0
0
0
0
0
0
0
0
0
0
0
0
0
0
0
0
0
0
0
0
0
0
0
0
0
0
0
0
0
0
0
0
0
0
0
0
0
-5.21324e-148
1.05817e-145
-3.75249e-149
6.90836e-153
-1.06408e-154
-4.09985e-154
1.04805e-151
1.14846e-156
-1.01142e-158
-2.11811e-158
5.67354e-156
7.75586e-161
-5.33584e-163
-7.20432e-163
2.00054e-160
3.35653e-165
-1.95315e-167
-1.83668e-167
5.2518e-165
1.06014e-169
-5.40129e-172
-3.67081e-172
1.07508e-169
2.59457e-174
-1.17958e-176
-5.87129e-177
1.7535e-174
5.09098e-179
-2.09123e-181
-7.55594e-182
2.29338e-179
8.19914e-184
-3.0747e-186
-7.83331e-187
2.40884e-184
1.10507e-188
-3.81118e-191
-6.42477e-192
1.99623e-189
1.26274e-193
-4.02383e-196
-3.84726e-197
1.20526e-194
1.23445e-198
-3.64963e-201
-1.19906e-202
3.81379e-200
1.04063e-203
-2.92014e-206
1.99845e-210
-6.59877e-208
8.08935e-209
-2.2078e-211
4.73819e-215
-1.60037e-212
5.927e-214
-1.5624e-216
5.26769e-220
-1.78933e-217
4.03653e-219
-1.02055e-221
4.51244e-225
-1.53604e-222
2.52077e-224
-6.07467e-227
3.22897e-230
-1.0998e-227
1.42642e-229
-3.26076e-232
1.97998e-235
-6.74295e-233
7.24677e-235
-1.56517e-237
1.0512e-240
-3.57184e-238
3.28401e-240
-6.69464e-243
4.84707e-246
-1.63632e-243
1.32649e-245
-2.55584e-248
1.96548e-251
-6.56729e-249
4.79095e-251
-8.74215e-254
7.05916e-257
-2.3358e-254
1.55354e-256
-2.68915e-259
2.24471e-262
-7.3966e-260
4.5337e-262
-7.44227e-265
6.31595e-268
-2.089e-265
1.1894e-267
-1.85031e-270
1.57802e-273
-5.26805e-271
2.80185e-273
-4.13042e-276
3.49663e-279
-1.18201e-276
5.93289e-279
-8.31328e-282
6.81922e-285
-2.33431e-282
1.13838e-284
-1.52628e-287
1.17806e-290
-4.0898e-288
2.00665e-290
-2.59011e-293
1.81834e-296
-6.46865e-294
3.28496e-296
-4.09151e-299
2.54739e-302
-9.45682e-300
5.00294e-302
-5.99778e-305
3.28945e-308
-1.29606e-305
7.04481e-308
-8.10096e-311
3.97962e-314
-1.66992e-311
9.11984e-314
-1.00481e-316
4.6126e-320
-2.04466e-317
1.08393e-319
-1.13635e-322
0
-2.47033e-323
0
0
0
0
0
0
0
0
0
0
0
0
0
0
0
0
0
0
0
0
0
0
0
0
0
0
0
0
0
0
0
0
0
0
0
0
0
0
0
0
0
0
0
0
0
0
0
0
0
0
0
0
0
0
0
0
0
0
0
0
0
0
0
0
0
0
0
0
0
0
0
0
0
0
0
0
0
0
0
0
0
0
0
0
0
0
0
0
0
0
0
0
0
0
0
0
0
0
0
0
0
0
0
0
-2.00335e-143
3.47947e-141
-1.33181e-144
3.50444e-148
-5.67328e-150
-2.43449e-149
5.25941e-147
6.3506e-152
-5.78478e-154
-1.37665e-153
3.09595e-151
4.57514e-156
-3.24244e-158
-5.02503e-158
1.16865e-155
2.09749e-160
-1.25313e-162
-1.35819e-162
3.25165e-160
6.97029e-165
-3.6326e-167
-2.84856e-167
6.98699e-165
1.7814e-169
-8.25215e-172
-4.73886e-172
1.18515e-169
3.62208e-174
-1.5103e-176
-6.29685e-177
1.59863e-174
5.99818e-179
-2.27385e-181
-6.69312e-182
1.71673e-179
8.24489e-184
-2.86235e-186
-5.58626e-187
1.43848e-184
9.52784e-189
-3.04485e-191
-3.38567e-192
8.7072e-190
9.35441e-194
-2.76571e-196
-1.07238e-197
2.71862e-195
7.87887e-199
-2.20613e-201
2.05086e-205
-5.88294e-203
6.08912e-204
-1.65391e-206
4.97107e-210
-1.39296e-207
4.41512e-209
-1.15665e-211
5.55224e-215
-1.54464e-212
2.96964e-214
-7.46224e-217
4.75148e-220
-1.31318e-217
1.83326e-219
-4.39866e-222
3.39041e-225
-9.31393e-223
1.02951e-224
-2.34903e-227
2.07348e-230
-5.67356e-228
5.22054e-230
-1.12931e-232
1.09693e-235
-3.00034e-233
2.37649e-235
-4.86372e-238
5.01939e-241
-1.37632e-238
9.67962e-241
-1.87389e-243
2.00873e-246
-5.52293e-244
3.52873e-246
-6.46821e-249
7.12418e-252
-1.96307e-249
1.15445e-251
-2.00701e-254
2.25447e-257
-6.22779e-255
3.40017e-257
-5.61583e-260
6.38705e-263
-1.7691e-260
9.04808e-263
-1.42283e-265
1.62182e-268
-4.50965e-266
2.18549e-268
-3.28295e-271
3.6783e-274
-1.03061e-271
4.82747e-274
-6.95688e-277
7.38373e-280
-2.10169e-277
9.83793e-280
-1.3665e-282
1.32342e-285
-3.86486e-283
1.8665e-285
-2.50749e-288
2.1624e-291
-6.54501e-289
3.31436e-291
-4.30942e-294
3.31021e-297
-1.04833e-294
5.50844e-297
-6.91436e-300
4.80828e-303
-1.6097e-300
8.51412e-303
-1.02737e-305
6.59254e-309
-2.34612e-306
1.21386e-308
-1.40354e-311
8.53405e-315
-3.21906e-312
1.58817e-314
-1.75838e-317
1.03556e-320
-4.11388e-318
1.90611e-320
-1.97626e-323
0
-4.94066e-324
0
0
0
0
0
0
0
0
0
0
0
0
0
0
0
0
0
0
0
0
0
0
0
0
0
0
0
0
0
0
0
0
0
0
0
0
0
0
0
0
0
0
0
0
0
0
0
0
0
0
0
0
0
0
0
0
0
0
0
0
0
0
0
0
0
0
0
0
0
0
0
0
0
0
0
0
0
0
0
0
0
0
0
0
0
0
0
0
0
0
0
0
0
0
0
0
0
0
0
0
-5.6577e-139
8.48155e-137
-3.33222e-140
1.27981e-143
-2.18501e-145
-1.04169e-144
1.93301e-142
2.53989e-147
-2.39211e-149
-6.36793e-149
1.22502e-146
1.95084e-151
-1.42255e-153
-2.48321e-153
4.92765e-151
9.46003e-156
-5.79944e-158
-7.10874e-158
1.45175e-155
3.30597e-160
-1.76225e-162
-1.56544e-162
3.27823e-160
8.8217e-165
-4.16353e-167
-2.70826e-167