/*--------------------------------*- C++ -*----------------------------------*\
| =========                 |                                                 |
| \\      /  F ield         | OpenFOAM: The Open Source CFD Toolbox           |
|  \\    /   O peration     | Version:  v1912                                 |
|   \\  /    A nd           | Website:  www.openfoam.com                      |
|    \\/     M anipulation  |                                                 |
\*---------------------------------------------------------------------------*/
FoamFile
{
    version     2.0;
    format      ascii;
    class       volScalarField;
    location    "4";
    object      alpha.water;
}
// * * * * * * * * * * * * * * * * * * * * * * * * * * * * * * * * * * * * * //

dimensions      [0 0 0 0 0 0 0];


internalField   nonuniform List<scalar> 
20320
(
1
1
1
0.999999
1
1
1
1
1
1
1
1
1
1
1
1
1
1
1
1
1
1
1
1
1
1
0.999999
1
1
1
1
1
1
1
1
1
1
1
1
1
1
1
1
0.999999
0.999999
1
1
1
1
1
1
1
1
1
1
1
1
1
1
1
1
1
1
1
1
1
1
1
1
1
1
1
1
1
1
1
1
1
1
1
1
1
1
0.999999
0.999999
1
0.999999
1
1
1
1
1
1
1
1
1
1
1
1
1
1
0.999999
1
1
1
1
0.999999
1
1
1
1
1
1
1
1
1
1
1
1
1
1
1
1
1
1
1
1
1
1
1
1
1
1
1
1
1
1
1
1
1
1
0.999999
1
1
1
1
1
1
1
1
1
1
1
1
1
1
1
1
1
1
1
1
1
1
1
1
1
1
1
1
1
1
1
1
1
1
1
1
1
1
1
1
1
1
1
1
1
1
1
1
1
1
1
1
1
1
1
1
1
1
1
1
1
1
1
1
1
1
1
1
1
1
1
1
1
1
1
1
1
1
1
1
1
1
1
1
1
1
1
1
1
1
1
1
1
1
1
1
1
1
1
1
1
1
1
1
1
1
1
1
1
1
1
1
1
1
1
1
1
1
1
1
1
1
1
1
1
1
1
1
1
1
1
1
1
1
1
1
1
1
1
1
1
1
1
1
1
1
1
1
1
1
1
1
1
1
1
1
1
1
1
1
1
1
1
1
1
1
1
1
1
1
1
1
1
1
1
1
1
1
1
1
1
1
1
1
1
1
1
1
1
1
1
1
1
1
1
1
1
1
1
0.999999
1
1
1
1
1
1
1
1
1
1
1
1
1
1
1
1
1
1
1
1
0.999999
1
1
1
1
1
1
1
1
1
1
1
1
1
1
1
1
1
1
1
1
1
1
1
1
1
1
1
1
1
1
1
1
1
1
1
1
1
-2.40503e-177
-2.47272e-185
-5.83771e-190
-1.35381e-194
-2.90009e-199
-5.57891e-204
-9.48228e-209
-1.40625e-213
-1.82912e-218
-2.11057e-223
-2.15651e-228
-1.94203e-233
-1.60141e-238
-1.25235e-243
-9.13517e-249
-6.13327e-254
-3.74544e-259
-2.05837e-264
-1.0083e-269
-4.37206e-275
-1.67195e-280
-5.62909e-286
-1.6647e-291
-4.3116e-297
-9.73021e-303
-1.90385e-308
-3.21457e-314
-4.66793e-320
0
0
0
0
0
0
0
0
0
0
0
0
0
0
0
0
0
0
0
0
0
0
0
0
0
0
0
0
0
0
0
0
-1.8892e-171
-8.53933e-179
-2.61666e-183
-6.83964e-188
-1.56464e-192
-3.12577e-197
-5.42923e-202
-8.18256e-207
-1.07688e-211
-1.25e-216
-1.28168e-221
-1.15714e-226
-9.39048e-232
-7.29506e-237
-5.35284e-242
-3.65808e-247
-2.30116e-252
-1.31857e-257
-6.8178e-263
-3.15345e-268
-1.29755e-273
-4.73955e-279
-1.53462e-284
-4.38901e-290
-1.10165e-295
-2.409e-301
-4.55976e-307
-7.45337e-313
-1.05422e-318
-0
0
0
0
0
0
0
0
0
0
0
0
0
0
0
0
0
0
0
0
0
0
0
0
0
0
0
0
0
0
0
-5.26567e-166
-5.85021e-173
-2.16649e-177
-6.30569e-182
-1.53535e-186
-3.18769e-191
-5.67627e-196
-8.70735e-201
-1.15909e-205
-1.35166e-210
-1.38378e-215
-1.24196e-220
-9.97853e-226
-7.6557e-231
-5.5416e-236
-3.73497e-241
-2.32122e-246
-1.31964e-251
-6.80905e-257
-3.16321e-262
-1.31211e-267
-4.82713e-273
-1.56819e-278
-4.47991e-284
-1.12117e-289
-2.4496e-295
-4.65861e-301
-7.6943e-307
-1.1041e-312
-1.38287e-318
-0
0
0
0
0
0
0
0
0
0
0
0
0
0
0
0
0
0
0
0
0
0
0
0
0
0
0
0
0
0
-7.7869e-161
-1.73284e-167
-7.46215e-172
-2.37975e-176
-6.13358e-181
-1.31982e-185
-2.40498e-190
-3.74336e-195
-5.02155e-200
-5.86299e-205
-5.97679e-210
-5.32351e-215
-4.24515e-220
-3.23296e-225
-2.32152e-230
-1.55194e-235
-9.56218e-241
-5.38856e-246
-2.76218e-251
-1.28037e-256
-5.32584e-262
-1.96895e-267
-6.41283e-273
-1.82988e-278
-4.5715e-284
-1.00182e-289
-1.92963e-295
-3.2655e-301
-4.84722e-307
-6.33333e-313
-7.37581e-319
-0
0
0
0
0
0
0
0
0
0
0
0
0
0
0
0
0
0
0
0
0
0
0
0
0
0
0
0
0
-7.1847e-156
-2.8594e-162
-1.39691e-166
-4.82263e-171
-1.31102e-175
-2.92209e-180
-5.44876e-185
-8.60445e-190
-1.16352e-194
-1.36215e-199
-1.38717e-204
-1.23269e-209
-9.81215e-215
-7.47048e-220
-5.36874e-225
-3.59207e-230
-2.21038e-235
-1.23892e-240
-6.28608e-246
-2.87531e-251
-1.18091e-256
-4.32529e-262
-1.40172e-267
-3.99907e-273
-1.0038e-278
-2.22438e-284
-4.36686e-290
-7.61498e-296
-1.18163e-301
-1.6398e-307
-2.05526e-313
-2.35714e-319
0
0
0
0
0
0
0
0
0
0
0
0
0
0
0
0
0
0
0
0
0
0
0
0
0
0
0
0
-4.54703e-151
-2.99039e-157
-1.62881e-161
-6.05204e-166
-1.7366e-170
-4.02717e-175
-7.73003e-180
-1.24682e-184
-1.71202e-189
-2.02552e-194
-2.0775e-199
-1.85699e-204
-1.48398e-209
-1.13439e-214
-8.19708e-220
-5.51311e-225
-3.40291e-230
-1.9043e-235
-9.5795e-241
-4.31154e-246
-1.73399e-251
-6.23352e-257
-2.00102e-262
-5.72617e-268
-1.45841e-273
-3.30404e-279
-6.6661e-285
-1.20479e-290
-1.96988e-296
-2.94163e-302
-4.03435e-308
-5.09265e-314
-5.92681e-320
0
0
0
0
0
0
0
0
0
0
0
0
0
0
0
0
0
0
0
0
0
0
0
0
0
0
0
-2.06929e-146
-2.13137e-152
-1.27761e-156
-5.09731e-161
-1.54842e-165
-3.76103e-170
-7.49552e-175
-1.24629e-179
-1.75366e-184
-2.11329e-189
-2.19708e-194
-1.98321e-199
-1.59343e-204
-1.21944e-209
-8.80259e-215
-5.90692e-220
-3.63494e-225
-2.02799e-230
-1.01577e-235
-4.54047e-241
-1.80949e-246
-6.44699e-252
-2.06281e-257
-5.94006e-263
-1.53827e-268
-3.578e-274
-7.48256e-280
-1.41834e-285
-2.46994e-291
-3.99651e-297
-6.02003e-303
-8.39106e-309
-1.07625e-314
-1.26629e-320
0
0
0
0
0
0
0
0
0
0
0
0
0
0
0
0
0
0
0
0
0
0
0
0
0
0
-6.89041e-142
-1.08029e-147
-7.04659e-152
-3.00921e-156
-9.6873e-161
-2.47245e-165
-5.13684e-170
-8.83773e-175
-1.27704e-179
-1.56845e-184
-1.6491e-189
-1.4959e-194
-1.2015e-199
-9.13239e-205
-6.51828e-210
-4.31854e-215
-2.62785e-220
-1.45508e-225
-7.27886e-231
-3.26951e-236
-1.3143e-241
-4.72808e-247
-1.52684e-252
-4.44065e-258
-1.16742e-263
-2.78664e-269
-6.08396e-275
-1.22568e-280
-2.29956e-286
-4.04008e-292
-6.64875e-298
-1.01861e-303
-1.44091e-309
-1.87203e-315
-2.2233e-321
0
0
0
0
0
0
0
0
0
0
0
0
0
0
0
0
0
0
0
0
0
0
0
0
0
-1.70549e-137
-4.01408e-143
-2.82427e-147
-1.28633e-151
-4.38524e-156
-1.17662e-160
-2.54947e-165
-4.53591e-170
-6.72094e-175
-8.38457e-180
-8.87662e-185
-8.04454e-190
-6.42822e-195
-4.83829e-200
-3.40426e-205
-2.22237e-210
-1.33658e-215
-7.35311e-221
-3.67969e-226
-1.66684e-231
-6.80173e-237
-2.49154e-242
-8.18944e-248
-2.42371e-253
-6.50883e-259
-1.60572e-264
-3.68895e-270
-7.96421e-276
-1.62063e-281
-3.10265e-287
-5.57366e-293
-9.3596e-299
-1.45966e-304
-2.09583e-310
-2.7525e-316
-3.16202e-322
0
0
0
0
0
0
0
0
0
0
0
0
0
0
0
0
0
0
0
0
0
0
0
0
-3.20664e-133
-1.12159e-138
-8.46783e-143
-4.1037e-147
-1.48251e-151
-4.19312e-156
-9.51305e-161
-1.759e-165
-2.68577e-170
-3.42022e-175
-3.66586e-180
-3.33759e-185
-2.67346e-190
-2.00728e-195
-1.40302e-200
-9.08656e-206
-5.42958e-211
-2.97889e-216
-1.49345e-221
-6.81235e-227
-2.81466e-232
-1.05008e-237
-3.53572e-243
-1.07979e-248
-3.02244e-254
-7.8637e-260
-1.92894e-265
-4.49909e-271
-9.98251e-277
-2.0963e-282
-4.14043e-288
-7.64668e-294
-1.31215e-299
-2.07522e-305
-3.00081e-311
-3.95376e-317
-3.95253e-323
0
0
0
0
0
0
0
0
0
0
0
0
0
0
0
0
0
0
0
0
0
0
0
-4.65019e-129
-2.39746e-134
-1.93364e-138
-9.95967e-143
-3.81949e-147
-1.14441e-151
-2.74121e-156
-5.32774e-161
-8.49634e-166
-1.12202e-170
-1.23757e-175
-1.15143e-180
-9.4084e-186
-7.15489e-191
-5.03214e-196
-3.26047e-201
-1.94339e-206
-1.06377e-211
-5.33665e-217
-2.44668e-222
-1.02271e-227
-3.89437e-233
-1.35466e-238
-4.33858e-244
-1.29378e-249
-3.63432e-255
-9.70539e-261
-2.47565e-266
-6.03365e-272
-1.39635e-277
-3.03988e-283
-6.16616e-289
-1.1564e-294
-1.99684e-300
-3.1606e-306
-4.56268e-312
-5.99011e-318
-0
0
0
0
0
0
0
0
0
0
0
0
0
0
0
0
0
0
0
0
0
0
0
-5.21063e-125
-3.95236e-130
-3.3831e-134
-1.84731e-138
-7.52015e-143
-2.39333e-147
-6.08771e-152
-1.25478e-156
-2.11607e-161
-2.94047e-166
-3.39436e-171
-3.28264e-176
-2.78482e-181
-2.17986e-186
-1.56433e-191
-1.0257e-196
-6.14116e-202
-3.36316e-207
-1.68821e-212
-7.78261e-218
-3.30042e-223
-1.292e-228
-4.69767e-234
-1.60171e-239
-5.17614e-245
-1.59707e-250
-4.71961e-256
-1.33425e-261
-3.59299e-267
-9.1437e-273
-2.17666e-278
-4.80278e-284
-9.7603e-290
-1.82313e-295
-3.12564e-301
-4.89282e-307
-6.93558e-313
-8.87811e-319
-0
0
0
0
0
0
0
0
0
0
0
0
0
0
0
0
0
0
0
0
0
0
-4.49696e-121
-5.04971e-126
-4.54923e-130
-2.62155e-134
-1.12946e-138
-3.81215e-143
-1.03036e-147
-2.25884e-152
-4.05122e-157
-5.97777e-162
-7.30478e-167
-7.44075e-172
-6.64521e-177
-5.43366e-182
-4.04449e-187
-2.73024e-192
-1.67104e-197
-9.29073e-203
-4.71938e-208
-2.20683e-213
-9.58868e-219
-3.90699e-224
-1.50833e-229
-5.56833e-235
-1.98018e-240
-6.79273e-246
-2.24027e-251
-7.0487e-257
-2.09378e-262
-5.81538e-268
-1.49768e-273
-3.55938e-279
-7.77973e-285
-1.55984e-290
-2.86147e-296
-4.77832e-302
-7.2056e-308
-9.77808e-314
-1.1987e-319
0
0
0
0
0
0
0
0
0
0
0
0
0
0
0
0
0
0
0
0
0
-2.99294e-117
-5.03651e-122
-4.74659e-126
-2.87347e-130
-1.3037e-134
-4.6451e-139
-1.3296e-143
-3.09994e-148
-5.92952e-153
-9.35349e-158
-1.22205e-162
-1.32905e-167
-1.26887e-172
-1.10168e-177
-8.65687e-183
-6.13863e-188
-3.92632e-193
-2.27093e-198
-1.19754e-203
-5.83101e-209
-2.66344e-214
-1.15907e-219
-4.86438e-225
-1.98233e-230
-7.84867e-236
-3.00428e-241
-1.10013e-246
-3.80657e-252
-1.23048e-257
-3.68408e-263
-1.01615e-268
-2.57452e-274
-5.98281e-280
-1.26937e-285
-2.44774e-291
-4.27942e-297
-6.7636e-303
-9.63689e-309
-1.23931e-314
-1.44366e-320
0
0
0
0
0
0
0
0
0
0
0
0
0
0
0
0
0
0
0
0
-1.55077e-113
-3.9756e-118
-3.92092e-122
-2.48955e-126
-1.1843e-130
-4.42653e-135
-1.33321e-139
-3.28627e-144
-6.68905e-149
-1.12958e-153
-1.58798e-158
-1.86301e-163
-1.92723e-168
-1.80596e-173
-1.52412e-178
-1.1574e-183
-7.92423e-189
-4.91989e-194
-2.80185e-199
-1.48659e-204
-7.4773e-210
-3.61746e-215
-1.69771e-220
-7.73775e-226
-3.40607e-231
-1.43437e-236
-5.70617e-242
-2.11894e-247
-7.28014e-253
-2.30397e-258
-6.69579e-264
-1.77915e-269
-4.30661e-275
-9.46196e-281
-1.88173e-286
-3.39389e-292
-5.55577e-298
-8.23598e-304
-1.10268e-309
-1.33366e-315
-1.46243e-321
0
0
0
0
0
0
0
0
0
0
0
0
0
0
0
0
0
0
0
-6.3874e-110
-2.5409e-114
-2.65735e-118
-1.78045e-122
-8.87179e-127
-3.45773e-131
-1.08563e-135
-2.79908e-140
-5.99451e-145
-1.07319e-149
-1.61293e-154
-2.03858e-159
-2.29185e-164
-2.34734e-169
-2.17513e-174
-1.82295e-179
-1.38913e-184
-9.71459e-190
-6.31028e-195
-3.8578e-200
-2.24535e-205
-1.25215e-210
-6.69726e-216
-3.41706e-221
-1.64803e-226
-7.45346e-232
-3.13626e-237
-1.21963e-242
-4.36296e-248
-1.43173e-253
-4.29791e-259
-1.17417e-264
-2.90754e-270
-6.52009e-276
-1.32669e-281
-2.45958e-287
-4.15978e-293
-6.39646e-299
-8.90266e-305
-1.12044e-310
-1.28398e-316
-1.33398e-322
0
0
0
0
0
0
0
0
0
0
0
0
0
0
0
0
0
0
-2.16116e-106
-1.35978e-110
-1.55209e-114
-1.11561e-118
-5.86758e-123
-2.38613e-127
-7.77106e-132
-2.07688e-136
-4.63018e-141
-8.69988e-146
-1.38545e-150
-1.87855e-155
-2.29794e-160
-2.6129e-165
-2.74513e-170
-2.66005e-175
-2.38469e-180
-1.98945e-185
-1.55424e-190
-1.1416e-195
-7.89485e-201
-5.13074e-206
-3.11778e-211
-1.75979e-216
-9.15363e-222
-4.36957e-227
-1.91306e-232
-7.6806e-238
-2.82226e-243
-9.46339e-249
-2.88962e-254
-8.01714e-260
-2.01998e-265
-4.63344e-271
-9.7006e-277
-1.8593e-282
-3.2653e-288
-5.23644e-294
-7.63694e-300
-1.01293e-305
-1.2278e-311
-1.37161e-317
-4.94066e-324
0
0
0
0
0
0
0
0
0
0
0
0
0
0
0
0
0
-6.22186e-103
-6.30986e-107
-8.16311e-111
-6.45091e-115
-3.64155e-119
-1.56394e-123
-5.324e-128
-1.4812e-132
-3.44639e-137
-6.81821e-142
-1.1593e-146
-1.706e-151
-2.29682e-156
-2.96783e-161
-3.64708e-166
-4.23788e-171
-4.6311e-176
-4.7397e-181
-4.52541e-186
-4.0065e-191
-3.26556e-196
-2.43404e-201
-1.65015e-206
-1.0143e-211
-5.63682e-217
-2.82886e-222
-1.28522e-227
-5.30086e-233
-1.98698e-238
-6.76435e-244
-2.09383e-249
-5.91046e-255
-1.52689e-260
-3.62198e-266
-7.89309e-272
-1.57951e-277
-2.90522e-283
-4.90697e-289
-7.59539e-295
-1.07601e-300
-1.39687e-306
-1.67112e-312
-1.85306e-318
-0
0
0
0
0
0
0
0
0
0
0
0
0
0
0
0
0
-1.56239e-99
-2.59253e-103
-3.92787e-107
-3.49954e-111
-2.16741e-115
-1.00243e-119
-3.63155e-124
-1.06873e-128
-2.62818e-133
-5.53369e-138
-1.0166e-142
-1.64935e-147
-2.45768e-152
-3.63019e-157
-5.23425e-162
-7.25994e-167
-9.5404e-172
-1.17067e-176
-1.32454e-181
-1.36718e-186
-1.2748e-191
-1.06547e-196
-7.94465e-202
-5.28273e-207
-3.13574e-212
-1.66265e-217
-7.89281e-223
-3.36704e-228
-1.29648e-233
-4.52533e-239
-1.44111e-244
-4.21493e-250
-1.13669e-255
-2.83144e-261
-6.50722e-267
-1.37681e-272
-2.68633e-278
-4.84436e-284
-8.05676e-290
-1.23055e-295
-1.72197e-301
-2.21305e-307
-2.63146e-313
-2.90639e-319
-0
0
0
0
0
0
0
0
0
0
0
0
0
0
0
0
-3.44416e-96
-9.46205e-100
-1.70357e-103
-1.7404e-107
-1.20322e-111
-6.10263e-116
-2.39419e-120
-7.57002e-125
-1.99136e-129
-4.47758e-134
-8.82234e-139
-1.55486e-143
-2.51739e-148
-4.06282e-153
-6.52424e-158
-1.02191e-162
-1.52764e-167
-2.13248e-172
-2.73034e-177
-3.16382e-182
-3.28753e-187
-3.04226e-192
-2.4949e-197
-1.80817e-202
-1.15943e-207
-6.58774e-213
-3.32871e-218
-1.50435e-223
-6.13026e-229
-2.27032e-234
-7.70334e-240
-2.41084e-245
-6.97813e-251
-1.86763e-256
-4.62235e-262
-1.05689e-267
-2.23574e-273
-4.384e-279
-7.94803e-285
-1.32211e-290
-2.00717e-296
-2.78604e-302
-3.56495e-308
-4.22984e-314
-4.62742e-320
0
0
0
0
0
0
0
0
0
0
0
0
0
0
0
-6.61979e-93
-3.04828e-96
-6.52431e-100
-7.67003e-104
-5.95389e-108
-3.33171e-112
-1.42597e-116
-4.8766e-121
-1.37875e-125
-3.31274e-130
-6.92518e-135
-1.28832e-139
-2.1759e-144
-3.6104e-149
-6.01378e-154
-9.87837e-159
-1.56853e-163
-2.358e-168
-3.28737e-173
-4.17816e-178
-4.78122e-183
-4.887e-188
-4.43562e-193
-3.55845e-198
-2.52108e-203
-1.57988e-208
-8.79982e-214
-4.39356e-219
-1.98549e-224
-8.1818e-230
-3.08993e-235
-1.07393e-240
-3.44458e-246
-1.02057e-251
-2.79835e-257
-7.10478e-263
-1.66818e-268
-3.62132e-274
-7.23928e-280
-1.32296e-285
-2.19662e-291
-3.31478e-297
-4.57942e-303
-5.83311e-309
-6.83594e-315
-7.26276e-321
0
0
0
0
0
0
0
0
0
0
0
0
0
0
-1.09841e-89
-8.6384e-93
-2.19025e-96
-2.95635e-100
-2.567e-104
-1.57507e-108
-7.30139e-113
-2.68904e-117
-8.15052e-122
-2.0916e-126
-4.64813e-131
-9.10544e-136
-1.59955e-140
-2.65546e-145
-4.40204e-150
-7.23395e-155
-1.16528e-159
-1.8114e-164
-2.66903e-169
-3.65827e-174
-4.58566e-179
-5.19216e-184
-5.26957e-189
-4.7699e-194
-3.84544e-199
-2.76376e-204
-1.77533e-209
-1.02508e-214
-5.36207e-220
-2.55488e-225
-1.11054e-230
-4.41265e-236
-1.6097e-241
-5.40968e-247
-1.67906e-252
-4.81354e-258
-1.26981e-263
-3.0718e-269
-6.79769e-275
-1.3694e-280
-2.4971e-286
-4.11263e-292
-6.14304e-298
-8.38001e-304
-1.04489e-309
-1.17935e-315
-1.18082e-321
0
0
0
0
0
0
0
0
0
0
0
0
0
-1.56665e-86
-2.1647e-89
-6.52046e-93
-1.01086e-96
-9.78427e-101
-6.5256e-105
-3.22605e-109
-1.25342e-113
-4.00655e-118
-1.08751e-122
-2.56198e-127
-5.32568e-132
-9.88935e-137
-1.68642e-141
-2.82703e-146
-4.66941e-151
-7.57214e-156
-1.19775e-160
-1.82924e-165
-2.66114e-170
-3.63001e-175
-4.57236e-180
-5.25922e-185
-5.48405e-190
-5.16349e-195
-4.38487e-200
-3.35121e-205
-2.30226e-210
-1.42456e-215
-7.97441e-221
-4.04672e-226
-1.8653e-231
-7.84419e-237
-3.02214e-242
-1.06831e-247
-3.46213e-253
-1.02401e-258
-2.75312e-264
-6.72428e-270
-1.48931e-275
-2.97439e-281
-5.32551e-287
-8.54695e-293
-1.23797e-298
-1.6274e-304
-1.93283e-310
-2.04485e-316
-1.87745e-322
0
0
0
0
0
0
0
0
0
0
0
0
-1.94472e-83
-4.86724e-86
-1.76887e-89
-3.18126e-93
-3.45149e-97
-2.49985e-101
-1.30378e-105
-5.22234e-110
-1.69905e-114
-4.69694e-119
-1.137e-123
-2.45522e-128
-4.78442e-133
-8.53124e-138
-1.47693e-142
-2.51084e-147
-4.18678e-152
-6.83094e-157
-1.08685e-161
-1.67627e-166
-2.48542e-171
-3.49957e-176
-4.61895e-181
-5.64158e-186
-6.30884e-191
-6.41715e-196
-5.89952e-201
-4.87001e-206
-3.59793e-211
-2.38577e-216
-1.4259e-221
-7.70008e-227
-3.76705e-232
-1.67329e-237
-6.74763e-243
-2.46885e-248
-8.17064e-254
-2.43986e-259
-6.57433e-265
-1.59723e-270
-3.47892e-276
-6.74023e-282
-1.15726e-287
-1.77141e-293
-2.4406e-299
-3.03212e-305
-3.35738e-311
-3.2504e-317
-1.97626e-323
0
0
0
0
0
0
0
0
0
0
0
-2.16184e-80
-1.00019e-82
-4.49152e-86
-9.55976e-90
-1.18762e-93
-9.52844e-98
-5.30728e-102
-2.18787e-106
-7.08978e-111
-1.90948e-115
-4.48587e-120
-9.50251e-125
-1.85056e-129
-3.34793e-134
-5.94151e-139
-1.05128e-143
-1.8486e-148
-3.2198e-153
-5.53146e-158
-9.32964e-163
-1.53732e-167
-2.45487e-172
-3.75419e-177
-5.41845e-182
-7.2571e-187
-8.8928e-192
-9.8684e-197
-9.83653e-202
-8.75129e-207
-6.94496e-212
-4.93341e-217
-3.14272e-222
-1.79617e-227
-9.21269e-233
-4.23887e-238
-1.75117e-243
-6.49457e-249
-2.15759e-254
-6.41657e-260
-1.70686e-265
-4.03985e-271
-8.43542e-277
-1.54609e-282
-2.49965e-288
-3.6049e-294
-4.66535e-300
-5.37719e-306
-5.41706e-312
-4.66573e-318
-0
0
0
0
0
0
0
0
0
0
0
-2.19876e-77
-1.88524e-79
-1.06262e-82
-2.72436e-86
-3.98185e-90
-3.6718e-94
-2.28367e-98
-1.01351e-102
-3.39298e-107
-9.04715e-112
-2.0293e-116
-4.03308e-121
-7.40674e-126
-1.29075e-130
-2.25511e-135
-4.10739e-140
-7.72976e-145
-1.48619e-149
-2.88178e-154
-5.56222e-159
-1.05693e-163
-1.95783e-168
-3.49602e-173
-5.9462e-178
-9.47855e-183
-1.39154e-187
-1.85549e-192
-2.22389e-197
-2.37572e-202
-2.25178e-207
-1.89329e-212
-1.41266e-217
-9.35196e-223
-5.49759e-228
-2.87236e-233
-1.33633e-238
-5.5413e-244
-2.04332e-249
-6.68047e-255
-1.93372e-260
-4.93994e-266
-1.1067e-271
-2.16243e-277
-3.69529e-283
-5.57712e-289
-7.4953e-295
-8.94268e-301
-9.31544e-307
-8.29204e-313
-6.17725e-319
-0
0
0
0
0
0
0
0
0
0
-2.03933e-74
-3.19614e-76
-2.24625e-79
-6.95551e-83
-1.21305e-86
-1.32502e-90
-9.66545e-95
-4.94288e-99
-1.85456e-103
-5.34664e-108
-1.24168e-112
-2.44396e-117
-4.29728e-122
-7.07828e-127
-1.16972e-131
-2.11258e-136
-4.16868e-141
-8.8276e-146
-1.95145e-150
-4.37663e-155
-9.73078e-160
-2.10821e-164
-4.38933e-169
-8.6887e-174
-1.61671e-178
-2.78675e-183
-4.38263e-188
-6.20225e-193
-7.80998e-198
-8.68017e-203
-8.48619e-208
-7.29726e-213
-5.52238e-218
-3.68467e-223
-2.17203e-228
-1.13207e-233
-5.2178e-239
-2.12138e-244
-7.57573e-250
-2.37173e-255
-6.50529e-261
-1.55723e-266
-3.23542e-272
-5.83329e-278
-9.19475e-284
-1.27832e-289
-1.56832e-295
-1.67776e-301
-1.53468e-307
-1.17572e-313
-7.39517e-320
0
0
0
0
0
0
0
0
0
-1.68865e-71
-4.71358e-73
-4.04965e-76
-1.49073e-79
-3.08542e-83
-4.02143e-87
-3.51693e-91
-2.16541e-95
-9.75927e-100
-3.33715e-104
-8.98462e-109
-1.97838e-113
-3.71181e-118
-6.22046e-123
-1.00062e-127
-1.74888e-132
-3.44517e-137
-7.63582e-142
-1.84707e-146
-4.67536e-151
-1.19259e-155
-2.98541e-160
-7.18882e-165
-1.64133e-169
-3.51577e-174
-6.97952e-179
-1.2662e-183
-2.06835e-188
-3.00068e-193
-3.82776e-198
-4.27547e-203
-4.1809e-208
-3.58258e-213
-2.6947e-218
-1.78086e-223
-1.03315e-228
-5.25379e-234
-2.33735e-239
-9.06209e-245
-3.05647e-250
-8.97336e-256
-2.28846e-261
-5.04468e-267
-9.58257e-273
-1.57445e-278
-2.25815e-284
-2.83779e-290
-3.10095e-296
-2.90157e-302
-2.27484e-308
-1.4625e-314
-7.56415e-321
0
0
0
0
0
0
0
0
-1.23389e-68
-5.86378e-70
-6.08602e-73
-2.60095e-76
-6.26535e-80
-9.63868e-84
-1.0104e-87
-7.55761e-92
-4.19256e-96
-1.78099e-100
-5.95402e-105
-1.60919e-109
-3.61272e-114
-6.94624e-119
-1.21808e-123
-2.19491e-128
-4.30648e-133
-9.52656e-138
-2.37079e-142
-6.42247e-147
-1.81265e-151
-5.1298e-156
-1.41305e-160
-3.70262e-165
-9.07789e-170
-2.05401e-174
-4.23007e-179
-7.82308e-184
-1.28334e-188
-1.84852e-193
-2.32785e-198
-2.56243e-203
-2.46507e-208
-2.07166e-213
-1.52009e-218
-9.72022e-224
-5.40491e-229
-2.61073e-234
-1.09348e-239
-3.96626e-245
-1.24447e-250
-3.3712e-256
-7.85433e-262
-1.56583e-267
-2.67457e-273
-3.94853e-279
-5.06633e-285
-5.63403e-291
-5.36298e-297
-4.28079e-303
-2.7997e-309
-1.46941e-315
-6.07701e-322
0
0
0
0
0
0
0
-7.93372e-66
-6.0234e-67
-7.59456e-70
-3.68871e-73
-1.01573e-76
-1.82222e-80
-2.27844e-84
-2.07537e-88
-1.42708e-92
-7.6301e-97
-3.24837e-101
-1.12346e-105
-3.21337e-110
-7.73676e-115
-1.67424e-119
-3.52439e-124
-7.56374e-129
-1.73412e-133
-4.37789e-138
-1.21824e-142
-3.63974e-147
-1.12303e-151
-3.44335e-156
-1.01532e-160
-2.80729e-165
-7.1422e-170
-1.6468e-174
-3.3995e-179
-6.21694e-184
-9.98398e-189
-1.40099e-193
-1.71491e-198
-1.8283e-203
-1.69323e-208
-1.36132e-213
-9.48324e-219
-5.71747e-224
-2.98161e-229
-1.34473e-234
-5.23e-240
-1.75001e-245
-5.02039e-251
-1.23062e-256
-2.56525e-262
-4.54746e-268
-6.90201e-274
-9.03629e-280
-1.02011e-285
-9.83272e-292
-7.94272e-298
-5.25236e-304
-2.7814e-310
-1.15745e-316
-2.96439e-323
0
0
0
0
0
0
-4.41988e-63
-5.03435e-64
-7.86708e-67
-4.26785e-70
-1.32373e-73
-2.76221e-77
-4.15589e-81
-4.70009e-85
-4.11883e-89
-2.8581e-93
-1.59597e-97
-7.27242e-102
-2.73884e-106
-8.64873e-111
-2.49555e-115
-6.85307e-120
-1.83544e-124
-4.9244e-129
-1.36059e-133
-3.95383e-138
-1.2134e-142
-3.87387e-147
-1.251e-151
-3.95185e-156
-1.18463e-160
-3.28969e-165
-8.30751e-170
-1.88124e-174
-3.77627e-179
-6.65382e-184
-1.0226e-188
-1.36713e-193
-1.5851e-198
-1.58941e-203
-1.37795e-208
-1.03298e-213
-6.69131e-219
-3.74236e-224
-1.80444e-229
-7.47915e-235
-2.6532e-240
-8.01965e-246
-2.05667e-251
-4.46094e-257
-8.17955e-263
-1.27418e-268
-1.69853e-274
-1.94124e-280
-1.88586e-286
-1.53135e-292
-1.01682e-298
-5.39755e-305
-2.24622e-311
-7.17884e-318
-0
0
0
0
0
0
-2.04792e-60
-3.39798e-61
-6.80951e-64
-4.07254e-67
-1.41021e-70
-3.44693e-74
-6.40181e-78
-9.36042e-82
-1.0998e-85
-1.04653e-89
-8.06503e-94
-5.03742e-98
-2.56538e-102
-1.09168e-106
-4.28627e-111
-1.60053e-115
-5.74224e-120
-1.98779e-124
-6.66596e-129
-2.18658e-133
-7.10628e-138
-2.3089e-142
-7.49308e-147
-2.39776e-151
-7.40272e-156
-2.15333e-160
-5.7712e-165
-1.39933e-169
-3.02099e-174
-5.72575e-179
-9.4368e-184
-1.34797e-188
-1.6654e-193
-1.77491e-198
-1.63332e-203
-1.30039e-208
-8.94925e-214
-5.31284e-219
-2.71262e-224
-1.1863e-229
-4.42236e-235
-1.39817e-240
-3.72955e-246
-8.3694e-252
-1.5799e-257
-2.51847e-263
-3.40754e-269
-3.92379e-275
-3.81801e-281
-3.09097e-287
-2.04188e-293
-1.07725e-299
-4.44316e-306
-1.40367e-312
-3.3221e-319
0
0
0
0
0
-7.45949e-58
-1.85592e-58
-5.00272e-61
-3.32388e-64
-1.31246e-67
-3.91664e-71
-9.50967e-75
-1.91483e-78
-3.19787e-82
-4.37026e-86
-4.79909e-90
-4.18734e-94
-2.90413e-98
-1.67851e-102
-8.97354e-107
-4.50744e-111
-2.1481e-115
-9.71035e-120
-4.12561e-124
-1.63267e-128
-6.01927e-133
-2.08855e-137
-6.91895e-142
-2.21021e-146
-6.80402e-151
-1.99503e-155
-5.46769e-160
-1.37233e-164
-3.09335e-169
-6.14478e-174
-1.06108e-178
-1.58494e-183
-2.04723e-188
-2.28352e-193
-2.19934e-198
-1.83386e-203
-1.3234e-208
-8.23569e-214
-4.3958e-219
-2.00363e-224
-7.76674e-230
-2.54745e-235
-7.02651e-241
-1.6226e-246
-3.13648e-252
-5.08798e-258
-6.96086e-264
-8.03678e-270
-7.7819e-276
-6.235e-282
-4.0646e-288
-2.11305e-294
-8.56937e-301
-2.65578e-307
-6.14857e-314
-1.0326e-320
0
0
0
0
-2.0492e-55
-8.2837e-56
-3.17993e-58
-2.48256e-61
-1.21288e-64
-4.86517e-68
-1.67876e-71
-4.91681e-75
-1.1935e-78
-2.33671e-82
-3.59519e-86
-4.28858e-90
-3.97158e-94
-3.14173e-98
-2.27016e-102
-1.50938e-106
-9.31013e-111
-5.34326e-115
-2.83506e-119
-1.37235e-123
-5.99896e-128
-2.36586e-132
-8.49535e-137
-2.81797e-141
-8.74193e-146
-2.54708e-150
-6.9252e-155
-1.73333e-159
-3.92932e-164
-7.91923e-169
-1.39537e-173
-2.13272e-178
-2.82724e-183
-3.24746e-188
-3.22755e-193
-2.77771e-198
-2.07009e-203
-1.33087e-208
-7.33164e-214
-3.44404e-219
-1.37471e-224
-4.64086e-230
-1.31538e-235
-3.10816e-241
-6.11432e-247
-1.00371e-252
-1.37911e-258
-1.58603e-264
-1.51702e-270
-1.19319e-276
-7.60312e-283
-3.85755e-289
-1.52538e-295
-4.60182e-302
-1.03503e-308
-1.68665e-315
-1.87745e-322
0
0
0
-4.15584e-53
-3.02272e-53
-1.75383e-55
-1.79748e-58
-1.23827e-61
-7.33856e-65
-3.73129e-68
-1.57669e-71
-5.39361e-75
-1.45658e-78
-3.03264e-82
-4.81302e-86
-5.86499e-90
-6.29195e-94
-6.15155e-98
-5.44471e-102
-4.35203e-106
-3.14609e-110
-2.05642e-114
-1.20842e-118
-6.322e-123
-2.92226e-127
-1.19219e-131
-4.31805e-136
-1.40398e-140
-4.14302e-145
-1.11527e-149
-2.73398e-154
-6.06443e-159
-1.20402e-163
-2.10903e-168
-3.2275e-173
-4.30538e-178
-5.002e-183
-5.04625e-188
-4.41266e-193
-3.34388e-198
-2.18893e-203
-1.22981e-208
-5.89408e-214
-2.40052e-219
-8.27457e-225
-2.39252e-230
-5.74634e-236
-1.142e-241
-1.88173e-247
-2.57847e-253
-2.93274e-259
-2.75101e-265
-2.10647e-271
-1.30021e-277
-6.37316e-284
-2.43368e-290
-7.08237e-297
-1.53444e-303
-2.4037e-310
-2.61793e-317
-0
0
0
-6.26663e-51
-8.89421e-51
-8.17408e-53
-1.25054e-55
-1.3517e-58
-1.21146e-61
-8.83628e-65
-5.16183e-68
-2.38336e-71
-8.56675e-75
-2.35416e-78
-4.89989e-82
-7.89224e-86
-1.12985e-89
-1.47242e-93
-1.72994e-97
-1.80938e-101
-1.67032e-105
-1.35697e-109
-9.69657e-114
-6.07445e-118
-3.31515e-122
-1.56697e-126
-6.40247e-131
-2.26996e-135
-7.04688e-140
-1.93288e-144
-4.71257e-149
-1.02431e-153
-1.98378e-158
-3.40066e-163
-5.12172e-168
-6.75595e-173
-7.80445e-178
-7.87677e-183
-6.91726e-188
-5.27414e-193
-3.48296e-198
-1.97953e-203
-9.61787e-209
-3.97138e-214
-1.38692e-219
-4.05859e-225
-9.83709e-231
-1.96105e-236
-3.2184e-242
-4.35589e-248
-4.85247e-254
-4.41896e-260
-3.26204e-266
-1.9301e-272
-9.0457e-279
-3.30013e-285
-9.18553e-292
-1.90222e-298
-2.84634e-305
-2.95639e-312
-2.01608e-319
0
0
-7.91632e-49
-2.07161e-48
-3.0695e-50
-7.77423e-53
-1.36423e-55
-1.79907e-58
-1.80505e-61
-1.39759e-64
-8.394e-68
-3.9021e-71
-1.38989e-74
-3.7629e-78
-8.02657e-82
-1.52316e-85
-2.59081e-89
-3.93732e-93
-5.29507e-97
-6.21929e-101
-6.31309e-105
-5.51469e-109
-4.14202e-113
-2.66957e-117
-1.47048e-121
-6.89411e-126
-2.74552e-130
-9.31942e-135
-2.7147e-139
-6.83583e-144
-1.49829e-148
-2.87561e-153
-4.84414e-158
-7.15452e-163
-9.26087e-168
-1.05274e-172
-1.05179e-177
-9.20071e-183
-7.01882e-188
-4.65358e-193
-2.66461e-198
-1.30588e-203
-5.43792e-209
-1.91141e-214
-5.61943e-220
-1.36436e-225
-2.70911e-231
-4.39148e-237
-5.81792e-243
-6.28073e-249
-5.49177e-255
-3.86089e-261
-2.16461e-267
-9.58819e-274
-3.30769e-280
-8.71641e-287
-1.71076e-293
-2.42327e-300
-2.38348e-307
-1.53997e-314
-5.82997e-322
0
-1.08822e-46
-3.65392e-46
-8.68112e-48
-3.85309e-50
-1.06401e-52
-1.9935e-55
-2.67274e-58
-2.66469e-61
-2.02078e-64
-1.18162e-67
-5.33744e-71
-1.85781e-74
-5.28857e-78
-1.32396e-81
-2.90621e-85
-5.58103e-89
-9.35574e-93
-1.36168e-96
-1.70305e-100
-1.81322e-104
-1.63605e-108
-1.24875e-112
-8.05253e-117
-4.37555e-121
-1.99567e-125
-7.6248e-130
-2.44331e-134
-6.59112e-139
-1.50689e-143
-2.9453e-148
-4.96669e-153
-7.27712e-158
-9.3073e-163
-1.04484e-167
-1.03493e-172
-9.03487e-178
-6.91065e-183
-4.60454e-188
-2.65349e-193
-1.30974e-198
-5.4845e-204
-1.93241e-209
-5.67557e-215
-1.37208e-220
-2.69707e-226
-4.28752e-232
-5.50198e-238
-5.68372e-244
-4.70332e-250
-3.1036e-256
-1.62551e-262
-6.71449e-269
-2.16398e-275
-5.3413e-282
-9.84016e-289
-1.31102e-295
-1.21314e-302
-7.36465e-310
-2.67883e-317
-0
-1.01928e-43
-4.59709e-44
-1.66187e-45
-1.2807e-47
-5.28789e-50
-1.37957e-52
-2.4526e-55
-3.12784e-58
-2.9593e-61
-2.13103e-64
-1.18807e-67
-5.18863e-71
-1.94113e-74
-6.31944e-78
-1.77564e-81
-4.28004e-85
-8.83265e-89
-1.56125e-92
-2.35868e-96
-3.0282e-100
-3.2799e-104
-2.98099e-108
-2.26552e-112
-1.43672e-116
-7.58155e-121
-3.31247e-125
-1.19257e-129
-3.53133e-134
-8.63284e-139
-1.7585e-143
-3.02936e-148
-4.48257e-153
-5.76054e-158
-6.48879e-163
-6.45507e-168
-5.67846e-173
-4.39007e-178
-2.95635e-183
-1.71977e-188
-8.55028e-194
-3.59463e-199
-1.26498e-204
-3.6932e-210
-8.84892e-216
-1.71563e-221
-2.66029e-227
-3.27231e-233
-3.18206e-239
-2.44454e-245
-1.48493e-251
-7.14261e-258
-2.70973e-264
-8.04049e-271
-1.83579e-277
-3.14081e-284
-3.89729e-291
-3.36285e-298
-1.90633e-305
-6.46332e-313
-1.11659e-320
-5.34834e-40
-4.87076e-42
-1.97686e-43
-2.40758e-45
-1.42798e-47
-5.1303e-50
-1.21604e-52
-2.00673e-55
-2.39024e-58
-2.1143e-61
-1.42068e-64
-7.57688e-68
-3.4746e-71
-1.38001e-74
-4.74097e-78
-1.39581e-81
-3.48687e-85
-7.3554e-89
-1.31221e-92
-1.98472e-96
-2.53826e-100
-2.72327e-104
-2.42879e-108
-1.79271e-112
-1.09191e-116
-5.45537e-121
-2.21413e-125
-7.24023e-130
-1.90573e-134
-4.08236e-139
-7.27145e-144
-1.10148e-148
-1.44631e-153
-1.66867e-158
-1.70473e-163
-1.5412e-168
-1.22325e-173
-8.42916e-179
-4.98828e-184
-2.50893e-189
-1.0588e-194
-3.71451e-200
-1.07624e-205
-2.55857e-211
-4.91159e-217
-7.43377e-223
-8.69625e-229
-7.81686e-235
-5.44863e-241
-2.98216e-247
-1.29556e-253
-4.46653e-260
-1.21113e-266
-2.53688e-273
-4.00242e-280
-4.60329e-287
-3.69156e-294
-1.94585e-301
-6.12191e-309
-9.84606e-317
1
1
1
1
1
1
1
1
1
1
1
1
1
1
1
1
1
1
1
1
1
1
1
1
1
1
1
1
1
1
1
1
1
1
1
1
1
1
1
1
1
1
1
1
1
1
1
1
1
1
1
1
1
1
1
1
1
1
1
1
0.899139
1
1
1
1
1
1
1
1
1
1
1
1
1
1
1
1
1
1
1
5.19395e-19
0.226032
0.884795
1
1
1
1
1
1
1
1
1
1
1
1
1
1
1
1
1
-1.2075e-20
-1.33954e-37
-2.05773e-19
0.174241
0.791333
1
1
1
1
1
1
1
1
1
1
1
1
1
1
1
-8.32089e-21
-3.33576e-21
-4.33755e-21
-6.08733e-37
-3.34648e-21
0.0159478
0.267292
0.75532
1
1
1
1
1
1
1
1
1
1
1
1
-2.3404e-21
-1.26113e-21
-3.04522e-21
-4.74323e-21
-5.6773e-21
-5.83393e-21
1.46387e-36
-1.03784e-19
0.000908154
0.103444
0.249714
0.340255
0.523936
0.682674
0.730445
0.71684
0.634829
0.442799
0.20192
0.0201457
-5.28056e-22
-3.56955e-22
-1.39985e-21
-2.73439e-21
-3.83623e-21
-4.34472e-21
-4.43322e-21
-6.50349e-21
-5.57855e-21
-1.37174e-20
3.16348e-37
-9.88035e-22
3.07685e-21
-3.22678e-22
-4.40563e-22
-2.70305e-20
-1.38323e-21
2.41465e-22
-3.17666e-21
-5.01049e-21
-1.0593e-22
-8.66568e-23
-4.93103e-22
-1.21028e-21
-1.93652e-21
-2.63436e-21
-3.2233e-21
-4.44484e-21
-4.44912e-21
-4.29455e-21
-7.23798e-21
-4.81633e-21
-5.65909e-21
-8.10804e-21
-5.95929e-21
-5.82036e-21
-6.23273e-21
-5.52407e-21
-5.98916e-21
-6.78399e-21
-1.8903e-23
-1.97415e-23
-1.46058e-22
-4.3447e-22
-8.43419e-22
-1.30818e-21
-1.71718e-21
-2.36724e-21
-2.81354e-21
-2.7935e-21
-3.84087e-21
-3.69732e-21
-3.63513e-21
-4.21052e-21
-4.72194e-21
-4.77847e-21
-4.48446e-21
-4.35325e-21
-4.84517e-21
-5.09859e-21
-3.23613e-24
-4.60616e-24
-3.86946e-23
-1.36282e-22
-3.14087e-22
-5.45156e-22
-7.62685e-22
-1.08361e-21
-1.39246e-21
-1.55462e-21
-1.96196e-21
-2.06336e-21
-2.06522e-21
-2.40061e-21
-2.80009e-21
-2.83605e-21
-2.66631e-21
-2.74416e-21
-3.06835e-21
-3.11955e-21
-6.04053e-25
-1.13553e-24
-9.69285e-24
-3.90611e-23
-1.02239e-22
-1.97589e-22
-2.89733e-22
-4.28157e-22
-5.86261e-22
-7.34841e-22
-9.28089e-22
-1.02089e-21
-1.06831e-21
-1.24588e-21
-1.43711e-21
-1.46959e-21
-1.43924e-21
-1.51575e-21
-1.6713e-21
-1.64805e-21
-1.29605e-25
-2.8518e-25
-2.37443e-24
-1.04038e-23
-2.97249e-23
-6.34089e-23
-9.5771e-23
-1.49111e-22
-2.20679e-22
-3.09107e-22
-3.99327e-22
-4.52708e-22
-4.9585e-22
-5.85394e-22
-6.70401e-22
-6.99699e-22