/*--------------------------------*- C++ -*----------------------------------*\
| =========                 |                                                 |
| \\      /  F ield         | OpenFOAM: The Open Source CFD Toolbox           |
|  \\    /   O peration     | Version:  v1912                                 |
|   \\  /    A nd           | Website:  www.openfoam.com                      |
|    \\/     M anipulation  |                                                 |
\*---------------------------------------------------------------------------*/
FoamFile
{
    version     2.0;
    format      ascii;
    class       volScalarField;
    location    "4";
    object      epsilon;
}
// * * * * * * * * * * * * * * * * * * * * * * * * * * * * * * * * * * * * * //

dimensions      [0 2 -3 0 0 0 0];


internalField   nonuniform List<scalar> 
20320
(
4.4424e-05
0.000217422
0.000225835
0.000237902
0.000372055
0.00284467
0.0221827
0.0858939
0.200516
0.333792
0.436332
0.469699
0.417834
0.293977
0.146864
0.0418598
0.00462046
0.000324828
0.000190257
0.000172923
4.69572e-05
5.55485e-05
0.000793434
0.0125034
0.0572857
0.133778
0.224163
0.313551
0.392197
0.45271
0.488535
0.494916
0.470417
0.418168
0.345262
0.259808
0.169237
0.0827371
0.018564
0.000798533
0.000665574
0.00571385
0.0514343
0.157244
0.300205
0.453107
0.596378
0.717608
0.8099
0.870412
0.899079
0.897446
0.867639
0.811804
0.73213
0.631328
0.513419
0.384548
0.254471
0.153913
0.0111635
0.0610131
0.210263
0.415118
0.63602
0.846489
1.03039
1.17879
1.28783
1.35718
1.38878
1.38573
1.35136
1.28872
1.20086
1.09159
0.967262
0.84076
0.747886
0.910055
0.0531294
0.187559
0.443784
0.733717
1.0188
1.27674
1.49519
1.6683
1.79453
1.87521
1.91348
1.91339
1.87937
1.81607
1.72882
1.62499
1.51701
1.43072
1.44027
2.00401
0.142653
0.374981
0.729839
1.09317
1.43242
1.73038
1.97852
2.17372
2.31637
2.40917
2.45626
2.4627
2.43412
2.37692
2.29896
2.2113
2.1324
2.10032
2.22512
3.19427
0.289487
0.617058
1.06087
1.48744
1.87214
2.20329
2.47613
2.69012
2.8474
2.9519
3.00874
3.02391
3.0042
2.95753
2.89384
2.82721
2.78111
2.80422
3.04015
4.40082
0.502739
0.914608
1.43714
1.91711
2.33873
2.69601
2.98796
3.21652
3.3855
3.49998
3.56597
3.59029
3.58065
3.54612
3.49821
3.45337
3.43925
3.51426
3.85445
5.59418
0.79281
1.27324
1.8635
2.38674
2.83637
3.21211
3.5167
3.75452
3.931
4.05229
4.1252
4.15722
4.15675
4.1337
4.10074
4.0762
4.09147
4.21433
4.65272
6.76212
1.17178
1.70189
2.34816
2.90398
3.37196
3.75755
4.06719
4.30767
4.48599
4.60936
4.6853
4.72185
4.72791
4.71399
4.69365
4.68683
4.72843
4.89534
5.4272
7.89915
1.65364
2.21268
2.90276
3.47978
3.95548
4.34104
4.64662
4.88149
5.05428
5.17327
5.24667
5.28297
5.29145
5.28304
5.27202
5.27977
5.34455
5.55221
6.17383
9.00247
2.25567
2.82163
3.5433
4.12936
4.60072
4.97447
5.26477
5.4836
5.64139
5.74755
5.811
5.84065
5.84608
5.8385
5.83278
5.8516
5.93642
6.18193
6.89021
10.07
3.00178
3.55104
4.29237
4.87407
5.32671
5.67404
5.93481
6.1242
6.25475
6.33722
6.38126
6.39619
6.39174
6.37934
6.37426
6.40035
6.50211
6.7828
7.57497
11.1003
3.92819
4.43356
5.18254
5.74392
6.15955
6.46127
6.6737
6.81609
6.9036
6.94855
6.96139
6.95168
6.92919
6.90535
6.89568
6.925
7.04062
7.35401
8.22747
12.0923
5.09311
5.5185
6.26123
6.78104
7.13431
7.36387
7.50235
7.57438
7.59845
7.58856
7.55579
7.50968
7.4597
7.41696
7.397
7.42538
7.55194
7.89591
8.84845
13.0478
6.59119
6.88215
7.59863
8.04486
8.29799
8.41692
8.44567
8.41609
8.35052
8.26448
8.16907
8.07313
7.98518
7.91555
7.87942
7.90287
8.03804
8.41149
9.44235
13.9766
8.57653
8.64261
9.29819
9.61813
9.71179
9.66267
9.53121
9.35833
9.17014
8.98251
8.80515
8.64484
8.50809
8.40365
8.34596
8.3615
8.50481
8.90971
10.023
14.9088
11.2991
10.9833
11.5122
11.6146
11.4528
11.149
10.7863
10.4156
10.0645
9.74622
9.46624
9.22696
9.03123
8.88527
8.80238
8.80986
8.96591
9.41369
10.6307
15.9371
15.1705
14.1909
14.4644
14.187
13.613
12.9245
12.233
11.5955
11.0347
10.5545
10.1514
9.81986
9.55693
9.36518
9.25681
9.26156
9.4461
9.97459
11.3828
17.3943
20.8804
18.7207
18.4822
17.533
16.2919
15.0292
13.8806
12.8944
12.073
11.4001
10.8552
10.4207
10.0851
9.84623
9.71568
9.72858
9.97013
10.6603
12.5363
20.6941
0.000264022
0.000360269
0.000362822
0.000365346
0.000367531
0.000369377
0.000370871
0.000371995
0.00037282
0.000373376
0.00037364
0.000373694
0.000373634
0.00037337
0.000372943
0.000372364
0.000371684
0.000370921
0.000370102
0.000369272
0.000368471
0.000367683
0.0003669
0.000366106
0.000365293
0.000364476
0.000363652
0.000362873
0.000362105
0.000361352
0.000360635
0.000359935
0.000359299
0.000358726
0.000358192
0.000357706
0.000357242
0.000356791
0.000356348
0.000355893
0.000355428
0.000354982
0.000354535
0.000354064
0.000353588
0.000353139
0.000352716
0.00035229
0.000351852
0.000351408
0.000350974
0.00035056
0.000350161
0.000349772
0.000349395
0.000349023
0.000348651
0.000348277
0.000347898
0.000347527
0.000271724
7.03758e-05
6.73467e-05
6.73732e-05
6.7427e-05
6.74932e-05
6.75704e-05
6.76532e-05
6.77359e-05
6.78152e-05
6.78931e-05
6.79786e-05
6.80969e-05
6.82127e-05
6.83223e-05
6.8441e-05
6.85363e-05
6.86095e-05
6.86481e-05
6.86455e-05
6.86096e-05
6.85818e-05
6.85677e-05
6.85772e-05
6.85909e-05
6.85904e-05
6.85638e-05
6.85008e-05
6.84565e-05
6.84225e-05
6.83918e-05
6.83609e-05
6.82994e-05
6.82369e-05
6.81898e-05
6.81502e-05
6.81229e-05
6.80955e-05
6.80738e-05
6.80713e-05
6.80666e-05
6.80432e-05
6.80258e-05
6.80258e-05
6.802e-05
6.79932e-05
6.79634e-05
6.79474e-05
6.79418e-05
6.79341e-05
6.79163e-05
6.78917e-05
6.7868e-05
6.78471e-05
6.78284e-05
6.78127e-05
6.78008e-05
6.77937e-05
6.77963e-05
6.78357e-05
0.000272412
5.21126e-05
4.4036e-05
4.37334e-05
4.36331e-05
4.35598e-05
4.35073e-05
4.34717e-05
4.34497e-05
4.34383e-05
4.34357e-05
4.34416e-05
4.34614e-05
4.34867e-05
4.35128e-05
4.35421e-05
4.3567e-05
4.35861e-05
4.35978e-05
4.36011e-05
4.3598e-05
4.35967e-05
4.35994e-05
4.36056e-05
4.36113e-05
4.36115e-05
4.36048e-05
4.35911e-05
4.35792e-05
4.35716e-05
4.35679e-05
4.35649e-05
4.35563e-05
4.35462e-05
4.35387e-05
4.35333e-05
4.35294e-05
4.35247e-05
4.35213e-05
4.35223e-05
4.35236e-05
4.35206e-05
4.35175e-05
4.35182e-05
4.35196e-05
4.35171e-05
4.35125e-05
4.35097e-05
4.35096e-05
4.35096e-05
4.35076e-05
4.35041e-05
4.35005e-05
4.34976e-05
4.3495e-05
4.34929e-05
4.34915e-05
4.34916e-05
4.34935e-05
4.35003e-05
0.00027303
5.08656e-05
4.15763e-05
4.11492e-05
4.10308e-05
4.09407e-05
4.08714e-05
4.08187e-05
4.07807e-05
4.07546e-05
4.07388e-05
4.0732e-05
4.07328e-05
4.07379e-05
4.07442e-05
4.07506e-05
4.07554e-05
4.07585e-05
4.0761e-05
4.07642e-05
4.07686e-05
4.07733e-05
4.07758e-05
4.07739e-05
4.07688e-05
4.07634e-05
4.07603e-05
4.07596e-05
4.07588e-05
4.07564e-05
4.07533e-05
4.07514e-05
4.07515e-05
4.07525e-05
4.07526e-05
4.07517e-05
4.07505e-05
4.07498e-05
4.07495e-05
4.07488e-05
4.07479e-05
4.07474e-05
4.07474e-05
4.07475e-05
4.07474e-05
4.0747e-05
4.07465e-05
4.07461e-05
4.07459e-05
4.07458e-05
4.07455e-05
4.07451e-05
4.07444e-05
4.07438e-05
4.07432e-05
4.07426e-05
4.07424e-05
4.07425e-05
4.0743e-05
4.0744e-05
0.000273652
5.05763e-05
4.13565e-05
4.09293e-05
4.08188e-05
4.07343e-05
4.06696e-05
4.06214e-05
4.05874e-05
4.05641e-05
4.05503e-05
4.0544e-05
4.05428e-05
4.05442e-05
4.05467e-05
4.05491e-05
4.05513e-05
4.05537e-05
4.05571e-05
4.05617e-05
4.05663e-05
4.05682e-05
4.05662e-05
4.05613e-05
4.05558e-05
4.05518e-05
4.05502e-05
4.05512e-05
4.05526e-05
4.05525e-05
4.05504e-05
4.05481e-05
4.05481e-05
4.055e-05
4.05517e-05
4.05522e-05
4.05518e-05
4.05521e-05
4.05522e-05
4.05507e-05
4.05488e-05
4.05489e-05
4.055e-05
4.05499e-05
4.05488e-05
4.05483e-05
4.05487e-05
4.05491e-05
4.05487e-05
4.05482e-05
4.05481e-05
4.05482e-05
4.05481e-05
4.05476e-05
4.05472e-05
4.0547e-05
4.05469e-05
4.05469e-05
4.05469e-05
4.05474e-05
0.000274149
5.0281e-05
4.12988e-05
4.08935e-05
4.079e-05
4.07114e-05
4.06516e-05
4.06082e-05
4.05783e-05
4.05577e-05
4.05452e-05
4.05388e-05
4.05367e-05
4.05372e-05
4.05393e-05
4.05421e-05
4.05453e-05
4.05492e-05
4.05533e-05
4.05558e-05
4.05555e-05
4.0552e-05
4.05475e-05
4.05443e-05
4.05431e-05
4.05427e-05
4.05416e-05
4.05405e-05
4.05403e-05
4.05414e-05
4.05421e-05
4.05415e-05
4.05405e-05
4.05404e-05
4.05416e-05
4.05436e-05
4.05447e-05
4.05448e-05
4.05443e-05
4.05428e-05
4.05415e-05
4.05417e-05
4.05425e-05
4.05421e-05
4.05408e-05
4.05404e-05
4.05412e-05
4.05418e-05
4.05414e-05
4.05406e-05
4.05404e-05
4.05406e-05
4.05405e-05
4.05401e-05
4.05398e-05
4.05397e-05
4.05398e-05
4.05396e-05
4.05396e-05
4.05399e-05
0.000274572
5.01034e-05
4.12651e-05
4.088e-05
4.07836e-05
4.07102e-05
4.06538e-05
4.06122e-05
4.05826e-05
4.05616e-05
4.0548e-05
4.05402e-05
4.05367e-05
4.05367e-05
4.05393e-05
4.05434e-05
4.05478e-05
4.05515e-05
4.05534e-05
4.05524e-05
4.05488e-05
4.05444e-05
4.0541e-05
4.05396e-05
4.05403e-05
4.05413e-05
4.05408e-05
4.05389e-05
4.05376e-05
4.05384e-05
4.05407e-05
4.05423e-05
4.05418e-05
4.05402e-05
4.05403e-05
4.05424e-05
4.05443e-05
4.05442e-05
4.05434e-05
4.05428e-05
4.05427e-05
4.05427e-05
4.05423e-05
4.05415e-05
4.05408e-05
4.05409e-05
4.05414e-05
4.05417e-05
4.05414e-05
4.05409e-05
4.05405e-05
4.05405e-05
4.05404e-05
4.05401e-05
4.054e-05
4.05401e-05
4.05401e-05
4.05399e-05
4.05396e-05
4.054e-05
0.000275012
4.99695e-05
4.12192e-05
4.0853e-05
4.07665e-05
4.06999e-05
4.06476e-05
4.06083e-05
4.05794e-05
4.05589e-05
4.05462e-05
4.05391e-05
4.05363e-05
4.05368e-05
4.05397e-05
4.05435e-05
4.05467e-05
4.05483e-05
4.05482e-05
4.05468e-05
4.0545e-05
4.05428e-05
4.05408e-05
4.05392e-05
4.05382e-05
4.05378e-05
4.0538e-05
4.05381e-05
4.05378e-05
4.05378e-05
4.05388e-05
4.05408e-05
4.05423e-05
4.05421e-05
4.05415e-05
4.05416e-05
4.05422e-05
4.05427e-05
4.0543e-05
4.05435e-05
4.05439e-05
4.05433e-05
4.05421e-05
4.05413e-05
4.05413e-05
4.05417e-05
4.05418e-05
4.05417e-05
4.05416e-05
4.05414e-05
4.0541e-05
4.05405e-05
4.05403e-05
4.05403e-05
4.05405e-05
4.05406e-05
4.05405e-05
4.05402e-05
4.054e-05
4.05403e-05
0.000275461
4.97604e-05
4.11674e-05
4.08199e-05
4.07415e-05
4.06805e-05
4.0632e-05
4.05959e-05
4.05701e-05
4.0553e-05
4.05433e-05
4.05385e-05
4.0537e-05
4.05374e-05
4.0539e-05
4.05411e-05
4.05429e-05
4.05438e-05
4.05436e-05
4.05431e-05
4.05431e-05
4.0543e-05
4.05419e-05
4.05396e-05
4.0537e-05
4.05353e-05
4.05355e-05
4.0537e-05
4.05382e-05
4.05382e-05
4.05379e-05
4.05392e-05
4.05417e-05
4.05438e-05
4.05435e-05
4.05413e-05
4.05401e-05
4.05411e-05
4.0543e-05
4.05442e-05
4.05443e-05
4.05433e-05
4.05422e-05
4.05418e-05
4.05421e-05
4.05422e-05
4.0542e-05
4.05418e-05
4.05419e-05
4.05418e-05
4.05413e-05
4.05406e-05
4.05404e-05
4.05406e-05
4.05409e-05
4.05411e-05
4.05409e-05
4.05405e-05
4.05403e-05
4.05407e-05
0.000275824
4.9532e-05
4.11423e-05
4.081e-05
4.07353e-05
4.06772e-05
4.0631e-05
4.05966e-05
4.05719e-05
4.0556e-05
4.05468e-05
4.05419e-05
4.05396e-05
4.05388e-05
4.05388e-05
4.05392e-05
4.05399e-05
4.05409e-05
4.05414e-05
4.05416e-05
4.05416e-05
4.05413e-05
4.05404e-05
4.05389e-05
4.05371e-05
4.05356e-05
4.05352e-05
4.05359e-05
4.05371e-05
4.05381e-05
4.05386e-05
4.05395e-05
4.05414e-05
4.05433e-05
4.05435e-05
4.05414e-05
4.05399e-05
4.05407e-05
4.05426e-05
4.05437e-05
4.05436e-05
4.05431e-05
4.05429e-05
4.05429e-05
4.05428e-05
4.05424e-05
4.05421e-05
4.05422e-05
4.05423e-05
4.0542e-05
4.05414e-05
4.05408e-05
4.05407e-05
4.05409e-05
4.05413e-05
4.05413e-05
4.05411e-05
4.05408e-05
4.05407e-05
4.05411e-05
0.000276154
4.94139e-05
4.11397e-05
4.08179e-05
4.0746e-05
4.06907e-05
4.06466e-05
4.06127e-05
4.05871e-05
4.05693e-05
4.05574e-05
4.05496e-05
4.05448e-05
4.05418e-05
4.05401e-05
4.05389e-05
4.05384e-05
4.05386e-05
4.05392e-05
4.05396e-05
4.05396e-05
4.05387e-05
4.05378e-05
4.05373e-05
4.05373e-05
4.0537e-05
4.05363e-05
4.05357e-05
4.05362e-05
4.05379e-05
4.05399e-05
4.05411e-05
4.05411e-05
4.05411e-05
4.05418e-05
4.0542e-05
4.05416e-05
4.05416e-05
4.05417e-05
4.05419e-05
4.05426e-05
4.05434e-05
4.05439e-05
4.05438e-05
4.05433e-05
4.05427e-05
4.05424e-05
4.05426e-05
4.05425e-05
4.0542e-05
4.05415e-05
4.05411e-05
4.05411e-05
4.05413e-05
4.05415e-05
4.05415e-05
4.05413e-05
4.05411e-05
4.0541e-05
4.05415e-05
0.000276484
4.93858e-05
4.11292e-05
4.08162e-05
4.07494e-05
4.06981e-05
4.06568e-05
4.06243e-05
4.05992e-05
4.05806e-05
4.05671e-05
4.05574e-05
4.05506e-05
4.0546e-05
4.05429e-05
4.05404e-05
4.05385e-05
4.05374e-05
4.05368e-05
4.05367e-05
4.05367e-05
4.05365e-05
4.05361e-05
4.05361e-05
4.05367e-05
4.0537e-05
4.05371e-05
4.0537e-05
4.05375e-05
4.0539e-05
4.05406e-05
4.05412e-05
4.05404e-05
4.05396e-05
4.05406e-05
4.05425e-05
4.05433e-05
4.05424e-05
4.05408e-05
4.05405e-05
4.0542e-05
4.0544e-05
4.05445e-05
4.05441e-05
4.05437e-05
4.05433e-05
4.0543e-05
4.05428e-05
4.05425e-05
4.0542e-05
4.05417e-05
4.05416e-05
4.05416e-05
4.05417e-05
4.05416e-05
4.05416e-05
4.05415e-05
4.05413e-05
4.05413e-05
4.05419e-05
0.000276936
4.93242e-05
4.11021e-05
4.08002e-05
4.07407e-05
4.06945e-05
4.06567e-05
4.06264e-05
4.06032e-05
4.05858e-05
4.05729e-05
4.05634e-05
4.05561e-05
4.05508e-05
4.05469e-05
4.05432e-05
4.05401e-05
4.05375e-05
4.05355e-05
4.05344e-05
4.05342e-05
4.05344e-05
4.05347e-05
4.05352e-05
4.05359e-05
4.05366e-05
4.05376e-05
4.05388e-05
4.05401e-05
4.05407e-05
4.05403e-05
4.05397e-05
4.05396e-05
4.05399e-05
4.0541e-05
4.05425e-05
4.05431e-05
4.05422e-05
4.05409e-05
4.05406e-05
4.0542e-05
4.05439e-05
4.05444e-05
4.05441e-05
4.0544e-05
4.05441e-05
4.05436e-05
4.05428e-05
4.05423e-05
4.05421e-05
4.05421e-05
4.05421e-05
4.0542e-05
4.0542e-05
4.05418e-05
4.05417e-05
4.05416e-05
4.05415e-05
4.05416e-05
4.05422e-05
0.000277333
4.91792e-05
4.1066e-05
4.07795e-05
4.07289e-05
4.069e-05
4.06576e-05
4.0631e-05
4.06099e-05
4.05933e-05
4.05803e-05
4.057e-05
4.05615e-05
4.05547e-05
4.05494e-05
4.05449e-05
4.05411e-05
4.0538e-05
4.05354e-05
4.05338e-05
4.05332e-05
4.05333e-05
4.05336e-05
4.05343e-05
4.05354e-05
4.05369e-05
4.05387e-05
4.05403e-05
4.05411e-05
4.05407e-05
4.05398e-05
4.05392e-05
4.05399e-05
4.05412e-05
4.05417e-05
4.05417e-05
4.05415e-05
4.05416e-05
4.05419e-05
4.0542e-05
4.05423e-05
4.05431e-05
4.05438e-05
4.0544e-05
4.05445e-05
4.05447e-05
4.05439e-05
4.05428e-05
4.05421e-05
4.05423e-05
4.05426e-05
4.05426e-05
4.05424e-05
4.05422e-05
4.0542e-05
4.05418e-05
4.05418e-05
4.05417e-05
4.05418e-05
4.05425e-05
0.000277641
4.89352e-05
4.1022e-05
4.0759e-05
4.07185e-05
4.06869e-05
4.06594e-05
4.06358e-05
4.06161e-05
4.05994e-05
4.05857e-05
4.05745e-05
4.05648e-05
4.05571e-05
4.05506e-05
4.05453e-05
4.05415e-05
4.05387e-05
4.05367e-05
4.05356e-05
4.05349e-05
4.05343e-05
4.05339e-05
4.05342e-05
4.05356e-05
4.05377e-05
4.05395e-05
4.05402e-05
4.05399e-05
4.05396e-05
4.05401e-05
4.05407e-05
4.05415e-05
4.0542e-05
4.05413e-05
4.05405e-05
4.05406e-05
4.05416e-05
4.0543e-05
4.05434e-05
4.05426e-05
4.05424e-05
4.05431e-05
4.05441e-05
4.05447e-05
4.05447e-05
4.0544e-05
4.05429e-05
4.05424e-05
4.05426e-05
4.05429e-05
4.05429e-05
4.05426e-05
4.05424e-05
4.05422e-05
4.05421e-05
4.05419e-05
4.05418e-05
4.05419e-05
4.05428e-05
0.000277823
4.85885e-05
4.09886e-05
4.07553e-05
4.0722e-05
4.06931e-05
4.06655e-05
4.06407e-05
4.06194e-05
4.06013e-05
4.05869e-05
4.05756e-05
4.05667e-05
4.056e-05
4.05542e-05
4.05495e-05
4.05459e-05
4.05436e-05
4.05417e-05
4.054e-05
4.05381e-05
4.05363e-05
4.05354e-05
4.05356e-05
4.05366e-05
4.05376e-05
4.05384e-05
4.05387e-05
4.05389e-05
4.05395e-05
4.05412e-05
4.05425e-05
4.05425e-05
4.05415e-05
4.05403e-05
4.05401e-05
4.05412e-05
4.05425e-05
4.05436e-05
4.05438e-05
4.0543e-05
4.05424e-05
4.05431e-05
4.0544e-05
4.05444e-05
4.05442e-05
4.05439e-05
4.05433e-05
4.05429e-05
4.05429e-05
4.05431e-05
4.05432e-05
4.05429e-05
4.05426e-05
4.05424e-05
4.05422e-05
4.05421e-05
4.05419e-05
4.05421e-05
4.0543e-05
0.000277835
4.82655e-05
4.10019e-05
4.07941e-05
4.076e-05
4.07263e-05
4.06932e-05
4.06635e-05
4.06379e-05
4.06166e-05
4.05995e-05
4.05862e-05
4.05763e-05
4.05693e-05
4.0564e-05
4.05595e-05
4.05554e-05
4.05515e-05
4.05473e-05
4.05434e-05
4.05402e-05
4.0538e-05
4.05371e-05
4.05373e-05
4.05374e-05
4.05371e-05
4.05371e-05
4.05377e-05
4.05391e-05
4.05407e-05
4.0542e-05
4.05424e-05
4.05418e-05
4.0541e-05
4.05406e-05
4.05411e-05
4.05426e-05
4.05434e-05
4.05433e-05
4.05434e-05
4.05434e-05
4.05432e-05
4.05433e-05
4.05437e-05
4.05436e-05
4.05436e-05
4.05439e-05
4.05439e-05
4.05435e-05
4.05432e-05
4.05432e-05
4.05433e-05
4.05432e-05
4.05429e-05
4.05426e-05
4.05424e-05
4.05422e-05
4.0542e-05
4.05422e-05
4.05431e-05
0.000277751
4.81508e-05
4.10762e-05
4.088e-05
4.08377e-05
4.0794e-05
4.07518e-05
4.07147e-05
4.0683e-05
4.06561e-05
4.06339e-05
4.06154e-05
4.05999e-05
4.05874e-05
4.0577e-05
4.05681e-05
4.05602e-05
4.05535e-05
4.05482e-05
4.05447e-05
4.05423e-05
4.05404e-05
4.05391e-05
4.05385e-05
4.05382e-05
4.05379e-05
4.05377e-05
4.05384e-05
4.054e-05
4.05412e-05
4.05413e-05
4.05409e-05
4.05407e-05
4.05414e-05
4.05424e-05
4.0543e-05
4.05435e-05
4.05436e-05
4.05431e-05
4.05434e-05
4.05441e-05
4.05441e-05
4.05435e-05
4.05431e-05
4.0543e-05
4.05433e-05
4.0544e-05
4.05443e-05
4.05439e-05
4.05434e-05
4.05433e-05
4.05434e-05
4.05434e-05
4.05432e-05
4.05428e-05
4.05425e-05
4.05423e-05
4.05422e-05
4.05423e-05
4.05432e-05
0.00027778
4.83113e-05
4.11746e-05
4.09779e-05
4.09301e-05
4.08785e-05
4.08267e-05
4.07786e-05
4.0736e-05
4.06988e-05
4.06673e-05
4.06411e-05
4.06186e-05
4.05995e-05
4.05832e-05
4.057e-05
4.05599e-05
4.05526e-05
4.05482e-05
4.0546e-05
4.0545e-05
4.05438e-05
4.05421e-05
4.05405e-05
4.05396e-05
4.05394e-05
4.05397e-05
4.05401e-05
4.05402e-05
4.05401e-05
4.05399e-05
4.05401e-05
4.05409e-05
4.05426e-05
4.05442e-05
4.05444e-05
4.05437e-05
4.05435e-05
4.05436e-05
4.05441e-05
4.05446e-05
4.05442e-05
4.05432e-05
4.05427e-05
4.05429e-05
4.05434e-05
4.05441e-05
4.05444e-05
4.05441e-05
4.05436e-05
4.05435e-05
4.05436e-05
4.05436e-05
4.05434e-05
4.0543e-05
4.05426e-05
4.05424e-05
4.05423e-05
4.05424e-05
4.05433e-05
0.000278024
4.85554e-05
4.12324e-05
4.10305e-05
4.09862e-05
4.09349e-05
4.08785e-05
4.08218e-05
4.07678e-05
4.07188e-05
4.06765e-05
4.06426e-05
4.06162e-05
4.05964e-05
4.05815e-05
4.05705e-05
4.05625e-05
4.05565e-05
4.05524e-05
4.05494e-05
4.05476e-05
4.05461e-05
4.05447e-05
4.05432e-05
4.05418e-05
4.05411e-05
4.05409e-05
4.05405e-05
4.05398e-05
4.05393e-05
4.05395e-05
4.05407e-05
4.05423e-05
4.05437e-05
4.05447e-05
4.05446e-05
4.0544e-05
4.05441e-05
4.05448e-05
4.05451e-05
4.05446e-05
4.05437e-05
4.05428e-05
4.05428e-05
4.05434e-05
4.05438e-05
4.0544e-05
4.05442e-05
4.05441e-05
4.05438e-05
4.05437e-05
4.05438e-05
4.05437e-05
4.05435e-05
4.05431e-05
4.05427e-05
4.05424e-05
4.05424e-05
4.05425e-05
4.05434e-05
0.000278434
4.86631e-05
4.12586e-05
4.10427e-05
4.0998e-05
4.09468e-05
4.08897e-05
4.08317e-05
4.07767e-05
4.07259e-05
4.06813e-05
4.06449e-05
4.06169e-05
4.05968e-05
4.05834e-05
4.05743e-05
4.05679e-05
4.05627e-05
4.05584e-05
4.05539e-05
4.05498e-05
4.05469e-05
4.05455e-05
4.0545e-05
4.05441e-05
4.05427e-05
4.05412e-05
4.05404e-05
4.05401e-05
4.05402e-05
4.05408e-05
4.05421e-05
4.05434e-05
4.05439e-05
4.05441e-05
4.05445e-05
4.05449e-05
4.05455e-05
4.0546e-05
4.05454e-05
4.05442e-05
4.05432e-05
4.05428e-05
4.05432e-05
4.0544e-05
4.05441e-05
4.05438e-05
4.05438e-05
4.0544e-05
4.0544e-05
4.05439e-05
4.05439e-05
4.05437e-05
4.05435e-05
4.05431e-05
4.05427e-05
4.05425e-05
4.05425e-05
4.05426e-05
4.05435e-05
0.000278841
4.87215e-05
4.13256e-05
4.109e-05
4.10304e-05
4.09688e-05
4.09062e-05
4.08461e-05
4.0792e-05
4.07439e-05
4.07022e-05
4.06668e-05
4.06374e-05
4.06135e-05
4.05958e-05
4.05823e-05
4.05722e-05
4.05644e-05
4.05591e-05
4.05552e-05
4.05516e-05
4.05486e-05
4.05466e-05
4.05456e-05
4.05449e-05
4.05439e-05
4.05426e-05
4.05415e-05
4.05413e-05
4.0542e-05
4.05428e-05
4.05433e-05
4.05435e-05
4.05436e-05
4.0544e-05
4.05453e-05
4.05463e-05
4.05466e-05
4.05463e-05
4.05451e-05
4.05439e-05
4.05434e-05
4.05434e-05
4.05438e-05
4.05443e-05
4.05442e-05
4.05438e-05
4.05437e-05
4.05441e-05
4.05442e-05
4.0544e-05
4.05438e-05
4.05437e-05
4.05434e-05
4.0543e-05
4.05428e-05
4.05427e-05
4.05426e-05
4.05427e-05
4.05436e-05
0.000279401
4.89021e-05
4.1424e-05
4.11675e-05
4.1092e-05
4.10188e-05
4.0948e-05
4.08818e-05
4.08229e-05
4.07706e-05
4.07258e-05
4.0688e-05
4.06566e-05
4.06299e-05
4.06084e-05
4.05904e-05
4.05761e-05
4.05655e-05
4.05585e-05
4.05549e-05
4.05529e-05
4.05514e-05
4.05495e-05
4.05475e-05
4.05459e-05
4.05451e-05
4.05446e-05
4.0544e-05
4.05436e-05
4.05438e-05
4.0544e-05
4.05437e-05
4.05436e-05
4.0544e-05
4.05451e-05
4.05466e-05
4.05474e-05
4.05468e-05
4.05458e-05
4.05449e-05
4.05443e-05
4.05443e-05
4.05443e-05
4.05441e-05
4.0544e-05
4.0544e-05
4.05439e-05
4.05439e-05
4.05443e-05
4.05444e-05
4.0544e-05
4.05437e-05
4.05435e-05
4.05433e-05
4.0543e-05
4.05428e-05
4.05428e-05
4.05427e-05
4.05427e-05
4.05436e-05
0.000280105
4.91038e-05
4.14958e-05
4.12176e-05
4.11317e-05
4.10513e-05
4.09742e-05
4.09017e-05
4.08376e-05
4.07805e-05
4.07314e-05
4.06899e-05
4.0656e-05
4.06291e-05
4.06092e-05
4.05941e-05
4.05819e-05
4.05722e-05
4.05645e-05
4.05593e-05
4.05562e-05
4.05548e-05
4.05535e-05
4.05513e-05
4.05487e-05
4.05468e-05
4.05465e-05
4.05467e-05
4.05462e-05
4.05452e-05
4.05445e-05
4.05444e-05
4.05447e-05
4.05456e-05
4.05465e-05
4.05474e-05
4.05474e-05
4.05463e-05
4.05454e-05
4.05452e-05
4.05454e-05
4.05455e-05
4.05451e-05
4.05442e-05
4.05436e-05
4.05437e-05
4.05441e-05
4.05444e-05
4.05445e-05
4.05444e-05
4.05439e-05
4.05435e-05
4.05433e-05
4.05432e-05
4.0543e-05
4.05428e-05
4.05428e-05
4.05427e-05
4.05428e-05
4.05436e-05
0.000280886
4.92597e-05
4.15882e-05
4.1287e-05
4.11834e-05
4.10865e-05
4.0993e-05
4.09065e-05
4.08334e-05
4.07731e-05
4.07249e-05
4.06863e-05
4.06549e-05
4.06299e-05
4.06112e-05
4.05985e-05
4.05896e-05
4.0583e-05
4.05764e-05
4.05701e-05
4.05639e-05
4.0559e-05
4.05559e-05
4.05537e-05
4.05518e-05
4.05498e-05
4.05485e-05
4.05482e-05
4.05479e-05
4.05469e-05
4.05459e-05
4.05459e-05
4.05467e-05
4.05474e-05
4.05475e-05
4.05473e-05
4.0547e-05
4.05464e-05
4.05459e-05
4.05462e-05
4.05465e-05
4.05464e-05
4.05455e-05
4.05442e-05
4.05434e-05
4.05437e-05
4.05444e-05
4.05449e-05
4.05447e-05
4.05443e-05
4.05437e-05
4.05433e-05
4.05431e-05
4.05431e-05
4.0543e-05
4.05429e-05
4.05428e-05
4.05427e-05
4.05428e-05
4.05437e-05
0.00028183
4.95451e-05
4.17788e-05
4.14473e-05
4.13177e-05
4.11927e-05
4.10704e-05
4.09578e-05
4.08634e-05
4.07894e-05
4.0734e-05
4.06949e-05
4.06662e-05
4.06445e-05
4.06264e-05
4.06125e-05
4.06012e-05
4.05928e-05
4.05855e-05
4.05786e-05
4.05713e-05
4.05638e-05
4.05584e-05
4.05551e-05
4.05539e-05
4.05527e-05
4.0551e-05
4.05498e-05
4.05494e-05
4.05492e-05
4.05485e-05
4.05482e-05
4.05483e-05
4.05483e-05
4.05477e-05
4.05471e-05
4.05472e-05
4.05475e-05
4.05474e-05
4.05472e-05
4.0547e-05
4.05465e-05
4.05456e-05
4.05445e-05
4.05437e-05
4.05439e-05
4.05446e-05
4.0545e-05
4.05448e-05
4.05442e-05
4.05436e-05
4.05432e-05
4.05429e-05
4.05429e-05
4.05429e-05
4.05429e-05
4.05428e-05
4.05427e-05
4.05428e-05
4.05437e-05
0.000283033
5.00348e-05
4.20224e-05
4.16505e-05
4.14975e-05
4.13519e-05
4.12087e-05
4.10726e-05
4.09541e-05
4.08586e-05
4.07839e-05
4.07302e-05
4.06917e-05
4.06648e-05
4.06447e-05
4.06287e-05
4.0614e-05
4.06008e-05
4.05897e-05
4.05814e-05
4.05754e-05
4.05696e-05
4.05642e-05
4.05595e-05
4.05566e-05
4.05552e-05
4.0554e-05
4.05527e-05
4.05519e-05
4.05518e-05
4.05513e-05
4.05502e-05
4.05492e-05
4.05487e-05
4.05483e-05
4.0548e-05
4.05484e-05
4.05491e-05
4.05489e-05
4.05479e-05
4.0547e-05
4.05463e-05
4.05458e-05
4.0545e-05
4.05444e-05
4.05443e-05
4.05446e-05
4.05448e-05
4.05446e-05
4.05442e-05
4.05437e-05
4.05432e-05
4.05427e-05
4.05427e-05
4.05429e-05
4.05429e-05
4.05427e-05
4.05426e-05
4.05427e-05
4.05436e-05
0.000284608
5.05867e-05
4.22497e-05
4.18165e-05
4.16313e-05
4.14663e-05
4.13115e-05
4.11696e-05
4.1044e-05
4.09394e-05
4.08529e-05
4.07847e-05
4.07304e-05
4.06891e-05
4.0659e-05
4.06382e-05
4.06227e-05
4.06092e-05
4.05975e-05
4.05878e-05
4.05816e-05
4.05765e-05
4.05719e-05
4.05669e-05
4.05621e-05
4.05589e-05
4.05574e-05
4.05564e-05
4.05551e-05
4.0554e-05
4.05529e-05
4.05514e-05
4.05502e-05
4.05498e-05
4.055e-05
4.05501e-05
4.055e-05
4.05502e-05
4.05497e-05
4.05483e-05
4.05469e-05
4.05462e-05
4.05461e-05
4.05458e-05
4.05453e-05
4.05448e-05
4.05444e-05
4.05443e-05
4.05443e-05
4.05443e-05
4.05439e-05
4.05433e-05
4.05427e-05
4.05425e-05
4.05427e-05
4.05427e-05
4.05426e-05
4.05425e-05
4.05426e-05
4.05435e-05
0.000286494
5.12405e-05
4.25499e-05
4.202e-05
4.17675e-05
4.15508e-05
4.13602e-05
4.11994e-05
4.10674e-05
4.09645e-05
4.0882e-05
4.08173e-05
4.07636e-05
4.07179e-05
4.0681e-05
4.06535e-05
4.06347e-05
4.06209e-05
4.06104e-05
4.06008e-05
4.05928e-05
4.05855e-05
4.05791e-05
4.05737e-05
4.05685e-05
4.05644e-05
4.05617e-05
4.05599e-05
4.05577e-05
4.05557e-05
4.05541e-05
4.05529e-05
4.05522e-05
4.05523e-05
4.05527e-05
4.05526e-05
4.05515e-05
4.05504e-05
4.05497e-05
4.05487e-05
4.05475e-05
4.05466e-05
4.05465e-05
4.05465e-05
4.05459e-05
4.05451e-05
4.05443e-05
4.05438e-05
4.05439e-05
4.05443e-05
4.05442e-05
4.05434e-05
4.05427e-05
4.05424e-05
4.05425e-05
4.05425e-05
4.05424e-05
4.05423e-05
4.05424e-05
4.05433e-05
0.000288915
5.2223e-05
4.3019e-05
4.23596e-05
4.20143e-05
4.1718e-05
4.14644e-05
4.12597e-05
4.11014e-05
4.09842e-05
4.08977e-05
4.08353e-05
4.07885e-05
4.07491e-05
4.07155e-05
4.06863e-05
4.06618e-05
4.06413e-05
4.06262e-05
4.06142e-05
4.06041e-05
4.05947e-05
4.0586e-05
4.05796e-05
4.05745e-05
4.05702e-05
4.05663e-05
4.05629e-05
4.05598e-05
4.05574e-05
4.05564e-05
4.0556e-05
4.05558e-05
4.05555e-05
4.05553e-05
4.05544e-05
4.05523e-05
4.05503e-05
4.05495e-05
4.05494e-05
4.05488e-05
4.05476e-05
4.05469e-05
4.05468e-05
4.05463e-05
4.05452e-05
4.05442e-05
4.05436e-05
4.05437e-05
4.05442e-05
4.05443e-05
4.05436e-05
4.05428e-05
4.05423e-05
4.05422e-05
4.05422e-05
4.05423e-05
4.05421e-05
4.05422e-05
4.0543e-05
0.000291976
5.35322e-05
4.3607e-05
4.27694e-05
4.23133e-05
4.19373e-05
4.16315e-05
4.13932e-05
4.12138e-05
4.10782e-05
4.0974e-05
4.08954e-05
4.08379e-05
4.07922e-05
4.07561e-05
4.07252e-05
4.0697e-05
4.06691e-05
4.06454e-05
4.06273e-05
4.0614e-05
4.06039e-05
4.05947e-05
4.05876e-05
4.05815e-05
4.05759e-05
4.05709e-05
4.05666e-05
4.05632e-05
4.05606e-05
4.05599e-05
4.05604e-05
4.05602e-05
4.05587e-05
4.05568e-05
4.05551e-05
4.05529e-05
4.05509e-05
4.055e-05
4.05502e-05
4.05502e-05
4.05488e-05
4.05473e-05
4.05467e-05
4.05463e-05
4.05453e-05
4.05443e-05
4.05436e-05
4.05436e-05
4.05441e-05
4.05443e-05
4.05438e-05
4.05429e-05
4.05423e-05
4.05419e-05
4.05419e-05
4.0542e-05
4.05419e-05
4.05419e-05
4.05427e-05
0.000295827
5.51114e-05
4.42913e-05
4.31978e-05
4.25901e-05
4.21173e-05
4.17638e-05
4.15104e-05
4.13343e-05
4.12035e-05
4.10948e-05
4.10001e-05
4.09214e-05
4.08544e-05
4.08007e-05
4.07593e-05
4.07261e-05
4.06951e-05
4.06675e-05
4.06454e-05
4.06287e-05
4.06169e-05
4.06067e-05
4.05984e-05
4.05911e-05
4.05837e-05
4.0577e-05
4.05721e-05
4.0569e-05
4.05664e-05
4.05649e-05
4.05647e-05
4.0564e-05
4.05611e-05
4.05577e-05
4.05554e-05
4.05538e-05
4.05523e-05
4.05514e-05
4.05512e-05
4.05511e-05
4.05498e-05
4.05477e-05
4.05464e-05
4.0546e-05
4.05453e-05
4.05445e-05
4.0544e-05
4.05438e-05
4.05439e-05
4.05441e-05
4.05438e-05
4.0543e-05
4.05422e-05
4.05417e-05
4.05416e-05
4.05416e-05
4.05415e-05
4.05416e-05
4.05424e-05
0.000300568
5.70234e-05
4.51953e-05
4.37354e-05
4.2914e-05
4.23181e-05
4.19049e-05
4.16226e-05
4.14371e-05
4.13064e-05
4.11989e-05
4.10995e-05
4.10091e-05
4.09252e-05
4.08533e-05
4.0798e-05
4.0757e-05
4.07231e-05
4.06934e-05
4.06691e-05
4.06495e-05
4.06347e-05
4.06217e-05
4.06109e-05
4.06023e-05
4.05937e-05
4.05854e-05
4.05795e-05
4.05763e-05
4.05735e-05
4.05702e-05
4.05678e-05
4.05662e-05
4.05632e-05
4.05591e-05
4.05564e-05
4.05554e-05
4.05545e-05
4.05532e-05
4.0552e-05
4.05513e-05
4.05503e-05
4.05483e-05
4.05465e-05
4.05458e-05
4.05454e-05
4.05449e-05
4.05445e-05
4.05441e-05
4.05437e-05
4.05437e-05
4.05436e-05
4.0543e-05
4.05421e-05
4.05415e-05
4.05413e-05
4.05412e-05
4.05411e-05
4.05412e-05
4.0542e-05
0.00030676
5.97087e-05
4.65778e-05
4.45285e-05
4.33924e-05
4.26491e-05
4.21728e-05
4.18494e-05
4.1623e-05
4.14564e-05
4.132e-05
4.12004e-05
4.10981e-05
4.10056e-05
4.09224e-05
4.08544e-05
4.08031e-05
4.07625e-05
4.0727e-05
4.06974e-05
4.06728e-05
4.06539e-05
4.06377e-05
4.0624e-05
4.0614e-05
4.06052e-05
4.05962e-05
4.05885e-05
4.05837e-05
4.05799e-05
4.0575e-05
4.05704e-05
4.05676e-05
4.05654e-05
4.05618e-05
4.05587e-05
4.05573e-05
4.05565e-05
4.05549e-05
4.05526e-05
4.0551e-05
4.05504e-05
4.0549e-05
4.0547e-05
4.05458e-05
4.05455e-05
4.05453e-05
4.0545e-05
4.05444e-05
4.05436e-05
4.05433e-05
4.05433e-05
4.05428e-05
4.0542e-05
4.05413e-05
4.0541e-05
4.05408e-05
4.05407e-05
4.05408e-05
4.05416e-05
0.000317301
6.44219e-05
4.89037e-05
4.58266e-05
4.42215e-05
4.32846e-05
4.27139e-05
4.23141e-05
4.20026e-05
4.17532e-05
4.15444e-05
4.13665e-05
4.12244e-05
4.11108e-05
4.10153e-05
4.09343e-05
4.08679e-05
4.08138e-05
4.07673e-05
4.07294e-05
4.0698e-05
4.06738e-05
4.06544e-05
4.06387e-05
4.06276e-05
4.06185e-05
4.06086e-05
4.05983e-05
4.05903e-05
4.05848e-05
4.05797e-05
4.05741e-05
4.057e-05
4.05681e-05
4.05655e-05
4.05618e-05
4.05592e-05
4.05578e-05
4.05558e-05
4.05531e-05
4.05509e-05
4.05503e-05
4.05499e-05
4.05481e-05
4.05462e-05
4.05456e-05
4.05457e-05
4.05454e-05
4.05446e-05
4.05435e-05
4.05429e-05
4.05428e-05
4.05425e-05
4.05418e-05
4.05411e-05
4.05406e-05
4.05403e-05
4.05402e-05
4.05403e-05
4.05411e-05
0.000359004
7.6256e-05
5.30527e-05
4.80907e-05
4.58042e-05
4.45369e-05
4.37259e-05
4.31213e-05
4.26309e-05
4.22348e-05
4.19073e-05
4.16295e-05
4.14066e-05
4.12374e-05
4.11119e-05
4.1017e-05
4.09397e-05
4.08711e-05
4.08098e-05
4.07616e-05
4.07248e-05
4.06966e-05
4.06743e-05
4.06563e-05
4.06435e-05
4.06329e-05
4.06211e-05
4.06083e-05
4.05973e-05
4.059e-05
4.05852e-05
4.05798e-05
4.05742e-05
4.0571e-05
4.05688e-05
4.0565e-05
4.05609e-05
4.05583e-05
4.05562e-05
4.05536e-05
4.05514e-05
4.05506e-05
4.05507e-05
4.05494e-05
4.0547e-05
4.05459e-05
4.05459e-05
4.05456e-05
4.05447e-05
4.05435e-05
4.05426e-05
4.05422e-05
4.0542e-05
4.05415e-05
4.05409e-05
4.05403e-05
4.05399e-05
4.05397e-05
4.05399e-05
4.05406e-05
0.000641095
0.000146461
6.62623e-05
5.33084e-05
4.928e-05
4.7054e-05
4.55184e-05
4.43729e-05
4.34943e-05
4.28413e-05
4.23522e-05
4.196e-05
4.16407e-05
4.13904e-05