/*--------------------------------*- C++ -*----------------------------------*\
| =========                 |                                                 |
| \\      /  F ield         | OpenFOAM: The Open Source CFD Toolbox           |
|  \\    /   O peration     | Version:  v1912                                 |
|   \\  /    A nd           | Website:  www.openfoam.com                      |
|    \\/     M anipulation  |                                                 |
\*---------------------------------------------------------------------------*/
FoamFile
{
    version     2.0;
    format      ascii;
    class       volScalarField;
    location    "4";
    object      k;
}
// * * * * * * * * * * * * * * * * * * * * * * * * * * * * * * * * * * * * * //

dimensions      [0 2 -2 0 0 0 0];


internalField   nonuniform List<scalar> 
20320
(
0.00414715
0.00429448
0.00440448
0.00455906
0.00611776
0.0236436
0.0932245
0.230416
0.40614
0.571218
0.683771
0.719241
0.666602
0.528947
0.334707
0.146199
0.0340654
0.00571143
0.00393027
0.0036857
0.00418829
0.00429855
0.0130629
0.132249
0.507039
1.05003
1.62507
2.15083
2.58067
2.88773
3.05962
3.09546
2.99839
2.77094
2.41744
1.94901
1.3899
0.784775
0.231175
0.0178895
0.0105189
0.0607958
0.436251
1.1592
2.02206
2.87967
3.65239
4.29701
4.79174
5.12881
5.30985
5.34143
5.23043
4.98125
4.59632
4.07911
3.43772
2.68666
1.8463
0.921259
0.102297
0.487302
1.44787
2.60659
3.76674
4.82968
5.74502
6.48817
7.04999
7.43111
7.63804
7.67972
7.56461
7.2989
6.88658
6.33074
5.63504
4.80246
3.82007
2.49974
0.408759
1.27713
2.70388
4.17899
5.56168
6.78611
7.82096
8.65352
9.28218
9.71201
9.95172
10.0112
9.89973
9.62451
9.19059
8.60052
7.85289
6.9341
5.77998
3.99481
0.964228
2.28507
4.08001
5.80409
7.36488
8.72172
9.85772
10.7688
11.4585
11.9346
12.2071
12.2863
12.1814
11.8996
11.4449
10.8165
10.0041
8.97315
7.60793
5.33352
1.75505
3.44901
5.54178
7.46667
9.17124
10.6355
11.8543
12.8305
13.5714
14.0867
14.3872
14.4828
14.3823
14.0912
13.6109
12.9353
12.0438
10.8814
9.28842
6.53813
2.76844
4.75182
7.08582
9.17144
10.9894
12.5371
13.8194
14.845
15.6242
16.1683
16.488
16.5929
16.4902
16.1834
15.6702
14.9384
13.9574
12.6547
10.833
7.63353
3.99949
6.19518
8.72155
10.932
12.8347
14.442
15.7675
16.8247
17.6269
18.1862
18.5135
18.6174
18.5034
18.1725
17.6182
16.8229
15.7467
14.3017
12.2581
8.63919
5.44868
7.78861
10.4641
12.7663
14.7261
16.369
17.716
18.7853
19.5927
20.1513
20.4719
20.5622
20.426
20.0614
19.4583
18.5936
17.4193
15.8339
13.5789
9.56957
7.11833
9.54535
12.3321
14.6954
16.6855
18.3392
19.6847
20.7446
21.5371
22.0767
22.3742
22.4364
22.2655
21.857
21.1974
20.2584
18.9849
17.2629
14.8078
10.4352
9.01135
11.48
14.346
16.7423
18.7363
20.3752
21.6944
22.7211
23.4764
23.9762
24.2319
24.2497
24.0303
23.567
22.843
21.8255
20.4523
18.5984
15.9545
11.2438
11.1332
13.6095
16.5288
18.9327
20.9042
22.5012
23.7669
24.7339
25.4268
25.8638
26.0568
26.0121
25.7292
25.1994
24.403
23.3027
21.8299
19.8487
17.0271
12.0011
13.4963
15.9555
18.9084
21.2959
23.2172
24.7427
25.9244
26.8018
27.4041
27.7523
27.8597
27.7328
27.3703
26.7619
25.8848
24.6976
23.1255
21.022
18.033
12.7122
16.1294
18.5496
21.5206
23.8671
25.7071
27.1263
28.1886
28.9421
29.422
29.6528
29.6499
29.42
28.9612
28.2617
27.296
26.0186
24.3484
22.1279
18.9814
13.3841
19.0893
21.443
24.4169
26.6921
28.4116
29.6814
30.5813
31.1708
31.4924
31.5748
31.4354
31.0814
30.51
29.7078
28.6469
27.2778
25.5127
23.1828
19.8892
14.03
22.4773
24.7168
27.6714
29.8317
31.3759
32.4391
33.1229
33.5008
33.6238
33.5249
33.2229
32.7245
32.026
31.112
29.9523
28.4939
26.6426
24.217
20.7913
14.6803
26.4587
28.4971
31.3906
33.3654
34.6531
35.431
35.8295
35.9393
35.8195
35.5057
35.0162
34.3562
33.5197
32.4896
31.2337
29.6967
27.7798
25.2891
21.7647
15.4124
31.2969
32.9748
35.7241
37.3942
38.3009
38.6834
38.7088
38.4846
38.0747
37.5132
36.8149
35.9807
35.0016
33.8581
32.5179
30.927
28.9884
26.5047
22.9825
16.4542
37.4043
38.4365
40.8787
42.0396
42.3744
42.2102
41.7537
41.1219
40.3741
39.5356
38.612
37.5972
36.4773
35.2313
33.8292
32.2249
30.3386
28.0054
24.777
18.5781
0.00279294
0.00238686
0.00239814
0.00240922
0.00241888
0.00242699
0.00243349
0.00243846
0.00244207
0.0024445
0.00244565
0.00244588
0.00244561
0.00244445
0.00244253
0.00244004
0.00243706
0.00243366
0.00243011
0.00242647
0.00242295
0.00241948
0.00241603
0.00241253
0.00240895
0.00240529
0.0024017
0.00239826
0.00239482
0.00239154
0.00238836
0.00238526
0.00238244
0.0023799
0.00237753
0.00237538
0.00237327
0.00237132
0.00236935
0.00236728
0.00236526
0.00236328
0.00236124
0.00235919
0.00235707
0.00235508
0.00235319
0.00235129
0.00234933
0.00234735
0.00234536
0.00234357
0.00234178
0.00233999
0.00233836
0.0023367
0.00233503
0.00233336
0.00233166
0.00233
0.00285561
0.00384951
0.00386014
0.00385288
0.00384714
0.00384264
0.00383911
0.0038364
0.00383442
0.00383299
0.00383196
0.00383121
0.00383054
0.00383005
0.00382968
0.0038293
0.00382898
0.0038287
0.00382846
0.00382828
0.00382819
0.00382814
0.00382812
0.00382806
0.00382796
0.00382778
0.00382751
0.00382732
0.00382711
0.00382702
0.00382703
0.00382702
0.00382705
0.00382708
0.00382707
0.00382706
0.00382697
0.00382688
0.00382679
0.00382668
0.00382658
0.00382651
0.00382641
0.00382628
0.00382619
0.00382617
0.00382614
0.00382606
0.00382595
0.00382585
0.00382579
0.00382575
0.00382571
0.00382566
0.00382561
0.00382553
0.00382546
0.00382538
0.00382529
0.00382504
0.00286917
0.00395454
0.00399192
0.00398356
0.00397568
0.00396948
0.00396468
0.00396102
0.00395835
0.00395648
0.00395526
0.00395462
0.00395438
0.00395442
0.00395459
0.00395473
0.00395479
0.00395475
0.0039547
0.00395469
0.00395478
0.00395494
0.00395512
0.00395519
0.00395508
0.00395484
0.00395459
0.00395444
0.00395431
0.00395419
0.00395413
0.00395412
0.00395416
0.00395421
0.0039542
0.00395418
0.00395411
0.00395405
0.00395402
0.00395401
0.00395398
0.00395396
0.00395393
0.00395392
0.00395393
0.00395394
0.00395392
0.00395389
0.00395388
0.00395388
0.00395387
0.00395385
0.00395384
0.00395382
0.0039538
0.00395377
0.00395375
0.00395376
0.00395377
0.00395376
0.00288227
0.00396068
0.0040065
0.00399929
0.00399148
0.00398523
0.00398039
0.00397669
0.003974
0.00397211
0.00397094
0.00397037
0.00397023
0.00397035
0.00397058
0.00397078
0.00397089
0.00397094
0.00397099
0.00397115
0.00397146
0.00397177
0.00397191
0.00397175
0.00397137
0.003971
0.00397082
0.00397084
0.00397087
0.00397077
0.00397059
0.00397048
0.00397054
0.00397067
0.00397073
0.00397071
0.00397065
0.00397063
0.00397063
0.00397057
0.00397049
0.00397048
0.0039705
0.00397051
0.00397049
0.00397048
0.00397048
0.00397047
0.00397046
0.00397045
0.00397045
0.00397044
0.00397043
0.00397041
0.00397038
0.00397036
0.00397035
0.00397036
0.00397038
0.0039704
0.00289507
0.00395825
0.00400406
0.00399774
0.0039906
0.00398483
0.0039804
0.0039771
0.00397476
0.00397316
0.00397219
0.00397174
0.00397164
0.00397172
0.00397187
0.00397203
0.00397217
0.00397232
0.00397254
0.00397283
0.00397312
0.00397323
0.0039731
0.00397279
0.00397243
0.00397217
0.00397206
0.00397213
0.00397221
0.0039722
0.00397206
0.00397191
0.00397191
0.00397203
0.00397215
0.00397219
0.00397217
0.00397219
0.00397219
0.00397208
0.00397196
0.00397196
0.00397204
0.00397204
0.00397197
0.00397194
0.00397197
0.003972
0.00397197
0.00397194
0.00397193
0.00397194
0.00397194
0.00397191
0.00397188
0.00397187
0.00397187
0.00397187
0.00397187
0.0039719
0.0029075
0.00395725
0.0040017
0.00399582
0.00398916
0.0039838
0.00397972
0.00397674
0.00397467
0.00397325
0.00397238
0.00397193
0.00397178
0.00397181
0.00397195
0.00397214
0.00397237
0.00397263
0.00397289
0.00397305
0.00397303
0.00397281
0.00397252
0.00397231
0.00397222
0.00397218
0.0039721
0.00397203
0.00397202
0.00397209
0.00397213
0.00397208
0.00397202
0.00397201
0.00397209
0.00397222
0.0039723
0.00397231
0.00397227
0.00397217
0.00397208
0.00397209
0.00397214
0.00397212
0.00397204
0.00397202
0.00397207
0.00397211
0.00397208
0.00397204
0.00397202
0.00397203
0.00397203
0.003972
0.00397198
0.00397199
0.00397199
0.00397198
0.00397198
0.00397199
0.00291989
0.00395683
0.0040003
0.00399485
0.00398865
0.00398365
0.0039798
0.00397696
0.00397492
0.00397349
0.00397256
0.00397203
0.0039718
0.0039718
0.00397197
0.00397225
0.00397253
0.00397278
0.00397291
0.00397285
0.00397262
0.00397233
0.0039721
0.003972
0.00397203
0.00397209
0.00397205
0.00397193
0.00397185
0.00397191
0.00397205
0.00397215
0.00397212
0.00397202
0.00397203
0.00397216
0.00397228
0.00397229
0.00397224
0.00397219
0.00397218
0.00397217
0.00397215
0.0039721
0.00397206
0.00397206
0.0039721
0.00397212
0.00397211
0.00397207
0.00397205
0.00397204
0.00397204
0.00397202
0.00397202
0.00397203
0.00397203
0.00397202
0.00397199
0.00397201
0.00293247
0.00395517
0.00399788
0.00399306
0.00398749
0.00398295
0.00397937
0.00397669
0.00397472
0.00397333
0.00397246
0.00397198
0.00397179
0.00397181
0.003972
0.00397225
0.00397246
0.00397258
0.00397257
0.00397248
0.00397235
0.00397221
0.00397207
0.00397196
0.00397189
0.00397186
0.00397186
0.00397186
0.00397184
0.00397185
0.00397193
0.00397206
0.00397216
0.00397215
0.00397211
0.00397211
0.00397215
0.00397219
0.00397221
0.00397225
0.00397227
0.00397222
0.00397214
0.00397209
0.00397209
0.00397211
0.00397212
0.00397212
0.00397212
0.00397211
0.00397208
0.00397205
0.00397203
0.00397204
0.00397205
0.00397206
0.00397206
0.00397204
0.00397202
0.00397203
0.00294485
0.00395345
0.00399519
0.0039909
0.00398586
0.0039817
0.00397838
0.00397591
0.00397415
0.00397297
0.00397229
0.00397196
0.00397184
0.00397186
0.00397196
0.00397209
0.00397221
0.00397227
0.00397226
0.00397223
0.00397222
0.00397221
0.00397213
0.00397198
0.0039718
0.00397169
0.0039717
0.00397179
0.00397186
0.00397187
0.00397187
0.00397196
0.00397213
0.00397226
0.00397224
0.0039721
0.00397202
0.00397208
0.00397221
0.00397229
0.00397229
0.00397223
0.00397216
0.00397213
0.00397214
0.00397215
0.00397214
0.00397213
0.00397214
0.00397214
0.0039721
0.00397206
0.00397204
0.00397205
0.00397208
0.00397209
0.00397208
0.00397206
0.00397204
0.00397205
0.00295687
0.00395379
0.00399438
0.00399021
0.00398542
0.00398146
0.00397831
0.00397596
0.00397427
0.00397317
0.00397253
0.00397218
0.00397202
0.00397195
0.00397195
0.00397197
0.00397201
0.00397207
0.00397211
0.00397212
0.00397212
0.0039721
0.00397203
0.00397192
0.0039718
0.0039717
0.00397168
0.00397172
0.0039718
0.00397187
0.00397191
0.00397198
0.0039721
0.00397223
0.00397225
0.00397211
0.00397201
0.00397206
0.00397218
0.00397225
0.00397226
0.00397223
0.00397221
0.0039722
0.00397219
0.00397217
0.00397215
0.00397215
0.00397217
0.00397215
0.00397211
0.00397207
0.00397206
0.00397208
0.0039721
0.00397211
0.0039721
0.00397208
0.00397206
0.00397208
0.00296888
0.00395518
0.00399488
0.00399069
0.00398607
0.00398231
0.0039793
0.00397699
0.00397524
0.00397403
0.00397322
0.00397269
0.00397236
0.00397216
0.00397204
0.00397196
0.00397192
0.00397193
0.00397196
0.00397198
0.00397197
0.00397192
0.00397185
0.00397182
0.00397181
0.00397179
0.00397174
0.00397172
0.00397175
0.00397187
0.00397199
0.00397207
0.00397208
0.00397209
0.00397214
0.00397215
0.00397212
0.00397212
0.00397212
0.00397214
0.0039722
0.00397225
0.00397227
0.00397227
0.00397223
0.00397219
0.00397217
0.00397218
0.00397218
0.00397215
0.00397211
0.00397209
0.00397209
0.00397211
0.00397212
0.00397212
0.00397211
0.0039721
0.00397208
0.00397211
0.00298147
0.00395543
0.00399454
0.00399059
0.0039863
0.00398281
0.00397999
0.00397777
0.00397606
0.00397479
0.00397387
0.00397322
0.00397276
0.00397245
0.00397224
0.00397207
0.00397193
0.00397185
0.0039718
0.00397178
0.00397178
0.00397176
0.00397173
0.00397174
0.00397177
0.0039718
0.0039718
0.0039718
0.00397184
0.00397194
0.00397204
0.00397208
0.00397203
0.00397199
0.00397206
0.00397219
0.00397224
0.00397217
0.00397207
0.00397205
0.00397215
0.00397228
0.00397232
0.00397229
0.00397226
0.00397223
0.00397221
0.0039722
0.00397218
0.00397215
0.00397213
0.00397212
0.00397213
0.00397213
0.00397213
0.00397213
0.00397212
0.00397211
0.00397211
0.00397213
0.00299438
0.00395454
0.00399303
0.00398955
0.00398574
0.00398259
0.00398002
0.00397796
0.00397637
0.00397518
0.00397429
0.00397364
0.00397313
0.00397277
0.00397249
0.00397225
0.00397203
0.00397185
0.00397172
0.00397164
0.00397161
0.00397162
0.00397164
0.00397167
0.00397172
0.00397177
0.00397184
0.00397193
0.00397201
0.00397205
0.00397203
0.00397199
0.00397198
0.003972
0.00397208
0.00397219
0.00397223
0.00397217
0.00397208
0.00397206
0.00397215
0.00397227
0.00397232
0.00397229
0.00397229
0.00397229
0.00397225
0.0039722
0.00397216
0.00397215
0.00397215
0.00397215
0.00397216
0.00397215
0.00397214
0.00397214
0.00397213
0.00397212
0.00397212
0.00397216
0.00300759
0.00395328
0.00399107
0.00398816
0.00398495
0.00398229
0.00398008
0.00397826
0.00397682
0.00397567
0.00397478
0.00397407
0.00397349
0.00397302
0.00397266
0.00397235
0.0039721
0.00397189
0.00397171
0.0039716
0.00397156
0.00397155
0.00397157
0.00397162
0.00397169
0.00397179
0.00397192
0.00397203
0.00397208
0.00397206
0.003972
0.00397197
0.00397201
0.00397209
0.00397212
0.00397213
0.00397213
0.00397214
0.00397215
0.00397215
0.00397217
0.00397223
0.00397227
0.00397229
0.00397232
0.00397233
0.00397228
0.0039722
0.00397216
0.00397216
0.00397219
0.00397219
0.00397218
0.00397217
0.00397216
0.00397215
0.00397214
0.00397213
0.00397214
0.00397218
0.00302047
0.00395162
0.0039889
0.00398681
0.00398426
0.00398209
0.0039802
0.00397858
0.00397722
0.00397607
0.00397514
0.00397437
0.00397372
0.00397319
0.00397276
0.0039724
0.00397214
0.00397195
0.00397181
0.00397173
0.00397168
0.00397163
0.0039716
0.00397162
0.00397171
0.00397184
0.00397197
0.00397202
0.003972
0.00397199
0.00397202
0.00397206
0.00397211
0.00397214
0.00397209
0.00397205
0.00397206
0.00397214
0.00397223
0.00397225
0.0039722
0.00397218
0.00397223
0.0039723
0.00397234
0.00397234
0.00397229
0.00397221
0.00397217
0.00397218
0.00397221
0.00397222
0.0039722
0.00397218
0.00397217
0.00397216
0.00397215
0.00397214
0.00397215
0.0039722
0.0030323
0.00395077
0.00398782
0.00398662
0.00398453
0.00398254
0.00398065
0.00397896
0.0039775
0.00397626
0.00397527
0.00397449
0.00397388
0.00397342
0.00397302
0.00397269
0.00397244
0.00397227
0.00397214
0.00397202
0.00397189
0.00397177
0.0039717
0.00397172
0.00397178
0.00397185
0.0039719
0.00397192
0.00397194
0.00397199
0.00397209
0.00397218
0.00397218
0.00397212
0.00397204
0.00397203
0.0039721
0.00397219
0.00397226
0.00397228
0.00397223
0.00397219
0.00397223
0.00397229
0.00397232
0.00397231
0.00397229
0.00397224
0.00397221
0.00397221
0.00397223
0.00397223
0.00397222
0.0039722
0.00397218
0.00397217
0.00397216
0.00397215
0.00397216
0.00397221
0.00304297
0.00395271
0.00398995
0.00398926
0.00398711
0.00398481
0.00398256
0.00398053
0.00397879
0.00397733
0.00397616
0.00397524
0.00397455
0.00397405
0.00397367
0.00397334
0.00397306
0.00397278
0.00397251
0.00397225
0.00397204
0.00397189
0.00397183
0.00397184
0.00397184
0.00397182
0.00397182
0.00397186
0.00397196
0.00397206
0.00397215
0.00397218
0.00397214
0.00397209
0.00397206
0.0039721
0.00397219
0.00397225
0.00397225
0.00397226
0.00397226
0.00397224
0.00397225
0.00397227
0.00397227
0.00397227
0.00397229
0.00397228
0.00397225
0.00397223
0.00397223
0.00397224
0.00397224
0.00397222
0.0039722
0.00397218
0.00397217
0.00397215
0.00397216
0.00397222
0.00305328
0.0039579
0.00399572
0.00399502
0.00399233
0.00398937
0.0039865
0.00398397
0.0039818
0.00397996
0.00397843
0.00397716
0.0039761
0.00397524
0.00397453
0.00397393
0.00397339
0.00397294
0.00397259
0.00397235
0.00397219
0.00397206
0.00397197
0.00397192
0.0039719
0.00397187
0.00397187
0.00397191
0.00397201
0.00397209
0.0039721
0.00397208
0.00397207
0.00397211
0.00397218
0.00397222
0.00397225
0.00397226
0.00397223
0.00397225
0.0039723
0.0039723
0.00397226
0.00397223
0.00397223
0.00397225
0.00397229
0.00397231
0.00397228
0.00397225
0.00397224
0.00397225
0.00397225
0.00397224
0.00397221
0.00397219
0.00397217
0.00397216
0.00397217
0.00397222
0.00306465
0.0039636
0.0040023
0.00400156
0.0039985
0.00399502
0.0039915
0.00398823
0.00398533
0.00398279
0.00398065
0.00397887
0.00397734
0.00397606
0.00397497
0.00397408
0.0039734
0.00397291
0.00397261
0.00397245
0.00397237
0.00397229
0.00397217
0.00397206
0.003972
0.00397198
0.003972
0.00397202
0.00397203
0.00397202
0.00397201
0.00397203
0.00397209
0.00397219
0.0039723
0.00397232
0.00397227
0.00397226
0.00397227
0.0039723
0.00397233
0.00397231
0.00397224
0.00397221
0.00397222
0.00397226
0.0039723
0.00397232
0.0039723
0.00397227
0.00397226
0.00397226
0.00397226
0.00397225
0.00397222
0.0039722
0.00397218
0.00397217
0.00397218
0.00397223
0.00307775
0.0039664
0.00400574
0.00400517
0.00400233
0.00399883
0.00399501
0.00399116
0.00398751
0.0039842
0.00398135
0.00397905
0.00397726
0.00397591
0.00397489
0.00397413
0.00397358
0.00397317
0.00397288
0.00397268
0.00397254
0.00397244
0.00397235
0.00397224
0.00397215
0.0039721
0.00397209
0.00397206
0.00397201
0.00397197
0.00397199
0.00397207
0.00397217
0.00397227
0.00397233
0.00397233
0.00397229
0.0039723
0.00397235
0.00397236
0.00397233
0.00397227
0.00397222
0.00397222
0.00397225
0.00397228
0.00397229
0.00397231
0.0039723
0.00397229
0.00397228
0.00397228
0.00397227
0.00397225
0.00397223
0.0039722
0.00397218
0.00397218
0.00397219
0.00397223
0.00309205
0.00396824
0.00400726
0.00400619
0.0040033
0.00399979
0.0039959
0.00399195
0.00398821
0.00398476
0.00398173
0.00397926
0.00397735
0.00397597
0.00397504
0.00397439
0.00397393
0.00397357
0.00397327
0.00397297
0.0039727
0.00397251
0.00397242
0.00397238
0.00397231
0.00397221
0.00397211
0.00397206
0.00397203
0.00397204
0.00397208
0.00397216
0.00397225
0.00397228
0.0039723
0.00397233
0.00397236
0.00397239
0.00397242
0.00397238
0.00397231
0.00397224
0.00397222
0.00397225
0.0039723
0.0039723
0.00397228
0.00397229
0.0039723
0.0039723
0.00397229
0.00397228
0.00397227
0.00397225
0.00397223
0.0039722
0.00397219
0.00397219
0.00397219
0.00397224
0.00310713
0.00397354
0.00401171
0.00400937
0.0040055
0.00400133
0.00399707
0.00399297
0.00398927
0.00398598
0.00398312
0.00398069
0.00397868
0.00397706
0.00397585
0.00397493
0.00397423
0.0039737
0.00397334
0.00397307
0.00397283
0.00397263
0.00397249
0.00397242
0.00397237
0.0039723
0.00397221
0.00397213
0.00397212
0.00397216
0.00397221
0.00397224
0.00397226
0.00397227
0.0039723
0.00397238
0.00397245
0.00397247
0.00397244
0.00397237
0.00397229
0.00397225
0.00397225
0.00397228
0.00397231
0.00397231
0.00397228
0.00397228
0.00397231
0.00397232
0.0039723
0.00397228
0.00397227
0.00397225
0.00397222
0.00397221
0.0039722
0.0039722
0.0039722
0.00397224
0.0031231
0.00398103
0.00401808
0.00401449
0.00400956
0.0040046
0.0039998
0.0039953
0.00399129
0.00398772
0.00398467
0.00398208
0.00397994
0.00397813
0.00397667
0.00397548
0.00397452
0.0039738
0.00397333
0.00397307
0.00397292
0.00397282
0.00397269
0.00397255
0.00397245
0.00397239
0.00397235
0.0039723
0.00397228
0.00397228
0.00397229
0.00397228
0.00397227
0.0039723
0.00397237
0.00397247
0.00397252
0.00397248
0.00397241
0.00397235
0.00397232
0.00397231
0.00397232
0.0039723
0.0039723
0.0039723
0.00397229
0.0039723
0.00397232
0.00397233
0.0039723
0.00397228
0.00397226
0.00397225
0.00397222
0.00397221
0.00397221
0.0039722
0.0039722
0.00397225
0.00314014
0.00398728
0.00402269
0.00401798
0.00401232
0.00400684
0.00400158
0.00399664
0.00399227
0.0039884
0.00398507
0.00398225
0.00397996
0.00397814
0.00397677
0.00397574
0.00397492
0.00397426
0.00397373
0.00397338
0.00397315
0.00397304
0.00397295
0.00397281
0.00397264
0.00397251
0.00397248
0.00397249
0.00397245
0.00397238
0.00397234
0.00397233
0.00397235
0.0039724
0.00397246
0.00397252
0.00397252
0.00397245
0.00397239
0.00397238
0.00397239
0.0039724
0.00397237
0.00397231
0.00397227
0.00397228
0.00397231
0.00397233
0.00397234
0.00397233
0.00397229
0.00397227
0.00397225
0.00397224
0.00397222
0.00397221
0.00397221
0.00397221
0.00397221
0.00397225
0.00315826
0.00399445
0.00402882
0.00402282
0.00401597
0.00400936
0.00400299
0.00399709
0.0039921
0.00398799
0.00398469
0.00398205
0.00397992
0.00397821
0.00397694
0.00397606
0.00397544
0.00397497
0.00397452
0.00397409
0.00397367
0.00397334
0.00397312
0.00397297
0.00397284
0.00397271
0.00397262
0.0039726
0.00397257
0.0039725
0.00397243
0.00397243
0.00397248
0.00397252
0.00397253
0.00397251
0.0039725
0.00397246
0.00397243
0.00397244
0.00397246
0.00397245
0.0039724
0.00397231
0.00397226
0.00397228
0.00397233
0.00397236
0.00397235
0.00397232
0.00397228
0.00397225
0.00397224
0.00397223
0.00397222
0.00397221
0.00397221
0.00397221
0.00397221
0.00397225
0.0031779
0.00400605
0.00404121
0.0040336
0.00402502
0.00401655
0.00400826
0.00400062
0.0039942
0.00398915
0.00398535
0.00398266
0.00398068
0.00397918
0.00397794
0.00397698
0.00397622
0.00397564
0.00397514
0.00397466
0.00397417
0.00397367
0.0039733
0.00397307
0.00397298
0.0039729
0.00397279
0.00397271
0.00397268
0.00397266
0.00397261
0.00397259
0.00397259
0.00397259
0.00397255
0.00397251
0.00397251
0.00397253
0.00397252
0.00397251
0.0039725
0.00397247
0.0039724
0.00397233
0.00397228
0.00397229
0.00397234
0.00397237
0.00397235
0.00397232
0.00397228
0.00397225
0.00397223
0.00397222
0.00397222
0.00397221
0.00397221
0.0039722
0.00397221
0.00397225
0.00319992
0.00402015
0.00405661
0.00404725
0.0040371
0.00402722
0.00401751
0.0040083
0.00400027
0.00399378
0.0039887
0.00398504
0.0039824
0.00398055
0.00397917
0.00397807
0.00397708
0.00397619
0.00397545
0.00397488
0.00397447
0.00397407
0.0039737
0.00397337
0.00397317
0.00397308
0.00397299
0.00397291
0.00397285
0.00397284
0.0039728
0.00397272
0.00397266
0.00397262
0.0039726
0.00397257
0.00397259
0.00397264
0.00397263
0.00397256
0.0039725
0.00397245
0.00397242
0.00397237
0.00397233
0.00397232
0.00397234
0.00397235
0.00397234
0.00397232
0.00397228
0.00397224
0.00397222
0.00397221
0.00397222
0.00397221
0.0039722
0.00397219
0.0039722
0.00397225
0.00322452
0.00403551
0.00407082
0.00405859
0.00404625
0.00403502
0.00402448
0.00401482
0.00400629
0.00399918
0.00399331
0.00398869
0.00398502
0.00398222
0.00398017
0.00397875
0.00397769
0.00397677
0.00397597
0.00397532
0.00397489
0.00397454
0.00397422
0.00397388
0.00397355
0.00397333
0.00397322
0.00397315
0.00397307
0.00397299
0.00397291
0.00397281
0.00397273
0.0039727
0.00397271
0.00397272
0.00397271
0.00397271
0.00397268
0.00397259
0.00397249
0.00397245
0.00397244
0.00397242
0.00397238
0.00397235
0.00397233
0.00397232
0.00397232
0.00397232
0.00397229
0.00397225
0.00397221
0.0039722
0.00397221
0.00397221
0.0039722
0.00397219
0.00397219
0.00397224
0.0032522
0.00405749
0.00408986
0.00407244
0.00405563
0.00404092
0.00402797
0.00401702
0.00400802
0.00400099
0.00399536
0.00399094
0.00398729
0.00398419
0.00398168
0.00397982
0.00397853
0.00397757
0.00397685
0.00397619
0.00397565
0.00397515
0.00397471
0.00397434
0.00397399
0.0039737
0.00397352
0.00397339
0.00397324
0.00397311
0.003973
0.00397292
0.00397287
0.00397287
0.0039729
0.00397289
0.00397281
0.00397273
0.00397268
0.00397262
0.00397253
0.00397247
0.00397247
0.00397247
0.00397243
0.00397237
0.00397232
0.00397229
0.0039723
0.00397232
0.00397231
0.00397226
0.00397221
0.00397219
0.00397219
0.0039722
0.00397219
0.00397218
0.00397218
0.00397223
0.00328408
0.00408891
0.00411937
0.00409516
0.0040722
0.00405218
0.00403504
0.00402118
0.00401044
0.00400246
0.00399655
0.00399226
0.00398904
0.00398633
0.00398403
0.00398203
0.00398036
0.00397896
0.00397792
0.0039771
0.00397641
0.00397578
0.00397519
0.00397475
0.0039744
0.0039741
0.00397383
0.0039736
0.00397339
0.00397323
0.00397316
0.00397313
0.00397311
0.00397309
0.00397307
0.00397301
0.00397287
0.00397273
0.00397267
0.00397266
0.00397262
0.00397254
0.0039725
0.00397249
0.00397245
0.00397238
0.00397231
0.00397227
0.00397228
0.00397232
0.00397232
0.00397227
0.00397222
0.00397219
0.00397218
0.00397218
0.00397218
0.00397216
0.00397216
0.00397221
0.00332121
0.0041291
0.00415589
0.00412261
0.0040923
0.00406691
0.00404624
0.00403011
0.00401796
0.00400877
0.00400169
0.00399634
0.0039924
0.00398927
0.00398679
0.00398467
0.00398274
0.00398084
0.00397923
0.003978
0.0039771
0.00397641
0.00397578
0.00397529
0.00397487
0.00397449
0.00397415
0.00397386
0.00397362
0.00397345
0.0039734
0.00397343
0.00397341
0.0039733
0.00397318
0.00397305
0.00397291
0.00397277
0.00397271
0.00397272
0.00397272
0.00397263
0.00397252
0.00397248
0.00397245
0.00397239
0.00397232
0.00397227
0.00397228
0.00397231
0.00397232
0.00397228
0.00397223
0.00397218
0.00397216
0.00397216
0.00397216
0.00397215
0.00397214
0.00397219
0.00336462
0.0041791
0.00419818
0.00415143
0.0041111
0.00407924
0.00405532
0.00403812
0.00402612
0.0040172
0.00400981
0.00400338
0.00399803
0.00399347
0.00398983
0.003987
0.00398474
0.00398263
0.00398074
0.00397923
0.0039781
0.00397729
0.0039766
0.00397603
0.00397553
0.00397502
0.00397456
0.00397423
0.00397402
0.00397384
0.00397373
0.00397372
0.00397367
0.00397347
0.00397324
0.00397308
0.00397297
0.00397287
0.0039728
0.00397279
0.00397278
0.00397269
0.00397255
0.00397247
0.00397244
0.00397239
0.00397233
0.0039723
0.00397229
0.00397229
0.0039723
0.00397228
0.00397223
0.00397218
0.00397214
0.00397214
0.00397214
0.00397213
0.00397212
0.00397217
0.00341547
0.00424729
0.00425437
0.00418747
0.00413307
0.00409299
0.00406505
0.00404591
0.00403325
0.0040243
0.00401694
0.00401016
0.004004
0.0039983
0.00399342
0.00398966
0.00398686
0.00398455
0.00398252
0.00398085
0.00397951
0.0039785
0.00397762
0.00397689
0.0039763
0.00397571
0.00397514
0.00397473
0.00397451
0.00397432
0.00397409
0.00397393
0.00397382
0.00397361
0.00397334
0.00397315
0.00397308
0.00397302
0.00397293
0.00397284
0.00397279
0.00397273
0.00397259
0.00397247
0.00397242
0.00397239
0.00397236
0.00397233
0.0039723
0.00397228
0.00397228
0.00397227
0.00397223
0.00397217
0.00397213
0.00397211
0.00397211
0.0039721
0.0039721
0.00397214
0.00347733
0.00435595
0.00434083
0.00424048
0.00416547
0.00411553
0.00408332
0.00406137
0.00404595
0.00403458
0.00402526
0.0040171
0.00401011
0.00400381
0.00399815
0.00399351
0.00399
0.00398722
0.0039848
0.00398278
0.0039811
0.00397981
0.00397871
0.00397778
0.0039771
0.00397649
0.00397588
0.00397535
0.00397501
0.00397475
0.00397442
0.00397411
0.00397392
0.00397376
0.00397352
0.00397331
0.00397321
0.00397315
0.00397304
0.00397288
0.00397278
0.00397273
0.00397264
0.00397251
0.00397242
0.0039724
0.00397239
0.00397237
0.00397232
0.00397227
0.00397225
0.00397225
0.00397222
0.00397216
0.00397211
0.00397209
0.00397208
0.00397207
0.00397207
0.00397212
0.00357257
0.00455234
0.00448456
0.00432672
0.00422137
0.00415852
0.00411991
0.00409278
0.00407164
0.00405469
0.00404049
0.00402839
0.0040187
0.00401095
0.00400444
0.00399893
0.0039944
0.00399071
0.00398754
0.00398495
0.00398282
0.00398117
0.00397985
0.00397878
0.00397802
0.0039774
0.00397671
0.00397601
0.00397547
0.00397509
0.00397474
0.00397436
0.00397408
0.00397395
0.00397377
0.00397352
0.00397334
0.00397324
0.00397311
0.00397292
0.00397277
0.00397273
0.0039727
0.00397258
0.00397245
0.00397241
0.00397241
0.0039724
0.00397234
0.00397227
0.00397223
0.00397222
0.00397219
0.00397215
0.0039721
0.00397207
0.00397205
0.00397204
0.00397205
0.00397209
0.00389998
0.00499625
0.00473068
0.00447568
0.00432711
0.00424245
0.0041878
0.00414698
0.00411386
0.0040871
0.00406496
0.00404617
0.00403105
0.00401955
0.00401099
0.00400452
0.00399927
0.00399461
0.00399044
0.00398716
0.00398465
0.00398272
0.00398121
0.00397997
0.0039791
0.00397837
0.00397757
0.0039767
0.00397595
0.00397545
0.00397512
0.00397475
0.00397437
0.00397415
0.003974
0.00397373
0.00397346
0.00397328
0.00397313
0.00397296
0.00397281
0.00397275
0.00397275
0.00397266
0.00397251
0.00397243
0.00397243
0.00397241
0.00397234
0.00397226
0.0039722
0.00397218
0.00397216
0.00397213
0.00397208
0.00397205
0.00397202
0.00397201
0.00397201
0.00397206
0.00578231
0.0068314
0.00535643
0.00480437
0.00455385
0.00440818
0.00430669
0.00423051
0.00417178
0.00412791
0.00409493
0.00406845
0.00404689
0.00402995
0.00401741
0.00400891
0.00400318
0.0039984
0.00399372
0.00398973
0.00398672
0.00398451
0.00398279
0.00398135
0.00398028
0.0039794
0.00397846
0.00397748
0.00397659
0.00397594
0.00397557
0.00397523
0.00397475
0.00397436
0.00397414
0.00397389
0.00397357
0.00397332
0.00397316
0.00397302
0.00397288
0.0039728
0.0039728
0.00397274
0.00397259
0.00397246
0.00397243
0.00397241
0.00397234
0.00397225
0.00397218
0.00397214
0.00397212
0.0039721
0.00397206
0.00397202
0.00397199
0.00397197
0.00397198
0.00397202
0.0129946
0.0157427
0.00830048
0.00575887
0.00504896
0.00470827
0.00449571
0.00435097
0.00424827
0.00417613
0.00412636
0.00409068
0.00406375
0.00404256
0.00402588
0.00401405
0.0040067
0.00400175
0.00399722
0.00399294
0.00398933
0.00398659
0.00398453
0.00398287
0.00398166
0.00398063
0.00397951
0.00397842
0.00397742
0.00397658
0.00397604
0.00397565
0.0039751
0.00397455
0.00397423
0.003974
0.00397369
0.0039734
0.00397321
0.00397309
0.00397298
0.00397288
0.00397284
0.0039728
0.00397267
0.00397252
0.00397244
0.0039724
0.00397232
0.00397224
0.00397215
0.0039721
0.00397208
0.00397206
0.00397203
0.00397199
0.00397196
0.00397194
0.00397194
0.00397199
0.0229377
0.0360836
0.0207711
0.00850364
0.00578877
0.00502066
0.00466999
0.0044624
0.00432354
0.0042267
0.00415961
0.00411271
0.00407937
0.00405467
0.00403556
0.00402126
0.00401174
0.00400538
0.00400041
0.00399616
0.00399227
0.003989
0.00398649
0.00398461
0.00398338
0.00398227
0.00398088
0.00397953
0.00397834
0.00397726
0.00397646
0.00397591
0.00397535
0.00397476
0.00397435
0.0039741
0.00397384
0.00397354
0.00397331
0.00397319
0.0039731
0.00397298
0.00397289
0.00397284
0.00397274
0.00397259
0.00397247
0.00397238
0.00397229
0.0039722
0.00397212
0.00397206
0.00397203
0.00397202
0.003972
0.00397196
0.00397192
0.0039719
0.00397191
0.00397195
0.0128766
0.0461836
0.042064
0.0170995
0.00728155
0.00514823
0.00458986
0.00438372
0.00427606
0.00420498
0.004153
0.00411282
0.00408206
0.00405858
0.00403995
0.00402588
0.00401611
0.00400867
0.0040027
0.00399844
0.00399494
0.00399166
0.00398894
0.00398704
0.00398592
0.00398474
0.00398294
0.00398103
0.00397942
0.00397807
0.003977
0.00397622
0.00397564
0.00397514
0.00397471
0.00397437
0.00397408
0.00397378
0.00397353
0.00397337
0.00397323
0.00397306