/*--------------------------------*- C++ -*----------------------------------*\
| =========                 |                                                 |
| \\      /  F ield         | OpenFOAM: The Open Source CFD Toolbox           |
|  \\    /   O peration     | Version:  v1912                                 |
|   \\  /    A nd           | Website:  www.openfoam.com                      |
|    \\/     M anipulation  |                                                 |
\*---------------------------------------------------------------------------*/
FoamFile
{
    version     2.0;
    format      ascii;
    class       volScalarField;
    location    "4";
    object      nut;
}
// * * * * * * * * * * * * * * * * * * * * * * * * * * * * * * * * * * * * * //

dimensions      [0 2 -1 0 0 0 0];


internalField   nonuniform List<scalar> 
20320
(
0.0348438
0.00763416
0.00773106
0.00786311
0.00905357
0.0176864
0.0352604
0.0556295
0.0740366
0.0879773
0.0964375
0.0991224
0.0957133
0.0856552
0.0686525
0.0459553
0.0226039
0.00903813
0.00730713
0.00707018
0.0336213
0.0299373
0.0193557
0.125893
0.403905
0.741762
1.06029
1.32785
1.52828
1.65781
1.72457
1.74245
1.72003
1.65252
1.52337
1.31589
1.02734
0.669935
0.259091
0.0360701
0.014962
0.0582185
0.333015
0.769105
1.22578
1.64712
2.01315
2.31573
2.55151
2.71989
2.82234
2.86121
2.83777
2.75086
2.59702
2.37202
2.07163
1.68934
1.20562
0.496284
0.0843663
0.350281
0.897305
1.47304
2.00772
2.48004
2.88287
3.21404
3.47345
3.66196
3.78071
3.83048
3.81106
3.72047
3.55433
3.3044
2.95456
2.46887
1.7561
0.617965
0.283036
0.782664
1.48268
2.14218
2.73252
3.24626
3.68185
4.03974
4.32108
4.527
4.65818
4.71427
4.69329
4.59058
4.39722
4.09676
3.65859
3.0246
2.08761
0.716694
0.586573
1.25324
2.05276
2.77346
3.40803
3.95646
4.42033
4.80147
5.10141
5.32099
5.46
5.5166
5.48646
5.36153
5.12783
4.76178
4.22408
3.45022
2.34111
0.801491
0.957623
1.73502
2.60542
3.37332
4.04352
4.62047
5.10764
5.50753
5.82159
6.0501
6.19169
6.24282
6.19679
6.04238
5.7616
5.32646
4.69406
3.80015
2.55406
0.874209
1.37205
2.22192
3.1443
3.94885
4.64738
5.24704
5.75239
6.16617
6.48957
6.72209
6.8612
6.90174
6.83494
6.64707
6.31748
5.81576
5.09789
4.10124
2.74018
0.93747
1.81586
2.71295
3.67367
4.50644
5.22696
5.84397
6.36258
6.78553
7.1136
7.34555
7.47778
7.50373
7.41299
7.19004
6.81249
6.24867
5.45433
4.36806
2.90659
0.993359
2.28023
3.20798
4.19683
5.051
5.78812
6.41771
6.94511
7.3729
7.70143
7.92879
8.05047
8.05881
7.94218
7.68378
7.26013
6.63882
5.77549
4.60932
3.05769
1.04339
2.75777
3.70602
4.71528
5.58539
6.33465
6.97282
7.50521
7.93415
8.25959
8.47902
8.58723
8.57574
8.43201
8.13839
7.67062
6.99583
6.06944
4.83065
3.19644
1.08864
3.24001
4.20368
5.2275
6.10931
6.86729
7.51103
8.04558
8.47295
8.79263
9.00165
9.09426
9.06137
8.88986
8.56147
8.05145
7.32648
6.34168
5.0358
3.3249
1.1299
3.71625
4.69432
5.72832
6.61879
7.38327
8.03085
8.56606
8.99039
9.30288
9.50009
9.57587
9.52076
9.32126
8.95875
8.40813
7.63571
6.59617
5.22756
3.44464
1.16775
4.17331
5.16787
6.2088
7.10604
7.87617
8.52742
9.06345
9.48497
9.79037
9.97574
10.0346
9.95729
9.73016
9.33446
8.74488
7.92742
6.8362
5.40836
3.55721
1.20276
4.59721
5.61166
6.65721
7.56041
8.33676
8.99325
9.53218
9.95304
10.2533
10.4283
10.4715
10.373
10.1194
9.69197
9.06535
8.20527
7.0652
5.58112
3.66463
1.23562
4.97573
6.01295
7.06137
7.9706
8.7551
9.42013
9.966
10.3903
10.6891
10.857
10.887
10.7696
10.4916
10.0347
9.37355
8.47376
7.28794
5.75045
3.77049
1.26753
5.30174
6.36183
7.41152
8.32738
9.12297
9.80131
10.3598
10.7933
11.0958
11.2611
11.2819
11.1489
10.8496
10.3664
9.67447
8.739
7.51156
5.92406
3.88158
1.30097
5.57618
6.65447
7.70338
8.62643
9.43657
10.1338
10.7115
11.1609
11.4733
11.6413
11.6574
11.5131
11.1969
10.692
9.97443
9.00925
7.7465
6.11434
4.01038
1.34145
5.81091
6.89599
7.9408
8.87076
9.69857
10.4202
11.0237
11.4955
11.8238
11.9998
12.0161
11.8653
11.5372
11.0167
10.2808
9.29466
8.00641
6.33859
4.17628
1.40085
6.03038
7.10248
8.13737
9.07203
9.9192
10.6695
11.3038
11.8029
12.1516
12.3399
12.3609
12.2084
11.8743
11.3457
10.6011
9.60672
8.30871
6.62153
4.4073
1.50107
0.00265905
0.00142321
0.00142659
0.00142985
0.00143277
0.00143519
0.00143707
0.00143859
0.00143966
0.00144037
0.00144071
0.00144077
0.00144069
0.00144034
0.00143972
0.00143903
0.00143814
0.00143707
0.00143607
0.00143498
0.00143393
0.00143289
0.00143186
0.00143081
0.00142974
0.00142859
0.00142757
0.00142653
0.00142545
0.00142451
0.00142356
0.00142262
0.00142178
0.00142101
0.0014203
0.00141965
0.00141897
0.00141843
0.00141784
0.00141717
0.00141661
0.00141601
0.00141535
0.00141478
0.00141414
0.00141353
0.00141296
0.00141239
0.0014118
0.0014112
0.00141055
0.00141005
0.00140951
0.00140892
0.00140847
0.00140797
0.00140746
0.00140695
0.00140644
0.00140593
0.00270092
0.0189509
0.0199128
0.0198302
0.0197554
0.0196898
0.0196312
0.0195796
0.0195355
0.0194981
0.0194652
0.0194331
0.0193925
0.0193547
0.0193199
0.0192826
0.0192526
0.0192291
0.0192159
0.0192149
0.0192241
0.0192313
0.019235
0.0192318
0.019227
0.0192253
0.01923
0.0192458
0.0192562
0.0192648
0.0192736
0.0192821
0.0192999
0.0193178
0.0193311
0.0193422
0.0193491
0.0193559
0.0193612
0.0193608
0.0193611
0.0193671
0.019371
0.0193696
0.0193704
0.0193779
0.0193861
0.0193898
0.0193903
0.0193915
0.0193959
0.0194025
0.0194089
0.0194145
0.0194192
0.019423
0.0194256
0.0194269
0.0194252
0.0194113
0.00271974
0.0270079
0.0325686
0.0326567
0.0326023
0.0325555
0.032516
0.0324826
0.0324552
0.032433
0.032415
0.0324002
0.0323814
0.0323632
0.0323465
0.0323271
0.0323096
0.0322948
0.0322853
0.0322827
0.0322865
0.0322901
0.032291
0.0322875
0.0322815
0.0322775
0.0322783
0.032286
0.0322927
0.0322964
0.0322982
0.0323002
0.0323073
0.0323155
0.032321
0.0323246
0.0323265
0.0323289
0.032331
0.03233
0.0323287
0.0323304
0.0323323
0.0323316
0.0323308
0.0323327
0.0323359
0.0323375
0.0323373
0.0323373
0.0323386
0.032341
0.0323434
0.0323454
0.0323469
0.032348
0.0323487
0.0323487
0.0323476
0.0323424
0.00273842
0.0277561
0.0347478
0.0349822
0.0349462
0.0349136
0.0348879
0.034868
0.0348532
0.0348425
0.0348354
0.0348312
0.0348281
0.0348259
0.0348244
0.0348225
0.0348205
0.0348185
0.0348174
0.0348175
0.034819
0.0348204
0.0348208
0.0348196
0.0348173
0.0348154
0.0348148
0.034816
0.0348172
0.0348174
0.0348169
0.0348166
0.0348175
0.034819
0.03482
0.0348203
0.0348204
0.0348206
0.0348208
0.0348203
0.0348198
0.03482
0.0348204
0.0348204
0.0348202
0.0348203
0.0348208
0.034821
0.034821
0.0348209
0.034821
0.0348214
0.0348216
0.0348218
0.0348219
0.0348219
0.034822
0.0348221
0.034822
0.0348215
0.00275653
0.0278806
0.0348899
0.0351428
0.0351122
0.0350834
0.0350611
0.0350445
0.0350327
0.0350245
0.0350195
0.035017
0.0350161
0.0350163
0.0350169
0.0350176
0.0350182
0.0350188
0.0350197
0.0350208
0.035022
0.0350224
0.0350218
0.0350204
0.0350189
0.0350177
0.0350172
0.0350174
0.0350178
0.0350177
0.0350171
0.0350164
0.0350163
0.0350168
0.0350174
0.0350177
0.0350178
0.0350178
0.0350177
0.0350172
0.0350166
0.0350166
0.035017
0.035017
0.0350168
0.0350167
0.0350169
0.035017
0.0350169
0.0350168
0.0350168
0.0350169
0.0350169
0.0350168
0.0350167
0.0350166
0.0350167
0.0350167
0.0350167
0.0350167
0.0027752
0.0280302
0.0348975
0.0351399
0.0351116
0.035085
0.0350646
0.0350496
0.035039
0.0350317
0.0350272
0.0350248
0.0350239
0.035024
0.0350247
0.0350257
0.0350268
0.035028
0.0350291
0.0350299
0.0350298
0.0350289
0.0350276
0.0350266
0.035026
0.0350257
0.0350254
0.0350251
0.0350251
0.0350253
0.0350254
0.0350251
0.0350247
0.0350247
0.0350252
0.0350258
0.0350262
0.0350262
0.035026
0.0350255
0.0350251
0.0350251
0.0350253
0.0350252
0.035025
0.0350249
0.0350251
0.0350253
0.0350252
0.035025
0.035025
0.0350251
0.035025
0.0350249
0.0350249
0.0350249
0.035025
0.035025
0.0350249
0.0350248
0.00279459
0.0281236
0.0349017
0.0351344
0.0351082
0.0350834
0.0350641
0.0350499
0.0350397
0.0350325
0.0350279
0.0350253
0.0350242
0.0350242
0.0350251
0.0350263
0.0350276
0.0350287
0.0350293
0.0350292
0.0350283
0.035027
0.0350259
0.0350253
0.0350253
0.0350254
0.0350251
0.0350247
0.0350244
0.0350246
0.0350252
0.0350256
0.0350255
0.0350251
0.0350252
0.0350257
0.0350262
0.0350263
0.0350262
0.035026
0.0350258
0.0350257
0.0350256
0.0350254
0.0350252
0.0350253
0.0350255
0.0350256
0.0350255
0.0350254
0.0350253
0.0350253
0.0350253
0.0350252
0.0350252
0.0350253
0.0350254
0.0350253
0.0350252
0.0350251
0.00281422
0.0281753
0.0348981
0.0351261
0.0351026
0.0350799
0.035062
0.0350486
0.0350388
0.035032
0.0350277
0.0350253
0.0350243
0.0350244
0.0350252
0.0350263
0.0350273
0.0350279
0.0350279
0.0350275
0.0350269
0.0350262
0.0350255
0.0350249
0.0350246
0.0350244
0.0350243
0.0350242
0.0350241
0.0350242
0.0350247
0.0350253
0.0350258
0.0350258
0.0350256
0.0350255
0.0350257
0.0350259
0.0350261
0.0350262
0.0350262
0.035026
0.0350256
0.0350254
0.0350254
0.0350255
0.0350256
0.0350256
0.0350256
0.0350256
0.0350255
0.0350253
0.0350253
0.0350253
0.0350254
0.0350255
0.0350256
0.0350254
0.0350253
0.0350252
0.0028334
0.0282691
0.034895
0.0351166
0.0350953
0.0350745
0.035058
0.0350456
0.0350367
0.0350308
0.0350273
0.0350254
0.0350247
0.0350246
0.035025
0.0350256
0.0350262
0.0350265
0.0350264
0.0350263
0.0350262
0.035026
0.0350256
0.0350249
0.0350241
0.0350236
0.0350235
0.0350238
0.0350241
0.0350242
0.0350244
0.035025
0.0350258
0.0350263
0.0350261
0.0350255
0.0350252
0.0350255
0.035026
0.0350264
0.0350264
0.0350262
0.0350258
0.0350256
0.0350256
0.0350257
0.0350257
0.0350257
0.0350257
0.0350257
0.0350256
0.0350254
0.0350253
0.0350254
0.0350255
0.0350257
0.0350257
0.0350255
0.0350254
0.0350253
0.00285281
0.0284042
0.0349022
0.035113
0.0350929
0.0350733
0.0350576
0.0350459
0.0350374
0.0350318
0.0350284
0.0350265
0.0350256
0.0350251
0.035025
0.035025
0.0350252
0.0350254
0.0350256
0.0350256
0.0350257
0.0350255
0.0350251
0.0350246
0.035024
0.0350235
0.0350234
0.0350235
0.0350239
0.0350242
0.0350245
0.035025
0.0350256
0.0350262
0.0350263
0.0350257
0.0350252
0.0350253
0.0350258
0.0350262
0.0350263
0.0350262
0.0350261
0.035026
0.0350259
0.0350258
0.0350257
0.0350258
0.0350259
0.0350258
0.0350256
0.0350254
0.0350254
0.0350255
0.0350257
0.0350258
0.0350257
0.0350256
0.0350255
0.0350254
0.00287261
0.0284922
0.034913
0.0351146
0.0350952
0.0350766
0.0350616
0.0350501
0.0350415
0.0350354
0.0350314
0.0350288
0.0350272
0.0350262
0.0350256
0.0350252
0.0350249
0.0350248
0.0350249
0.0350249
0.0350248
0.0350246
0.0350243
0.0350241
0.0350239
0.0350238
0.0350236
0.0350236
0.0350238
0.0350244
0.0350249
0.0350253
0.0350254
0.0350256
0.0350259
0.0350259
0.0350257
0.0350256
0.0350256
0.0350258
0.0350261
0.0350264
0.0350264
0.0350263
0.0350261
0.0350259
0.0350258
0.0350259
0.0350259
0.0350258
0.0350257
0.0350255
0.0350256
0.0350257
0.0350258
0.0350258
0.0350258
0.0350257
0.0350256
0.0350255
0.00289357
0.0285119
0.0349161
0.0351144
0.0350963
0.0350789
0.0350649
0.0350538
0.0350453
0.0350391
0.0350346
0.0350314
0.0350292
0.0350277
0.0350267
0.0350258
0.035025
0.0350245
0.0350242
0.035024
0.0350239
0.0350237
0.0350236
0.0350236
0.0350238
0.0350239
0.035024
0.035024
0.0350243
0.0350247
0.0350251
0.0350253
0.0350251
0.0350251
0.0350255
0.0350261
0.0350262
0.0350259
0.0350255
0.0350254
0.0350259
0.0350265
0.0350267
0.0350266
0.0350263
0.0350261
0.035026
0.035026
0.0350259
0.0350258
0.0350257
0.0350257
0.0350257
0.0350258
0.0350258
0.0350258
0.0350258
0.0350257
0.0350257
0.0350256
0.0029139
0.0285347
0.0349126
0.0351097
0.0350939
0.0350783
0.0350656
0.0350553
0.0350474
0.0350414
0.0350369
0.0350336
0.035031
0.0350291
0.0350277
0.0350265
0.0350254
0.0350245
0.0350238
0.0350233
0.0350231
0.035023
0.0350231
0.0350233
0.0350236
0.0350239
0.0350243
0.0350246
0.035025
0.0350252
0.0350252
0.035025
0.035025
0.0350251
0.0350255
0.035026
0.0350262
0.035026
0.0350256
0.0350255
0.0350258
0.0350264
0.0350267
0.0350266
0.0350265
0.0350265
0.0350262
0.035026
0.0350259
0.0350258
0.0350258
0.0350259
0.0350259
0.0350259
0.0350259
0.0350259
0.0350258
0.0350258
0.0350257
0.0350258
0.00293547
0.0286006
0.0349091
0.0351031
0.0350901
0.0350769
0.0350659
0.0350568
0.0350495
0.0350437
0.0350392
0.0350356
0.0350326
0.0350303
0.0350285
0.035027
0.0350258
0.0350247
0.0350238
0.0350233
0.035023
0.0350229
0.0350229
0.0350231
0.0350235
0.035024
0.0350246
0.0350251
0.0350253
0.0350253
0.0350251
0.035025
0.0350252
0.0350254
0.0350256
0.0350257
0.0350258
0.0350259
0.035026
0.0350259
0.035026
0.0350262
0.0350265
0.0350266
0.0350267
0.0350267
0.0350264
0.035026
0.0350258
0.0350259
0.035026
0.0350261
0.0350261
0.035026
0.035026
0.0350259
0.0350258
0.0350258
0.0350258
0.0350259
0.00295738
0.0287192
0.0349086
0.035097
0.0350869
0.035076
0.0350664
0.0350582
0.0350513
0.0350455
0.0350408
0.035037
0.0350338
0.0350313
0.0350291
0.0350274
0.0350261
0.0350251
0.0350244
0.0350239
0.0350236
0.0350233
0.0350231
0.0350232
0.0350236
0.0350242
0.0350248
0.0350251
0.0350251
0.0350251
0.0350252
0.0350254
0.0350256
0.0350257
0.0350255
0.0350254
0.0350255
0.0350259
0.0350263
0.0350264
0.0350262
0.0350261
0.0350263
0.0350266
0.0350268
0.0350268
0.0350265
0.0350261
0.0350259
0.0350259
0.0350261
0.0350262
0.0350262
0.0350261
0.035026
0.035026
0.0350259
0.0350258
0.0350258
0.035026
0.00297864
0.0289116
0.034918
0.0350968
0.0350887
0.0350786
0.0350691
0.0350606
0.0350533
0.0350471
0.0350421
0.0350382
0.035035
0.0350326
0.0350306
0.0350288
0.0350275
0.0350266
0.0350259
0.0350253
0.0350246
0.0350241
0.0350237
0.0350237
0.035024
0.0350243
0.0350245
0.0350247
0.0350248
0.0350251
0.0350255
0.0350259
0.0350259
0.0350257
0.0350254
0.0350253
0.0350256
0.0350261
0.0350265
0.0350266
0.0350263
0.0350261
0.0350263
0.0350266
0.0350267
0.0350267
0.0350266
0.0350263
0.0350261
0.0350261
0.0350262
0.0350263
0.0350263
0.0350262
0.0350261
0.035026
0.0350259
0.0350258
0.0350259
0.035026
0.00299952
0.0291337
0.0349441
0.03511
0.0351014
0.03509
0.0350788
0.0350688
0.0350601
0.0350528
0.0350469
0.0350422
0.0350385
0.0350358
0.0350336
0.0350318
0.0350303
0.0350289
0.0350276
0.0350264
0.0350255
0.0350248
0.0350244
0.0350244
0.0350244
0.0350243
0.0350242
0.0350244
0.0350249
0.0350254
0.0350258
0.0350259
0.0350258
0.0350256
0.0350255
0.0350256
0.035026
0.0350263
0.0350264
0.0350265
0.0350265
0.0350264
0.0350264
0.0350265
0.0350265
0.0350266
0.0350266
0.0350265
0.0350263
0.0350262
0.0350263
0.0350263
0.0350264
0.0350263
0.0350262
0.0350261
0.035026
0.0350259
0.0350259
0.0350261
0.00302077
0.0292798
0.0349818
0.0351375
0.0351264
0.0351119
0.0350978
0.0350852
0.0350743
0.035065
0.0350573
0.0350508
0.0350455
0.0350412
0.0350376
0.0350346
0.035032
0.0350299
0.0350282
0.0350271
0.0350263
0.0350257
0.0350252
0.0350249
0.0350247
0.0350246
0.0350245
0.0350247
0.0350251
0.0350255
0.0350256
0.0350256
0.0350256
0.0350258
0.0350261
0.0350262
0.0350264
0.0350264
0.0350263
0.0350265
0.0350267
0.0350267
0.0350265
0.0350263
0.0350263
0.0350265
0.0350267
0.0350267
0.0350266
0.0350264
0.0350263
0.0350264
0.0350264
0.0350264
0.0350262
0.0350261
0.035026
0.0350259
0.035026
0.0350261
0.00304302
0.0292667
0.0350133
0.0351683
0.0351556
0.0351386
0.0351214
0.0351052
0.0350908
0.0350782
0.0350675
0.0350587
0.0350512
0.0350451
0.0350399
0.0350357
0.0350325
0.0350301
0.0350285
0.0350277
0.0350272
0.0350267
0.0350261
0.0350256
0.0350253
0.0350252
0.0350252
0.0350252
0.0350252
0.0350252
0.0350252
0.0350254
0.0350256
0.0350261
0.0350266
0.0350267
0.0350265
0.0350264
0.0350265
0.0350266
0.0350268
0.0350267
0.0350264
0.0350263
0.0350263
0.0350265
0.0350267
0.0350268
0.0350267
0.0350265
0.0350264
0.0350265
0.0350265
0.0350264
0.0350263
0.0350261
0.035026
0.035026
0.035026
0.0350261
0.0030664
0.0291607
0.0350242
0.0351867
0.0351747
0.0351573
0.0351384
0.0351196
0.0351018
0.0350857
0.0350718
0.0350606
0.0350518
0.0350451
0.03504
0.0350362
0.0350334
0.0350313
0.0350298
0.0350287
0.035028
0.0350275
0.035027
0.0350265
0.0350261
0.0350258
0.0350256
0.0350255
0.0350253
0.0350251
0.0350252
0.0350255
0.035026
0.0350264
0.0350268
0.0350268
0.0350267
0.0350267
0.0350268
0.0350269
0.0350268
0.0350266
0.0350263
0.0350263
0.0350265
0.0350266
0.0350267
0.0350267
0.0350267
0.0350267
0.0350266
0.0350265
0.0350265
0.0350264
0.0350263
0.0350261
0.0350261
0.035026
0.035026
0.0350261
0.00309038
0.0291232
0.0350287
0.035194
0.0351816
0.0351639
0.0351445
0.0351249
0.0351064
0.0350894
0.0350745
0.0350623
0.0350528
0.0350459
0.035041
0.0350375
0.035035
0.035033
0.0350314
0.03503
0.0350288
0.0350279
0.0350275
0.0350272
0.0350268
0.0350263
0.0350259
0.0350256
0.0350255
0.0350254
0.0350256
0.0350259
0.0350263
0.0350265
0.0350267
0.0350269
0.035027
0.0350271
0.0350272
0.035027
0.0350267
0.0350264
0.0350263
0.0350265
0.0350267
0.0350267
0.0350266
0.0350267
0.0350268
0.0350268
0.0350267
0.0350266
0.0350265
0.0350264
0.0350263
0.0350262
0.0350261
0.0350261
0.0350261
0.0350261
0.00311605
0.029166
0.0350497
0.0352095
0.0351926
0.035172
0.0351509
0.0351305
0.035112
0.0350954
0.0350809
0.0350687
0.0350586
0.0350506
0.0350446
0.03504
0.0350365
0.0350339
0.035032
0.0350306
0.0350295
0.0350286
0.0350279
0.0350276
0.0350272
0.0350268
0.0350264
0.035026
0.0350259
0.0350261
0.0350262
0.0350263
0.0350264
0.0350265
0.0350267
0.0350271
0.0350274
0.0350275
0.0350274
0.035027
0.0350266
0.0350265
0.0350265
0.0350266
0.0350268
0.0350267
0.0350266
0.0350266
0.0350268
0.0350269
0.0350268
0.0350266
0.0350265
0.0350264
0.0350262
0.0350262
0.0350261
0.0350261
0.0350261
0.0350262
0.00314185
0.0291679
0.0350774
0.0352329
0.035211
0.0351867
0.035163
0.0351408
0.0351208
0.0351031
0.0350879
0.035075
0.0350643
0.0350554
0.0350483
0.0350426
0.0350381
0.0350347
0.0350323
0.0350309
0.0350301
0.0350294
0.0350288
0.0350282
0.0350277
0.0350274
0.0350271
0.0350268
0.0350267
0.0350267
0.0350267
0.0350266
0.0350266
0.0350267
0.035027
0.0350275
0.0350277
0.0350275
0.0350272
0.035027
0.0350268
0.0350267
0.0350267
0.0350267
0.0350267
0.0350267
0.0350267
0.0350267
0.0350269
0.0350269
0.0350268
0.0350266
0.0350265
0.0350264
0.0350262
0.0350262
0.0350262
0.0350262
0.0350261
0.0350262
0.00316827
0.0291394
0.0350971
0.0352513
0.0352255
0.0351981
0.0351718
0.0351472
0.0351255
0.0351064
0.0350901
0.0350763
0.0350651
0.0350561
0.0350494
0.0350442
0.0350402
0.0350369
0.0350343
0.0350325
0.0350313
0.0350306
0.03503
0.0350293
0.0350286
0.035028
0.0350278
0.0350277
0.0350275
0.0350272
0.035027
0.0350269
0.035027
0.0350272
0.0350274
0.0350277
0.0350278
0.0350274
0.0350272
0.0350271
0.0350271
0.0350271
0.035027
0.0350267
0.0350266
0.0350266
0.0350268
0.0350269
0.0350269
0.0350269
0.0350268
0.0350266
0.0350265
0.0350264
0.0350262
0.0350262
0.0350262
0.0350262
0.0350262
0.0350262
0.00319602
0.0291518
0.0351259
0.0352769
0.0352453
0.0352123
0.0351804
0.0351511
0.0351261
0.0351055
0.035089
0.0350759
0.0350653
0.0350569
0.0350505
0.035046
0.0350428
0.0350403
0.035038
0.0350358
0.0350337
0.0350321
0.035031
0.0350302
0.0350296
0.035029
0.0350285
0.0350284
0.0350282
0.0350278
0.0350275
0.0350275
0.0350276
0.0350278
0.0350278
0.0350277
0.0350277
0.0350275
0.0350273
0.0350274
0.0350275
0.0350274
0.0350271
0.0350267
0.0350265
0.0350266
0.0350269
0.0350271
0.035027
0.0350269
0.0350267
0.0350266
0.0350264
0.0350263
0.0350262
0.0350262
0.0350262
0.0350262
0.0350262
0.0350262
0.00322505
0.0291524
0.0351811
0.0353291
0.0352893
0.0352475
0.0352067
0.035169
0.0351372
0.035112
0.0350929
0.0350791
0.035069
0.0350612
0.035055
0.0350503
0.0350465
0.0350435
0.035041
0.0350386
0.0350362
0.0350338
0.035032
0.0350308
0.0350303
0.0350299
0.0350294
0.035029
0.0350288
0.0350286
0.0350283
0.0350282
0.0350282
0.0350282
0.035028
0.0350278
0.0350278
0.0350278
0.0350278
0.0350277
0.0350277
0.0350275
0.0350272
0.0350268
0.0350266
0.0350267
0.035027
0.0350271
0.035027
0.0350269
0.0350267
0.0350265
0.0350264
0.0350263
0.0350263
0.0350262
0.0350262
0.0350262
0.0350262
0.0350262
0.003256
0.0290706
0.0352442
0.035395
0.0353475
0.0352986
0.0352508
0.0352055
0.035166
0.0351339
0.0351089
0.0350906
0.0350774
0.0350679
0.0350609
0.0350554
0.0350505
0.0350463
0.0350428
0.03504
0.0350379
0.0350358
0.0350339
0.0350323
0.0350313
0.0350308
0.0350304
0.03503
0.0350297
0.0350295
0.0350293
0.0350288
0.0350285
0.0350284
0.0350282
0.0350281
0.0350281
0.0350283
0.0350283
0.035028
0.0350277
0.0350275
0.0350273
0.035027
0.0350268
0.0350268
0.035027
0.035027
0.035027
0.0350268
0.0350267
0.0350265
0.0350264
0.0350263
0.0350263
0.0350262
0.0350262
0.0350261
0.0350261
0.0350262
0.00328795
0.0289737
0.0353006
0.0354523
0.0353938
0.0353376
0.035285
0.035237
0.0351947
0.0351595
0.0351306
0.035108
0.03509
0.0350763
0.0350663
0.0350591
0.0350538
0.0350493
0.0350454
0.0350422
0.03504
0.0350382
0.0350365
0.0350348
0.0350331
0.0350321
0.0350315
0.0350311
0.0350307
0.0350303
0.0350299
0.0350293
0.0350289
0.0350288
0.0350289
0.0350288
0.0350287
0.0350287
0.0350286
0.0350281
0.0350277
0.0350274
0.0350274
0.0350273
0.0350271
0.035027
0.0350269
0.0350269
0.0350269
0.0350269
0.0350267
0.0350265
0.0350263
0.0350263
0.0350263
0.0350262
0.0350261
0.0350261
0.0350261
0.0350262
0.00332262
0.0289165
0.0353802
0.0355218
0.0354421
0.035369
0.0353046
0.03525
0.0352051
0.0351698
0.0351417
0.0351196
0.0351014
0.0350862
0.0350739
0.0350647
0.0350582
0.0350533
0.0350496
0.0350463
0.0350436
0.0350412
0.035039
0.0350371
0.0350353
0.0350339
0.0350329
0.0350323
0.0350316
0.0350309
0.0350304
0.03503
0.0350297
0.0350296
0.0350297
0.0350296
0.0350292
0.0350288
0.0350286
0.0350283
0.0350279
0.0350276
0.0350276
0.0350276
0.0350274
0.0350271
0.0350268
0.0350267
0.0350268
0.0350269
0.0350268
0.0350266
0.0350263
0.0350262
0.0350262
0.0350262
0.0350261
0.035026
0.035026
0.0350261
0.0033597
0.0288134
0.0355014
0.0356314
0.0355225
0.035424
0.0353398
0.0352715
0.0352185
0.0351787
0.035149
0.0351273
0.0351109
0.0350971
0.0350855
0.0350755
0.0350671
0.0350601
0.0350549
0.0350508
0.0350474
0.0350443
0.0350414
0.0350392
0.0350374
0.0350358
0.0350345
0.0350334
0.0350323
0.0350315
0.0350312
0.035031
0.0350309
0.0350307
0.0350306
0.0350302
0.0350296
0.0350289
0.0350286
0.0350285
0.0350283
0.0350279
0.0350277
0.0350277
0.0350275
0.0350272
0.0350268
0.0350266
0.0350267
0.0350269
0.0350269
0.0350266
0.0350263
0.0350262
0.0350261
0.0350261
0.0350261
0.035026
0.035026
0.0350261
0.00340008
0.0286641
0.0356463
0.0357646
0.0356205
0.0354954
0.0353936
0.0353141
0.0352543
0.035209
0.035174
0.0351474
0.0351275
0.0351117
0.0350991
0.0350884
0.0350787
0.0350693
0.0350614
0.0350554
0.0350509
0.0350475
0.0350444
0.0350419
0.0350398
0.0350378
0.0350361
0.0350347
0.0350335
0.0350327
0.0350324
0.0350324
0.0350323
0.0350318
0.0350311
0.0350305
0.0350298
0.0350291
0.0350288
0.0350288
0.0350287
0.0350283
0.0350279
0.0350277
0.0350275
0.0350272
0.0350268
0.0350266
0.0350266
0.0350268
0.0350269
0.0350267
0.0350264
0.0350262
0.0350261
0.035026
0.035026
0.0350259
0.0350259
0.035026
0.00344411
0.0285212
0.0358135
0.0359068
0.0357151
0.0355582
0.03544
0.0353545
0.0352944
0.0352497
0.0352129
0.0351812
0.0351547
0.0351322
0.0351142
0.0351002
0.0350888
0.0350784
0.035069
0.0350615
0.0350558
0.0350518
0.0350484
0.0350456
0.035043
0.0350405
0.0350382
0.0350366
0.0350355
0.0350346
0.035034
0.0350339
0.0350336
0.0350327
0.0350315
0.0350307
0.0350301
0.0350296
0.0350293
0.0350291
0.0350291
0.0350287
0.035028
0.0350276
0.0350274
0.0350272
0.0350269
0.0350267
0.0350267
0.0350267
0.0350268
0.0350267
0.0350264
0.0350261
0.035026
0.035026
0.0350259
0.0350258
0.0350258
0.0350258
0.00349301
0.0284717
0.0360429
0.0360838
0.0358253
0.0356285
0.0354904
0.0353953
0.0353316
0.0352863
0.035249
0.0352152
0.0351845
0.0351564
0.0351322
0.0351135
0.0350996
0.035088
0.0350779
0.0350695
0.0350628
0.0350577
0.0350534
0.0350498
0.0350469
0.0350439
0.0350411
0.035039
0.0350379
0.0350369
0.0350358
0.0350349
0.0350344
0.0350334
0.035032
0.0350311
0.0350306
0.0350303
0.0350299
0.0350294
0.0350292
0.0350288
0.0350282
0.0350276
0.0350274
0.0350272
0.0350271
0.0350269
0.0350268
0.0350267
0.0350267
0.0350266
0.0350264
0.0350261
0.0350259
0.0350259
0.0350258
0.0350257
0.0350257
0.0350257
0.00354761
0.0286003
0.036409
0.0363441
0.0359879
0.0357425
0.0355825
0.0354731
0.0353957
0.0353384
0.0352915
0.0352506
0.0352155
0.0351841
0.0351559
0.0351328
0.0351152
0.0351012
0.0350892
0.0350791
0.0350708
0.0350643
0.0350588
0.0350542
0.0350509
0.0350478
0.0350447
0.035042
0.0350403
0.035039
0.0350374
0.0350359
0.0350349
0.0350341
0.035033
0.0350319
0.0350313
0.035031
0.0350304
0.0350297
0.0350291
0.0350289
0.0350284
0.0350278
0.0350274
0.0350273
0.0350272
0.0350271
0.0350269
0.0350266
0.0350265
0.0350265
0.0350263
0.035026
0.0350258
0.0350258
0.0350257
0.0350256
0.0350256
0.0350256
0.00362019
0.028952
0.0370119
0.0367657
0.0362673
0.0359573
0.0357641
0.0356283
0.0355226
0.0354379
0.0353671
0.0353067
0.0352581
0.0352193
0.0351868
0.0351594
0.0351369
0.0351184
0.0351026
0.0350898
0.0350793
0.0350711
0.0350645
0.0350592
0.0350554
0.0350523
0.0350488
0.0350453
0.0350426
0.0350407
0.035039
0.0350372
0.0350358
0.035035
0.0350341
0.0350329
0.035032
0.0350314
0.0350308
0.0350299
0.0350292
0.0350289
0.0350287
0.0350281
0.0350275
0.0350273
0.0350273
0.0350272
0.0350269
0.0350266
0.0350264
0.0350263
0.0350262
0.0350259
0.0350257
0.0350256
0.0350255
0.0350255
0.0350254
0.0350255
0.00381301
0.0294616
0.0379648
0.0374887
0.0367903
0.036371
0.0360974
0.0358933
0.0357288
0.0355962
0.0354867
0.035394
0.0353191
0.0352619
0.0352191
0.0351868
0.0351608
0.0351378
0.0351172
0.0351009
0.0350884
0.0350788
0.0350713
0.0350651
0.0350607
0.0350571
0.0350531
0.0350488
0.0350451
0.0350426
0.0350409
0.0350391
0.0350372
0.035036
0.0350352
0.0350339
0.0350326
0.0350317
0.0350309
0.0350301
0.0350293
0.035029
0.035029
0.0350285
0.0350278
0.0350274
0.0350274
0.0350273
0.035027
0.0350266
0.0350263
0.0350261
0.035026
0.0350258
0.0350257
0.0350255
0.0350254
0.0350253
0.0350253
0.0350254
0.00469379
0.0286775
0.0389698
0.0389691
0.0378729
0.0371675
0.0366726
0.0363003
0.0360125
0.0357964
0.0356335
0.035503
0.0353971
0.0353137
0.0352517
0.0352092
0.0351804
0.0351566
0.0351335
0.0351138
0.0350987
0.0350877
0.0350791
0.0350719
0.0350666
0.0350623
0.0350576
0.0350527
0.0350483
0.035045
0.0350431
0.0350414
0.035039
0.0350371
0.035036
0.0350347
0.0350332
0.0350319
0.0350311
0.0350304
0.0350297
0.0350293
0.0350292
0.0350289
0.0350282
0.0350276
0.0350274
0.0350273
0.0350269
0.0350265
0.0350261
0.0350259
0.0350258
0.0350257
0.0350255
0.0350254
0.0350252
0.0350251
0.0350251
0.0350252
0.00708085
0.0356512
0.0372118
0.0416932
0.0400305
0.0385412
0.037557
0.0368738
0.0363824
0.0360331
0.0357894
0.0356134
0.0354802
0.0353755
0.0352936
0.0352352
0.0351984
0.0351734
0.0351507
0.0351295
0.0351116
0.035098
0.0350877
0.0350795
0.0350735
0.0350684
0.0350628
0.0350574
0.0350524
0.0350482
0.0350454
0.0350434
0.0350408
0.0350381
0.0350364
0.0350352
0.0350338
0.0350324
0.0350314
0.0350307
0.0350302
0.0350297
0.0350295
0.0350292
0.0350286
0.0350278
0.0350275
0.0350272
0.0350269
0.0350264
0.035026
0.0350257
0.0350256
0.0350256
0.0350254
0.0350252
0.035025
0.035025
0.035025
0.0350251
0.00942083
0.055981
0.0470664
0.0412443
0.0421219
0.0398435
0.0383108
0.0373657
0.036722
0.0362663
0.0359461
0.0357196
0.0355565
0.0354349
0.0353407
0.0352702
0.0352231
0.0351915
0.0351666
0.0351454
0.0351262
0.03511
0.0350976
0.0350883
0.0350821
0.0350766
0.0350697
0.0350629
0.0350569
0.0350516
0.0350475
0.0350448
0.035042
0.0350391
0.0350371
0.0350358
0.0350345
0.035033
0.0350319
0.0350313
0.0350307
0.0350301
0.0350297
0.0350294
0.035029
0.0350282
0.0350276
0.0350272
0.0350267
0.0350263
0.0350258
0.0350255
0.0350254
0.0350254
0.0350252
0.035025
0.0350249
0.0350248
0.0350248
0.0350249
0.0070701
0.0566506
0.0666434
0.0452154
0.0402569
0.0400825
0.0381121
0.0370887
0.0365382
0.0361799
0.0359219
0.0357248
0.0355741
0.0354582
0.0353664
0.0352968
0.0352478
0.0352104
0.0351804
0.0351587
0.0351408
0.0351246
0.0351112
0.0351016
0.0350956
0.0350892
0.0350801
0.0350706
0.0350626
0.0350559
0.0350505
0.0350466
0.0350437
0.0350412
0.035039
0.0350372
0.0350358
0.0350343
0.035033
0.0350321
0.0350314
0.0350305
0.0350298
0.0350294
0.0350291
0.0350286
0.0350277
0.0350269
0.0350263
0.0350258
0.0350255
0.0350252
0.0350251
0.0350251
0.035025
0.0350248
0.0350247
0.0350246
0.0350246
0.0350248
6.27347
7.30209
8.31691
9.25058
10.1159
10.8959
11.563
12.0914
12.4627
12.6658
12.6946
12.5448
12.2108
11.6825
10.9416
9.95716
8.67774
7.01784
4.83697
2.01857
6.60572
7.53848
8.51514
9.43617
10.3136
11.1199
11.8171
12.3729
12.7656
12.9836
13.0218
12.8782
12.5502
12.0313
11.3083
10.3572
9.13961
7.59896
5.67674
3.44949
7.12384
7.87715
8.78156
9.66879
10.5454
11.3682
12.0874
12.6638
13.0732
13.3036
13.3512
13.2164
12.8997
12.3994
11.709
10.8161
9.70361
8.36011
6.81755
5.26065
8.1286
8.4081
9.16662
9.98615
10.8411
11.6623
12.3872
12.9714
13.3883
13.6257
13.6806
13.5555
13.2544
12.7805
12.135
11.3181
10.3337
9.2037
7.9968
6.86648
10.0668
9.25813
9.72156
10.4282
11.2304
12.0211
12.727
13.2997
13.7106
13.9465
14.0046
13.8888
13.6058
13.1634
12.5699
11.8357
10.9787
10.034
9.06689
8.17318
11.1298
10.305
10.4852
11.04
11.7405
12.4579
13.1112
13.6478
14.0359
14.2597
14.3152
14.2063
13.9416
13.5322
12.9916
12.3368
11.5916
10.7912
9.98427
9.22392
12.0804
11.322
11.4296
11.8204
12.37
12.9689
13.5343
14.0089
14.3561
14.556
14.6017
14.4958
14.247
13.8681
13.3755
12.7892
12.1335
11.4376
10.7328
10.0461
13.189
12.4107
12.4327
12.6752
13.0654
13.523
13.9765
14.3689
14.6597
14.8243
14.8526
14.7443
14.5061
14.1509
13.6963
13.1621
12.5711
11.9452
11.2976
10.6429
14.1502
13.4327
13.3731
13.494
13.746
14.0699
14.4075
14.7079
14.9316
15.0518
15.0546
14.9369
14.7029
14.3641
13.9363
13.4347
12.8776
12.2821
11.6462
10.9735
14.8875
14.2712
14.16
14.1953
14.3421
14.5562
14.7912
15.0039
15.1582
15.2279
15.1974
15.0609
14.8205
14.4847
14.0647
13.5731
13.023
12.4235
11.7718
11.0672
15.4014
14.8956
14.7565
14.7368
14.8097
14.9411
15.0937
15.2313
15.3224
15.343
15.2772
15.1178
14.8645
14.5227
14.1005
13.6076
13.0532
12.4428
11.7769
11.0577
15.7101
15.3125
15.1599
15.1062
15.1293
15.2012
15.2913
15.369
15.4071
15.3841
15.285
15.102
14.8333
14.4821
14.0543
13.5571
12.9976
12.3812
11.7118
10.994
15.8348
15.5389
15.3813
15.3071
15.2972
15.3276
15.3721
15.4043
15.4004
15.3414
15.2135
15.0089
14.7254
14.3645
13.9309
13.4304
12.8694
12.2538
11.5892
10.8821
15.7963