/*--------------------------------*- C++ -*----------------------------------*\
| =========                 |                                                 |
| \\      /  F ield         | OpenFOAM: The Open Source CFD Toolbox           |
|  \\    /   O peration     | Version:  v1912                                 |
|   \\  /    A nd           | Website:  www.openfoam.com                      |
|    \\/     M anipulation  |                                                 |
\*---------------------------------------------------------------------------*/
FoamFile
{
    version     2.0;
    format      ascii;
    class       volScalarField;
    location    "4";
    object      p;
}
// * * * * * * * * * * * * * * * * * * * * * * * * * * * * * * * * * * * * * //

dimensions      [1 -1 -2 0 0 0 0];


internalField   nonuniform List<scalar> 
20320
(
344620
355137
355420
355671
355925
356165
356423
356694
357002
357329
357665
357966
358201
358372
358503
358620
358736
358849
358941
358991
324810
334944
335240
335504
335790
336077
336384
336730
337112
337510
337890
338208
338438
338581
338663
338722
338786
338860
338932
338959
305654
315456
315744
316019
316314
316629
316962
317310
317667
318021
318355
318650
318893
319085
319235
319357
319461
319553
319642
319775
287130
296625
296905
297189
297492
297809
298138
298473
298808
299134
299441
299720
299965
300175
300352
300501
300632
300761
300933
301249
269205
278413
278693
278982
279283
279595
279913
280233
280549
280854
281142
281408
281649
281863
282052
282224
282390
282581
282856
283292
251860
260796
261076
261365
261663
261968
262274
262580
262878
263166
263439
263695
263931
264148
264351
264548
264758
265014
265369
265884
235070
243744
244027
244315
244609
244906
245202
245494
245778
246053
246314
246562
246795
247017
247235
247460
247713
248024
248441
249015
218815
227238
227524
227813
228104
228394
228681
228962
229234
229497
229748
229990
230223
230453
230687
230939
231229
231588
232057
232681
203083
211261
211552
211843
212132
212417
212695
212966
213228
213480
213724
213961
214195
214431
214681
214958
215283
215683
216198
216870
187864
195804
196101
196394
196681
196960
197230
197491
197743
197986
198222
198455
198690
198934
199198
199496
199851
200288
200848
201570
173155
180859
181162
181455
181738
182009
182270
182521
182762
182996
183225
183454
183688
183937
184212
184529
184910
185382
185985
186762
158958
166423
166726
167016
167291
167553
167803
168043
168273
168497
168718
168941
169173
169424
169706
170038
170441
170945
171591
172425
145274
152489
152786
153067
153329
153578
153815
154042
154261
154475
154687
154902
155129
155377
155662
156003
156424
156956
157643
158538
132105
139047
139330
139592
139837
140068
140289
140503
140711
140915
141118
141325
141543
141784
142064
142405
142835
143389
144116
145075
119451
126087
126345
126580
126800
127010
127215
127417
127616
127813
128008
128205
128411
128638
128902
129229
129653
130217
130980
132009
107301
113592
113814
114012
114201
114390
114581
114776
114972
115166
115357
115544
115733
115934
116165
116455
116846
117396
118183
119293
95632.7
101538
101714
101867
102022
102190
102375
102573
102776
102978
103170
103350
103518
103680
103853
104068
104377
104858
105631
106840
84412.5
89896
90018.3
90117.1
90237.4
90392.3
90583
90799.9
91028.2
91252.3
91458.6
91636.5
91780.7
91891.1
91977.1
92064.5
92204.5
92495.3
93122.9
94413.7
73590.7
78634.7
78690.7
78726.6
78815.3
78971.3
79189.4
79450.1
79727.3
79995.2
80231.9
80419.5
80544.5
80596.3
80569.3
80467.1
80310.9
80169.8
80245.4
81242.8
63125.2
67723.7
67682.4
67640.5
67706.8
67891
68171.9
68512.1
68869.9
69208.1
69496.2
69709.6
69827
69826.1
69680.5
69351.6
68776.1
67852.3
66388.8
65026.4
-0.631111
1.89909
1.87488
1.84408
1.808
1.76778
1.72413
1.6775
1.62852
1.57776
1.52568
1.47254
1.41859
1.36421
1.30972
1.25528
1.20136
1.14829
1.09617
1.04513
0.995174
0.946438
0.899123
0.853287
0.808881
0.765958
0.724498
0.68457
0.646034
0.608801
0.57329
0.539775
0.508391
0.478919
0.450879
0.42402
0.398297
0.373421
0.349341
0.325971
0.303334
0.281772
0.261279
0.241571
0.222823
0.205227
0.188803
0.173459
0.159248
0.146176
0.134178
0.123131
0.113237
0.10446
0.0966377
0.0900012
0.0846475
0.0806025
0.0777603
0.0759292
-5.78653
-3.2125
-3.2357
-3.26576
-3.30128
-3.3412
-3.38465
-3.43123
-3.48027
-3.53113
-3.5833
-3.63667
-3.69087
-3.74548
-3.80051
-3.85558
-3.91018
-3.96386
-4.01625
-4.06742
-4.11763
-4.167
-4.21506
-4.26169
-4.30714
-4.3514
-4.39388
-4.43422
-4.47296
-4.51121
-4.54901
-4.58464
-4.61676
-4.64508
-4.67078
-4.69509
-4.71895
-4.74281
-4.76637
-4.7896
-4.81228
-4.83402
-4.85463
-4.87444
-4.89339
-4.91114
-4.92763
-4.94317
-4.95757
-4.97071
-4.98292
-4.99408
-5.00404
-5.01295
-5.0208
-5.02754
-5.03287
-5.037
-5.03988
-5.04174
-11.0304
-8.41271
-8.43595
-8.4657
-8.50089
-8.5406
-8.58411
-8.63074
-8.67994
-8.73096
-8.78363
-8.83748
-8.89212
-8.94733
-9.00298
-9.05851
-9.11368
-9.16789
-9.22075
-9.27225
-9.32281
-9.37251
-9.42129
-9.46899
-9.51557
-9.561
-9.60443
-9.64523
-9.68453
-9.72395
-9.7634
-9.80077
-9.8335
-9.86078
-9.88427
-9.90631
-9.92839
-9.95114
-9.97433
-9.99739
-10.02
-10.0419
-10.0628
-10.0827
-10.1017
-10.1195
-10.1363
-10.152
-10.1664
-10.1798
-10.1921
-10.2033
-10.2134
-10.2225
-10.2304
-10.2371
-10.2426
-10.2467
-10.2497
-10.2516
-16.3649
-13.7031
-13.7268
-13.7568
-13.792
-13.8319
-13.8756
-13.9225
-13.972
-14.0236
-14.0769
-14.1314
-14.1869
-14.2428
-14.2989
-14.3549
-14.4104
-14.465
-14.5187
-14.5711
-14.6221
-14.6722
-14.7216
-14.7703
-14.818
-14.8642
-14.9083
-14.9502
-14.9908
-15.0313
-15.0716
-15.1096
-15.1424
-15.1691
-15.1911
-15.2113
-15.2318
-15.2535
-15.2761
-15.299
-15.3216
-15.3435
-15.3647
-15.3847
-15.4037
-15.4217
-15.4386
-15.4544
-15.4691
-15.4826
-15.4951
-15.5063
-15.5166
-15.5257
-15.5336
-15.5404
-15.5459
-15.5501
-15.5533
-15.5553
-21.7925
-19.0855
-19.1103
-19.1408
-19.1765
-19.2167
-19.2609
-19.3083
-19.3585
-19.4108
-19.4648
-19.5202
-19.5764
-19.6329
-19.6896
-19.7459
-19.8018
-19.857
-19.9116
-19.965
-20.0171
-20.0679
-20.118
-20.1675
-20.2158
-20.2623
-20.3072
-20.3509
-20.3935
-20.435
-20.475
-20.5123
-20.5448
-20.5713
-20.5928
-20.6119
-20.631
-20.6516
-20.6735
-20.6961
-20.7186
-20.7406
-20.7619
-20.7821
-20.8012
-20.8193
-20.8363
-20.8523
-20.8671
-20.8808
-20.8934
-20.9048
-20.9151
-20.9243
-20.9322
-20.939
-20.9446
-20.949
-20.9522
-20.9544
-27.3155
-24.5626
-24.5886
-24.6201
-24.6565
-24.6974
-24.7422
-24.7904
-24.8413
-24.8944
-24.9493
-25.0054
-25.0622
-25.1193
-25.1766
-25.2335
-25.29
-25.346
-25.4012
-25.4558
-25.5093
-25.5615
-25.6124
-25.6621
-25.7106
-25.7576
-25.8036
-25.8491
-25.8937
-25.936
-25.9751
-26.0108
-26.0423
-26.0691
-26.0909
-26.1098
-26.1281
-26.1475
-26.1685
-26.1906
-26.2129
-26.235
-26.2564
-26.2767
-26.2958
-26.3141
-26.3312
-26.3473
-26.3623
-26.3762
-26.3889
-26.4004
-26.4108
-26.4201
-26.4281
-26.4349
-26.4405
-26.445
-26.4484
-26.4508
-32.9358
-30.1359
-30.1635
-30.1962
-30.2338
-30.2757
-30.3215
-30.3706
-30.4222
-30.4761
-30.5318
-30.5885
-30.6462
-30.704
-30.7619
-30.8198
-30.877
-30.9337
-30.9897
-31.0451
-31.0999
-31.1537
-31.2058
-31.2558
-31.3045
-31.3523
-31.3997
-31.4468
-31.4925
-31.5351
-31.5731
-31.6069
-31.6373
-31.6642
-31.6871
-31.7066
-31.7245
-31.7429
-31.7628
-31.7842
-31.8063
-31.8283
-31.8498
-31.8702
-31.8896
-31.9078
-31.9251
-31.9413
-31.9564
-31.9705
-31.9833
-31.995
-32.0054
-32.0147
-32.0228
-32.0296
-32.0353
-32.0399
-32.0436
-32.046
-38.6538
-35.8068
-35.8361
-35.8705
-35.9096
-35.9529
-36
-36.0502
-36.1029
-36.1576
-36.214
-36.2716
-36.33
-36.3888
-36.4477
-36.5064
-36.5647
-36.6223
-36.6792
-36.7354
-36.791
-36.8457
-36.8989
-36.9499
-36.9995
-37.0487
-37.0975
-37.1453
-37.1911
-37.2331
-37.2702
-37.3026
-37.3319
-37.3589
-37.3829
-37.4036
-37.4218
-37.4395
-37.4583
-37.4789
-37.5005
-37.5224
-37.5438
-37.5644
-37.5839
-37.6023
-37.6196
-37.636
-37.6513
-37.6654
-37.6784
-37.6901
-37.7007
-37.71
-37.7182
-37.725
-37.7308
-37.7356
-37.7394
-37.7419
-44.4705
-41.5761
-41.6075
-41.6439
-41.6849
-41.7301
-41.7789
-41.8306
-41.8846
-41.9406
-41.9981
-42.0566
-42.1158
-42.1755
-42.2355
-42.2952
-42.3547
-42.4135
-42.4716
-42.5286
-42.5847
-42.6397
-42.6938
-42.7464
-42.7979
-42.8486
-42.8985
-42.9462
-42.9909
-43.0318
-43.0682
-43.0999
-43.1285
-43.1554
-43.1804
-43.2025
-43.2216
-43.2391
-43.257
-43.2765
-43.2975
-43.3191
-43.3404
-43.3612
-43.3809
-43.3995
-43.4169
-43.4333
-43.4488
-43.463
-43.4761
-43.4879
-43.4986
-43.508
-43.5161
-43.5229
-43.5289
-43.5339
-43.5377
-43.5404
-50.3881
-47.4452
-47.4792
-47.5181
-47.5615
-47.6089
-47.6597
-47.7133
-47.7692
-47.8268
-47.8857
-47.9454
-48.0055
-48.0661
-48.1269
-48.1879
-48.2486
-48.3088
-48.368
-48.4261
-48.4827
-48.5381
-48.5929
-48.6473
-48.7008
-48.753
-48.8032
-48.8503
-48.8935
-48.9329
-48.9687
-49.0005
-49.0291
-49.0559
-49.0814
-49.105
-49.1254
-49.1432
-49.1605
-49.179
-49.1991
-49.2202
-49.2414
-49.2623
-49.2822
-49.3009
-49.3185
-49.335
-49.3505
-49.3648
-49.378
-49.39
-49.4007
-49.4101
-49.4183
-49.4253
-49.4313
-49.4364
-49.4404
-49.4431
-56.4089
-53.4167
-53.4536
-53.4953
-53.5415
-53.5915
-53.6447
-53.7005
-53.7584
-53.818
-53.8787
-53.9399
-54.0014
-54.0629
-54.1246
-54.1865
-54.2482
-54.3095
-54.3698
-54.4291
-54.4869
-54.5436
-54.5995
-54.6553
-54.7102
-54.7629
-54.8126
-54.8587
-54.9007
-54.9389
-54.9742
-55.0064
-55.0355
-55.0626
-55.0884
-55.1129
-55.1346
-55.1535
-55.1708
-55.1883
-55.2073
-55.2277
-55.2487
-55.2696
-55.2896
-55.3087
-55.3264
-55.3431
-55.3585
-55.373
-55.3863
-55.3983
-55.4091
-55.4185
-55.4268
-55.4339
-55.4401
-55.4453
-55.4493
-55.452
-62.5342
-59.4926
-59.5327
-59.5778
-59.6273
-59.6803
-59.7362
-59.7945
-59.8547
-59.9164
-59.9789
-60.0421
-60.1051
-60.1681
-60.2309
-60.2934
-60.3557
-60.4176
-60.4788
-60.5393
-60.599
-60.6577
-60.7154
-60.7723
-60.8275
-60.8798
-60.9282
-60.973
-61.0141
-61.0518
-61.087
-61.1197
-61.1498
-61.1773
-61.2034
-61.2284
-61.2514
-61.2717
-61.2893
-61.3063
-61.3243
-61.3438
-61.3643
-61.385
-61.4053
-61.4245
-61.4426
-61.4593
-61.4749
-61.4894
-61.5027
-61.5148
-61.5256
-61.5351
-61.5435
-61.5508
-61.5572
-61.5623
-61.5664
-61.5691
-68.7652
-65.6742
-65.7182
-65.7672
-65.8204
-65.8768
-65.9359
-65.9971
-66.06
-66.124
-66.1886
-66.2536
-66.3185
-66.3831
-66.4472
-66.5106
-66.5733
-66.6358
-66.6979
-66.7597
-66.8211
-66.882
-66.9414
-66.9988
-67.0536
-67.1049
-67.1522
-67.1957
-67.2362
-67.2739
-67.3092
-67.3426
-67.3737
-67.402
-67.4284
-67.4538
-67.4778
-67.4993
-67.5179
-67.5347
-67.5518
-67.5703
-67.5902
-67.6107
-67.631
-67.6505
-67.6688
-67.6857
-67.7014
-67.716
-67.7294
-67.7415
-67.7523
-67.7619
-67.7704
-67.7779
-67.7843
-67.7896
-67.7936
-67.7963
-75.103
-71.9628
-72.0113
-72.0649
-72.1223
-72.1827
-72.2457
-72.3102
-72.3759
-72.4424
-72.5094
-72.5761
-72.6428
-72.7093
-72.7748
-72.8396
-72.9035
-72.9668
-73.0301
-73.0932
-73.1559
-73.2177
-73.278
-73.3354
-73.3894
-73.44
-73.4866
-73.5293
-73.5693
-73.6072
-73.6429
-73.6769
-73.709
-73.7385
-73.7655
-73.791
-73.8157
-73.8384
-73.8582
-73.8754
-73.8919
-73.9095
-73.9286
-73.9487
-73.9688
-73.9885
-74.0071
-74.0242
-74.0401
-74.0547
-74.0681
-74.0802
-74.0912
-74.1008
-74.1094
-74.117
-74.1235
-74.1288
-74.1327
-74.1355
-81.5493
-78.3596
-78.4137
-78.4726
-78.535
-78.6002
-78.6672
-78.7356
-78.8046
-78.8739
-78.943
-79.0119
-79.0803
-79.1482
-79.2157
-79.2824
-79.3481
-79.4131
-79.4777
-79.5419
-79.6051
-79.6669
-79.7265
-79.7832
-79.8366
-79.8866
-79.9334
-79.9764
-80.0163
-80.0542
-80.0904
-80.1249
-80.1578
-80.1886
-80.2165
-80.2424
-80.2674
-80.2909
-80.3119
-80.33
-80.3465
-80.3633
-80.3814
-80.4009
-80.4208
-80.4406
-80.4594
-80.4769
-80.4929
-80.5076
-80.5211
-80.5332
-80.5441
-80.5539
-80.5627
-80.5704
-80.5769
-80.5823
-80.5861
-80.5887
-88.1056
-84.8669
-84.9274
-84.9924
-85.0607
-85.1312
-85.2029
-85.2753
-85.3479
-85.4202
-85.4918
-85.5628
-85.6333
-85.703
-85.7724
-85.8411
-85.9091
-85.976
-86.0418
-86.1065
-86.1697
-86.2307
-86.2892
-86.3449
-86.3973
-86.4471
-86.4945
-86.5386
-86.5794
-86.6177
-86.654
-86.6888
-86.7223
-86.7541
-86.7833
-86.81
-86.8352
-86.8592
-86.8814
-86.9004
-86.9173
-86.9337
-86.951
-86.9696
-86.9892
-87.0088
-87.0278
-87.0456
-87.0619
-87.0767
-87.0903
-87.1024
-87.1133
-87.1234
-87.1322
-87.14
-87.1465
-87.1518
-87.1557
-87.1583
-94.7729
-91.4865
-91.5546
-91.6268
-91.7014
-91.7775
-91.8543
-91.9313
-92.0078
-92.0833
-92.1582
-92.2316
-92.3044
-92.3765
-92.4477
-92.5184
-92.5882
-92.6566
-92.7232
-92.7878
-92.8506
-92.9108
-92.9683
-93.0231
-93.075
-93.1245
-93.1721
-93.2178
-93.2602
-93.2994
-93.3363
-93.3712
-93.4049
-93.4374
-93.4678
-93.4956
-93.5212
-93.5457
-93.5685
-93.5888
-93.6063
-93.6226
-93.6393
-93.6571
-93.6761
-93.6955
-93.7145
-93.7326
-93.7491
-93.7642
-93.7777
-93.79
-93.8011
-93.8111
-93.8201
-93.8279
-93.8344
-93.8397
-93.8435
-93.8461
-101.552
-98.2201
-98.2974
-98.3773
-98.4589
-98.541
-98.6231
-98.7049
-98.7857
-98.8653
-98.9436
-99.0206
-99.0961
-99.1703
-99.2435
-99.3156
-99.3866
-99.4559
-99.5228
-99.5871
-99.649
-99.7087
-99.7659
-99.8204
-99.8725
-99.922
-99.9696
-100.016
-100.06
-100.101
-100.139
-100.174
-100.208
-100.241
-100.272
-100.301
-100.327
-100.352
-100.376
-100.397
-100.415
-100.432
-100.448
-100.465
-100.484
-100.503
-100.522
-100.54
-100.557
-100.572
-100.586
-100.598
-100.609
-100.619
-100.628
-100.636
-100.643
-100.648
-100.652
-100.654
-108.449
-105.071
-105.158
-105.246
-105.335
-105.423
-105.511
-105.598
-105.683
-105.768
-105.85
-105.931
-106.01
-106.086
-106.161
-106.234
-106.306
-106.375
-106.443
-106.507
-106.568
-106.627
-106.685
-106.739
-106.792
-106.842
-106.89
-106.937
-106.982
-107.024
-107.064
-107.1
-107.135
-107.167
-107.199
-107.229
-107.256
-107.281
-107.305
-107.328
-107.347
-107.364
-107.38
-107.397
-107.415
-107.433
-107.452
-107.47
-107.487
-107.502
-107.516
-107.529
-107.54
-107.551
-107.56
-107.567
-107.574
-107.579
-107.583
-107.585
-115.469
-112.041
-112.139
-112.235
-112.331
-112.425
-112.519
-112.611
-112.701
-112.79
-112.877
-112.962
-113.044
-113.124
-113.201
-113.275
-113.347
-113.417
-113.484
-113.549
-113.61
-113.669
-113.727
-113.782
-113.836
-113.887
-113.936
-113.982
-114.027
-114.071
-114.112
-114.15
-114.185
-114.218
-114.25
-114.28
-114.308
-114.334
-114.359
-114.382
-114.403
-114.42
-114.437
-114.453
-114.47
-114.488
-114.506
-114.524
-114.541
-114.557
-114.571
-114.584
-114.596
-114.606
-114.615
-114.623
-114.629
-114.634
-114.638
-114.641
-122.616
-119.136
-119.242
-119.346
-119.449
-119.549
-119.649
-119.746
-119.842
-119.935
-120.027
-120.116
-120.201
-120.284
-120.364
-120.44
-120.513
-120.583
-120.651
-120.716
-120.779
-120.838
-120.896
-120.952
-121.006
-121.059
-121.108
-121.156
-121.201
-121.245
-121.287
-121.327
-121.363
-121.397
-121.429
-121.46
-121.488
-121.515
-121.54
-121.564
-121.586
-121.604
-121.621
-121.637
-121.653
-121.671
-121.689
-121.707
-121.724
-121.74
-121.754
-121.767
-121.779
-121.79
-121.799
-121.806
-121.813
-121.818
-121.821
-121.824
-129.893
-126.356
-126.47
-126.581
-126.689
-126.796
-126.901
-127.003
-127.104
-127.203
-127.298
-127.391
-127.481
-127.567
-127.65
-127.729
-127.804
-127.876
-127.944
-128.011
-128.075
-128.136
-128.194
-128.251
-128.305
-128.358
-128.41
-128.458
-128.504
-128.549
-128.591
-128.631
-128.669
-128.704
-128.737
-128.768
-128.797
-128.824
-128.85
-128.874
-128.897
-128.917
-128.934
-128.949
-128.966
-128.983
-129
-129.018
-129.035
-129.051
-129.066
-129.079
-129.091
-129.102
-129.111
-129.119
-129.125
-129.13
-129.133
-129.136
-137.303
-133.705
-133.825
-133.943
-134.057
-134.169
-134.278
-134.386
-134.491
-134.593
-134.694
-134.792
-134.885
-134.976
-135.062
-135.145
-135.223
-135.298
-135.368
-135.436
-135.502
-135.565
-135.624
-135.682
-135.737
-135.791
-135.842
-135.892
-135.939
-135.985
-136.028
-136.068
-136.107
-136.143
-136.177
-136.208
-136.238
-136.265
-136.291
-136.316
-136.34
-136.361
-136.379
-136.395
-136.41
-136.427
-136.444
-136.462
-136.478
-136.494
-136.509
-136.523
-136.535
-136.546
-136.555
-136.563
-136.569
-136.574
-136.578
-136.58
-144.845
-141.185
-141.311
-141.433
-141.553
-141.67
-141.784
-141.895
-142.005
-142.111
-142.215
-142.317
-142.416
-142.511
-142.602
-142.689
-142.771
-142.85
-142.923
-142.994
-143.061
-143.126
-143.188
-143.246
-143.303
-143.357
-143.409
-143.46
-143.508
-143.554
-143.598
-143.639
-143.678
-143.715
-143.75
-143.782
-143.813
-143.841
-143.867
-143.891
-143.916
-143.938
-143.957
-143.973
-143.989
-144.005
-144.022
-144.039
-144.056
-144.072
-144.087
-144.101
-144.113
-144.124
-144.133
-144.141
-144.147
-144.152
-144.156
-144.158
-152.52
-148.798
-148.928
-149.055
-149.179
-149.301
-149.419
-149.535
-149.648
-149.759
-149.866
-149.972
-150.075
-150.175
-150.271
-150.363
-150.451
-150.534
-150.612
-150.686
-150.756
-150.823
-150.887
-150.947
-151.005
-151.06
-151.113
-151.164
-151.213
-151.26
-151.305
-151.347
-151.387
-151.424
-151.459
-151.492
-151.524
-151.553
-151.579
-151.604
-151.628
-151.651
-151.672
-151.689
-151.704
-151.72
-151.736
-151.753
-151.77
-151.786
-151.801
-151.815
-151.827
-151.839
-151.848
-151.856
-151.862
-151.867
-151.87
-151.873
-160.336
-156.547
-156.678
-156.808
-156.937
-157.063
-157.187
-157.308
-157.425
-157.539
-157.65
-157.759
-157.865
-157.969
-158.07
-158.168
-158.261
-158.35
-158.434
-158.512
-158.586
-158.657
-158.723
-158.786
-158.846
-158.902
-158.956
-159.008
-159.057
-159.104
-159.15
-159.193
-159.234
-159.272
-159.307
-159.341
-159.373
-159.403
-159.43
-159.455
-159.479
-159.503
-159.524
-159.543
-159.559
-159.574
-159.59
-159.607
-159.623
-159.639
-159.654
-159.668
-159.681
-159.692
-159.701
-159.709
-159.716
-159.72
-159.724
-159.727
-168.297
-164.431
-164.562
-164.695
-164.828
-164.96
-165.089
-165.215
-165.338
-165.456
-165.57
-165.682
-165.791
-165.899
-166.004
-166.106
-166.205
-166.3
-166.39
-166.475
-166.554
-166.628
-166.699
-166.765
-166.827
-166.885
-166.94
-166.993
-167.043
-167.09
-167.136
-167.18
-167.222
-167.261
-167.297
-167.33
-167.363
-167.394
-167.422
-167.448
-167.472
-167.496
-167.518
-167.537
-167.554
-167.569
-167.585
-167.601
-167.618
-167.634
-167.649
-167.663
-167.675
-167.686
-167.696
-167.704
-167.71
-167.715
-167.719
-167.721
-176.391
-172.45
-172.583
-172.719
-172.857
-172.994
-173.129
-173.262
-173.39
-173.514
-173.633
-173.748
-173.86
-173.969
-174.077
-174.183
-174.286
-174.387
-174.484
-174.575
-174.66
-174.74
-174.815
-174.885
-174.951
-175.011
-175.068
-175.122
-175.173
-175.221
-175.267
-175.312
-175.354
-175.394
-175.431
-175.465
-175.497
-175.529
-175.558
-175.585
-175.61
-175.633
-175.656
-175.676
-175.694
-175.709
-175.725
-175.74
-175.757
-175.773
-175.788
-175.802
-175.814
-175.825
-175.835
-175.843
-175.85
-175.855
-175.859
-175.861
-184.61
-180.607
-180.741
-180.882
-181.026
-181.169
-181.311
-181.451
-181.587
-181.717
-181.842
-181.961
-182.075
-182.186
-182.295
-182.403
-182.509
-182.614
-182.716
-182.814
-182.906
-182.993
-183.074
-183.149
-183.219
-183.283
-183.343
-183.398
-183.451
-183.5
-183.546
-183.59
-183.633
-183.674
-183.712
-183.747
-183.779
-183.811
-183.841
-183.869
-183.894
-183.918
-183.94
-183.961
-183.979
-183.996
-184.011
-184.027
-184.043
-184.059
-184.074
-184.088
-184.1
-184.111
-184.121
-184.129
-184.136
-184.141
-184.145
-184.147
-192.955
-188.896
-189.037
-189.186
-189.336
-189.488
-189.637
-189.784
-189.927
-190.065
-190.198
-190.323
-190.442
-190.555
-190.665
-190.773
-190.88
-190.986
-191.091
-191.195
-191.294
-191.387
-191.475
-191.557
-191.632
-191.701
-191.764
-191.823
-191.877
-191.927
-191.974
-192.018
-192.061
-192.102
-192.141
-192.177
-192.21
-192.242
-192.272
-192.301
-192.327
-192.351
-192.374
-192.395
-192.414
-192.431
-192.447
-192.463
-192.478
-192.494
-192.509
-192.523
-192.536
-192.546
-192.556
-192.564
-192.571
-192.576
-192.58
-192.583
-201.43
-197.316
-197.469
-197.628
-197.79
-197.95
-198.108
-198.263
-198.414
-198.56
-198.701
-198.835
-198.961
-199.079
-199.191
-199.3
-199.406
-199.511
-199.617
-199.723
-199.827
-199.927
-200.022
-200.111
-200.193
-200.267
-200.335
-200.397
-200.454
-200.506
-200.554
-200.599
-200.642
-200.683
-200.722
-200.759
-200.793
-200.825
-200.855
-200.884
-200.911
-200.936
-200.96
-200.981
-201
-201.018
-201.035
-201.05
-201.066
-201.081
-201.096
-201.11
-201.123
-201.133
-201.142
-201.15
-201.157
-201.163
-201.167
-201.17
-210.037
-205.871
-206.037
-206.21
-206.385
-206.559
-206.728
-206.892
-207.052
-207.206
-207.354
-207.497
-207.632
-207.758
-207.876
-207.988
-208.095
-208.199
-208.303
-208.407
-208.513
-208.617
-208.717
-208.813
-208.903
-208.984
-209.058
-209.125
-209.185
-209.239
-209.289
-209.335
-209.378
-209.419
-209.459
-209.496
-209.531
-209.564
-209.594
-209.623
-209.651
-209.677
-209.701
-209.723
-209.742
-209.76
-209.777
-209.794
-209.809
-209.824
-209.839
-209.853
-209.865
-209.876
-209.885
-209.893
-209.9
-209.905
-209.91
-209.913
-218.776
-214.557
-214.739
-214.929
-215.12
-215.31
-215.495
-215.671
-215.841
-216.004
-216.16
-216.31
-216.453
-216.589
-216.716
-216.834
-216.946
-217.051
-217.153
-217.255
-217.358
-217.462
-217.565
-217.667
-217.763
-217.852
-217.933
-218.006
-218.071
-218.129
-218.18
-218.227
-218.271
-218.313
-218.352
-218.39
-218.425
-218.459
-218.49
-218.52
-218.547
-218.573
-218.598
-218.621
-218.641
-218.659
-218.677
-218.693
-218.709
-218.724
-218.738
-218.752
-218.764
-218.775
-218.784
-218.792
-218.799
-218.805
-218.809
-218.812
-227.641
-223.375
-223.576
-223.785
-223.998
-224.207
-224.409
-224.602
-224.785
-224.959
-225.125
-225.282
-225.432
-225.575
-225.711
-225.838
-225.958
-226.069
-226.173
-226.272
-226.372
-226.473
-226.575
-226.678
-226.779
-226.875
-226.963
-227.043
-227.114
-227.176
-227.231
-227.28
-227.325
-227.367
-227.407
-227.444
-227.48
-227.514
-227.546
-227.577
-227.604
-227.631
-227.656
-227.68
-227.701
-227.719
-227.737
-227.753
-227.769
-227.784
-227.798
-227.812
-227.824
-227.835
-227.844
-227.851
-227.858
-227.864
-227.869
-227.872
-236.63
-232.325
-232.549
-232.781
-233.017
-233.249
-233.473
-233.685
-233.885
-234.073
-234.25
-234.418
-234.576
-234.725
-234.867
-235.001
-235.129
-235.249
-235.36
-235.462
-235.56
-235.657
-235.755
-235.856
-235.958
-236.057
-236.152
-236.239
-236.316
-236.384
-236.443
-236.495
-236.541
-236.584
-236.625
-236.662
-236.698
-236.733
-236.766
-236.797
-236.826
-236.852
-236.878
-236.902
-236.924
-236.943
-236.96
-236.977
-236.993
-237.008
-237.022
-237.035
-237.048
-237.058
-237.067
-237.075
-237.081
-237.087
-237.092
-237.095
-245.742
-241.403
-241.653
-241.916
-242.179
-242.438
-242.688
-242.922
-243.141
-243.346
-243.537
-243.717
-243.886
-244.043
-244.191
-244.331
-244.464
-244.591
-244.711
-244.821
-244.922
-245.018
-245.112
-245.208
-245.307
-245.406
-245.504
-245.596
-245.681
-245.755
-245.82
-245.875
-245.924
-245.968
-246.009
-246.047
-246.084
-246.118
-246.152
-246.184
-246.214
-246.241
-246.267
-246.291
-246.314
-246.333
-246.351
-246.368
-246.384
-246.399
-246.413
-246.426
-246.438
-246.448
-246.457
-246.465
-246.471
-246.477
-246.482
-246.485
-254.964
-250.6
-250.885
-251.183
-251.483
-251.775
-252.053
-252.315
-252.557
-252.779
-252.986
-253.18
-253.361
-253.529
-253.686
-253.833
-253.971
-254.102
-254.228
-254.346
-254.455
-254.554
-254.648
-254.739
-254.832
-254.928
-255.024
-255.119
-255.209
-255.29
-255.36
-255.42
-255.472
-255.518
-255.56
-255.6
-255.637
-255.672
-255.706
-255.739
-255.77
-255.798
-255.824
-255.849
-255.872
-255.892
-255.91
-255.926
-255.943
-255.958
-255.972
-255.985
-255.996
-256.006
-256.015
-256.023
-256.029
-256.035
-256.039
-256.042
-264.299
-259.917
-260.242
-260.589
-260.933
-261.265
-261.577
-261.868
-262.137
-262.382
-262.606
-262.814
-263.007
-263.187
-263.355
-263.511
-263.656
-263.792
-263.921
-264.044
-264.159
-264.266
-264.363
-264.454
-264.543
-264.633
-264.724
-264.817
-264.909
-264.995
-265.071
-265.136
-265.192
-265.24
-265.284
-265.325
-265.363
-265.4
-265.434
-265.467
-265.499
-265.528
-265.555
-265.58
-265.603
-265.624
-265.643
-265.66
-265.676
-265.691
-265.705
-265.717
-265.728
-265.738
-265.747
-265.755
-265.761
-265.766
-265.77
-265.773
-273.755
-269.342
-269.716
-270.127
-270.53
-270.91
-271.262
-271.586
-271.883
-272.154
-272.399
-272.623
-272.829
-273.019
-273.197
-273.363
-273.518
-273.662
-273.795
-273.92
-274.039
-274.152
-274.255
-274.35
-274.439
-274.524
-274.609
-274.697
-274.786
-274.873
-274.952
-275.022
-275.083
-275.135
-275.182
-275.224
-275.264
-275.302
-275.338
-275.371
-275.404
-275.434
-275.462
-275.487
-275.51
-275.532
-275.551
-275.568
-275.584
-275.599
-275.612
-275.624
-275.635
-275.644
-275.653
-275.661
-275.667
-275.672
-275.676
-275.679
-283.311
-278.869
-279.311
-279.799
-280.281
-280.718
-281.114
-281.473
-281.8
-282.097
-282.366
-282.61
-282.832
-283.034
-283.222
-283.396
-283.56
-283.712
-283.852
-283.982
-284.103
-284.218
-284.326
-284.426
-284.518
-284.602
-284.684
-284.765
-284.848
-284.93
-285.01
-285.083
-285.147
-285.204
-285.255
-285.301
-285.343
-285.382
-285.419
-285.454
-285.487
-285.518
-285.546
-285.572
-285.596
-285.618
-285.638
-285.656
-285.671
-285.685
-285.698
-285.71
-285.72
-285.729
-285.737
-285.745
-285.752
-285.757
-285.76
-285.763
53070.8
57144.2
56913.4
56770.8
56843.2
57108.4
57508
57976.4
58453.4
58890.5
59251.6
59508.3
59635.7
59603.4
59367.8
58849.6
57884.7
56081.8
52333.6
43541
43631.2
46741.4
46117.4
45879.4
46045.1
46490.5
47093.3
47752.4
48391.4
48955.4
49407.1
49720.3
49872.3
49833.7
49556.5
48953.9
47858.3
45942.3
42533.9
36538.9
40343.1
35655
34517.1
34408.5
34927.2
35740
36664.2
37586.9
38431.3
39145.1
39697.2
40070.4
40251.4
40218.4
39928.6
39301.1
38185.4
36302.5
33138.3
27860.5
37389.1
19911
21140.1
22081.1
23497.5
24954.7
26330.4
27575.6
28648.9
29513.7
30152.2
30565.8
30760.2
30725
30424.2
29786.9
28687.1
26907.7
24103.9
19856.9
382.642
-190.401
4642.45
9367.3
12216.8
14418.6
16271.7
17849.4
19151.4
20144.3
20824.6
21226.2
21394.1
21332.4
21003.9
20348.8
19276.7
17651.5
15291.3
12064
-352.477
-372.901
-348.971
119.709
2125.34
4660.98
6737.36
8502.89
10015.6
11104.4
11755.8
12057.6
12146.1
12038.6
11663.1
10969.6
9913.46
8446.1
6502.62
4104.78
-370.321
-367.665
-360.125
-358.311
-359.682
-326.537
110.37
942.587
1900.08
2664.78
2922.2
2784.27
2671.08
2553.43
2107.03
1303.16
148.862
-1237.85
-2680.13
-3979.34
-384.696
-371.664
-371.109
-370.409
-371.158
-372.607
-374.642
-380.468
-393.228
-371.223
-440.147
-734.394
-1118
-1652.83
-2209.54
-2529.52
-2464.53
-1977.42
-1309.74
-637.656
-393.721
-382.247
-382.299
-382.088
-382.641
-383.767
-385.505
-387.638
-389.251
-390.615
-392.202
-394.14
-402.198
-420.923
-431.825
-436.367
-418.283
-392.508
-394.824
-391.588
-402.347
-392.482
-392.946
-393.179
-393.765
-394.651
-395.906
-397.617
-399.617
-401.863
-404.168
-406.098
-406.626
-406.727
-407.69
-408.024
-407.071
-407.988
-408.245
-405.687
-411.335
-402.458
-402.969
-403.347
-403.995
-404.91
-406.026
-407.335
-408.848
-410.534
-412.171
-413.468
-414.41
-415.219
-415.801
-415.829
-415.089
-414.208
-413.162
-411.277
-420.335
-412.392
-412.827
-413.147
-413.672
-414.429
-415.393
-416.514
-417.732
-418.993
-420.217
-421.268
-422.076
-422.629
-422.878
-422.719
-422.105
-421.181
-419.941
-418.278
-429.223
-422.147
-422.525
-422.815
-423.253
-423.847
-424.577
-425.416
-426.321
-427.25
-428.141
-428.92
-429.53
-429.922
-430.038
-429.811
-429.233
-428.366
-427.239
-425.857
-438.025
-431.734
-432.044
-432.309
-432.693
-433.172
-433.734
-434.364
-435.038
-435.718
-436.343
-436.864
-437.249
-437.463
-437.466
-437.222
-436.732
-436.02
-435.098
-433.984
-446.735
-441.166
-441.404
-441.643
-441.97
-442.356
-442.803
-443.29
-443.796
-444.284
-444.719
-445.076
-445.325
-445.438
-445.387
-445.143
-444.716
-444.123
-443.367
-442.463
-455.402
-450.444
-450.632
-450.846
-451.121
-451.444
-451.799
-452.173
-452.551
-452.903
-453.211
-453.454
-453.612
-453.665
-453.584
-453.363
-453.008
-452.515
-451.886
-451.145
-464.124
-459.635
-459.783
-459.971
-460.205
-460.467
-460.747
-461.039
-461.323
-461.588
-461.813
-461.985
-462.083
-462.082
-461.979
-461.783
-461.486
-461.077
-460.563
-459.953
-472.927
-468.79
-468.89
-469.043
-469.223
-469.421
-469.639
-469.868
-470.09
-470.294
-470.47
-470.596
-470.649
-470.621
-470.519
-470.345
-470.091
-469.754
-469.334
-468.832
-481.822
-477.916
-477.96
-478.066
-478.194
-478.346
-478.518
-478.696
-478.87
-479.032
-479.166
-479.25
-479.276
-479.248
-479.162
-479.013
-478.801
-478.523
-478.174
-477.759
-490.825
-487.022
-487.018
-487.088
-487.18
-487.295
-487.425
-487.558
-487.692
-487.815
-487.909
-487.971
-487.997
-487.976
-487.903
-487.778
-487.599
-487.362
-487.069
-486.735
-499.963
-496.126
-496.096
-496.139
-496.199
-496.276
-496.36
-496.452
-496.549
-496.641
-496.719
-496.78
-496.809
-496.795
-496.737
-496.634
-496.477
-496.267
-496.022
-495.762
-509.259
-505.238
-505.203
-505.224
-505.252
-505.289
-505.33
-505.381
-505.443
-505.515
-505.588
-505.647
-505.676
-505.67
-505.626
-505.533
-505.394
-505.222
-505.035
-504.839
-518.701
-514.338
-514.322
-514.331
-514.335
-514.339
-514.347
-514.363
-514.393
-514.439
-514.493
-514.537
-514.56
-514.556
-514.515
-514.434
-514.325
-514.202
-514.073
-513.938
-528.107
-523.486
-523.515
-523.53
-523.534
-523.534
-523.535
-523.538
-523.544
-523.557
-523.572
-523.579
-523.569
-523.543
-523.5
-523.442
-523.368
-523.282
-523.189
-523.098
-2861.5
14853.2
16170.6
4896.12
-210.425
-240.604
-246.54
-257.664
-265.845
-271.25
-275.148
-278.247
-280.808
-283.013
-285.081
23118.4
13039.1
7982.81
1825.38
-139.331
-272.761
-267.413
-271.613
-277.36
-282.054
-285.644
-288.518
-290.913
-292.962
-294.748
19132.9
11003
5016.4
168.074
-354.6
-296.978
-288.415
-288.057
-290.853
-294.04
-296.924
-299.355
-301.415
-303.195
-304.734
13958.6
7630.77
2253.33
-1211.58
-319.467
-311.839
-305.685
-303.971
-304.824
-306.655
-308.699
-310.592
-312.243
-313.705
-314.995
8046.1
3636.48
-389.069
-661.229
-334.615
-325.205
-320.445
-318.544
-318.487
-319.391
-320.691
-322.043
-323.285
-324.42
-325.459
1608.04
-643.69
-1006.73
-358.851
-344.939
-338.173
-334.083
-332.186
-331.664
-331.968
-332.691
-333.56
-334.425
-335.258
-336.057
-2993.08
-653.744
-372.906
-361.527