/*--------------------------------*- C++ -*----------------------------------*\
| =========                 |                                                 |
| \\      /  F ield         | OpenFOAM: The Open Source CFD Toolbox           |
|  \\    /   O peration     | Version:  v1912                                 |
|   \\  /    A nd           | Website:  www.openfoam.com                      |
|    \\/     M anipulation  |                                                 |
\*---------------------------------------------------------------------------*/
FoamFile
{
    version     2.0;
    format      ascii;
    class       volScalarField;
    location    "4";
    object      p_rgh;
}
// * * * * * * * * * * * * * * * * * * * * * * * * * * * * * * * * * * * * * //

dimensions      [1 -1 -2 0 0 0 0];


internalField   nonuniform List<scalar> 
20320
(
359888
360226
360509
360760
361015
361254
361512
361784
362091
362418
362754
363055
363290
363461
363592
363709
363826
363939
364030
364081
359887
360208
360503
360768
361053
361341
361648
361994
362376
362773
363153
363472
363702
363845
363927
363986
364050
364123
364196
364223
359831
360171
360459
360734
361030
361344
361677
362025
362382
362736
363070
363365
363609
363801
363951
364072
364176
364268
364357
364490
359723
360095
360375
360659
360962
361279
361608
361943
362278
362604
362911
363190
363436
363645
363822
363971
364102
364231
364403
364719
359554
359967
360247
360535
360836
361148
361467
361786
362102
362407
362695
362962
363202
363416
363606
363777
363944
364134
364409
364846
359329
359784
360065
360353
360651
360956
361263
361568
361866
362154
362428
362683
362919
363136
363339
363536
363746
364002
364357
364872
359046
359544
359826
360114
360408
360705
361001
361293
361577
361852
362113
362361
362594
362817
363035
363260
363512
363823
364240
364814
358707
359245
359531
359820
360111
360402
360688
360969
361242
361504
361756
361997
362230
362460
362694
362946
363237
363595
364064
364688
358320
358896
359187
359478
359767
360052
360330
360601
360863
361115
361359
361596
361830
362067
362316
362593
362918
363318
363833
364506
357896
358507
358804
359097
359384
359663
359933
360194
360446
360688
360925
361158
361393
361637
361900
362199
362553
362991
363550
364273
357454
358091
358393
358687
358969
359240
359502
359752
359994
360227
360456
360685
360920
361168
361443
361760
362141
362614
363216
363993
357010
357662
357965
358255
358530
358792
359042
359282
359512
359736
359957
360180
360411
360662
360945
361276
361680
362184
362829
363664
356588
357233
357530
357811
358073
358322
358559
358786
359005
359219
359431
359646
359873
360121
360406
360747
361168
361700
362388
363283
356206
356813
357097
357359
357603
357834
358056
358270
358477
358681
358884
359092
359310
359551
359831
360172
360602
361156
361883
362842
355880
356409
356667
356903
357122
357332
357538
357740
357938
358135
358330
358527
358734
358960
359224
359551
359975
360539
361302
362331
355617
356020
356242
356440
356629
356817
357009
357204
357400
357594
357784
357972
358161
358362
358592
358882
359274
359824
360610
361721
355410
355638
355814
355967
356121
356290
356475
356672
356876
357077
357270
357450
357617
357779
357952
358168
358477
358958
359730
360940
355240
355249
355372
355471
355591
355746
355937
356153
356382
356606
356812
356990
357134
357245
357331
357418
357558
357849
358477
359767
355073
354839
354895
354931
355019
355175
355393
355654
355931
356199
356436
356623
356749
356800
356773
356671
356515
356374
356449
357447
354881
354390
354348
354306
354373
354557
354838
355178
355536
355874
356162
356375
356493
356492
356346
356017
355442
354518
353055
351692
3.19038
3.17322
3.14901
3.11816
3.08213
3.04191
2.99821
2.95163
2.90265
2.85188
2.79981
2.74667
2.69272
2.63834
2.58381
2.52941
2.47549
2.42238
2.3703
2.31926
2.2693
2.22057
2.17325
2.12742
2.08301
2.04004
1.99863
1.9587
1.92012
1.88293
1.84742
1.8139
1.78252
1.75305
1.72501
1.69815
1.67238
1.64755
1.62347
1.60006
1.57746
1.5559
1.53537
1.5157
1.49695
1.47936
1.46293
1.44759
1.43338
1.4203
1.40826
1.39726
1.38736
1.37855
1.37077
1.36413
1.35878
1.35473
1.35189
1.35006
3.19815
3.17915
3.15591
3.12581
3.09032
3.05045
3.00692
2.96038
2.91139
2.86052
2.80826
2.75493
2.70078
2.64609
2.5911
2.53607
2.48143
2.42774
2.37536
2.32418
2.27394
2.22461
2.17655
2.12992
2.08447
2.04021
1.99773
1.95743
1.91865
1.88036
1.84265
1.80697
1.77485
1.74653
1.72087
1.69652
1.67261
1.64884
1.62524
1.60197
1.57933
1.55763
1.53693
1.51713
1.49826
1.48052
1.46394
1.44844
1.43408
1.42086
1.40869
1.39757
1.38757
1.37866
1.37081
1.36411
1.3587
1.35461
1.35173
1.34987
3.20997
3.18815
3.16499
3.13521
3.10001
3.0603
3.01679
2.97016
2.921
2.8699
2.81727
2.76346
2.70878
2.65353
2.59796
2.54239
2.48722
2.43301
2.38016
2.32865
2.27814
2.2284
2.17961
2.13195
2.08533
2.03991
1.99652
1.95567
1.91638
1.87699
1.8375
1.80013
1.76745
1.74013
1.71663
1.69463
1.67251
1.64976
1.62662
1.60351
1.58088
1.55903
1.53814
1.51821
1.49926
1.48138
1.46463
1.44899
1.43448
1.4211
1.4088
1.39757
1.38746
1.37846
1.37055
1.36381
1.35834
1.35418
1.35122
1.3493
3.22543
3.20049
3.17677
3.14682
3.11157
3.07174
3.02804
2.98112
2.93157
2.87997
2.82674
2.7722
2.71675
2.6608
2.60468
2.54871
2.49322
2.43851
2.38488
2.33254
2.2815
2.23142
2.182
2.13328
2.0856
2.03943
1.99531
1.95336
1.91277
1.87228
1.83198
1.79403
1.76118
1.73446
1.71243
1.69231
1.67179
1.65009
1.62748
1.6046
1.58202
1.56005
1.53895
1.51889
1.49989
1.48189
1.46497
1.44918
1.43453
1.42098
1.40854
1.39723
1.38701
1.37791
1.36995
1.3632
1.35768
1.35342
1.35033
1.34829
3.24382
3.21575
3.19099
3.16046
3.12481
3.08459
3.04043
2.99297
2.94282
2.89052
2.83649
2.78116
2.72498
2.66838
2.61176
2.55539
2.4995
2.44423
2.38971
2.33624
2.28415
2.23333
2.18329
2.13385
2.08555
2.03898
1.99407
1.95044
1.90786
1.86633
1.82627
1.78903
1.75655
1.72997
1.70845
1.68941
1.67025
1.64966
1.62774
1.60522
1.58273
1.56067
1.53939
1.5192
1.50013
1.48205
1.46497
1.44904
1.43423
1.42051
1.40794
1.39653
1.38621
1.37702
1.36903
1.36226
1.3567
1.35231
1.34907
1.3469
3.26434
3.2333
3.20723
3.17577
3.13935
3.09844
3.05361
3.00541
2.95452
2.90145
2.8466
2.79048
2.73365
2.67648
2.61929
2.56234
2.50583
2.44989
2.39461
2.34006
2.28654
2.23435
2.18347
2.13372
2.08525
2.03826
1.99228
1.94675
1.90215
1.85985
1.82073
1.78509
1.75351
1.72679
1.70486
1.68603
1.66778
1.64834
1.62732
1.60529
1.58296
1.56086
1.53947
1.51914
1.49996
1.48179
1.46461
1.44853
1.43356
1.41968
1.40698
1.39546
1.38505
1.37578
1.36776
1.36098
1.35537
1.35085
1.34742
1.34509
3.28713
3.25301
3.22543
3.1927
3.15515
3.11321
3.06742
3.01836
2.96666
2.9128
2.85722
2.80036
2.74277
2.6849
2.62697
2.56923
2.51191
2.45522
2.39921
2.34379
2.28897
2.23522
2.18322
2.13312
2.08444
2.03663
1.98925
1.94219
1.8964
1.85385
1.81584
1.78202
1.75163
1.72475
1.70183
1.68236
1.66447
1.64606
1.6261
1.60473
1.58266
1.56061
1.53917
1.51871
1.49937
1.4811
1.46385
1.44763
1.43249
1.41847
1.40565
1.394
1.38351
1.3742
1.36615
1.35933
1.35365
1.34899
1.34538
1.34292
3.31331
3.27557
3.24621
3.21182
3.17274
3.1294
3.08231
3.03212
2.97946
2.92472
2.8683
2.81069
2.7523
2.6935
2.63462
2.57592
2.51765
2.46001
2.4031
2.3469
2.29129
2.23652
2.1834
2.13235
2.08273
2.03358
1.98479
1.93695
1.8912
1.84914
1.81207
1.77964
1.75036
1.72345
1.69939
1.67869
1.6605
1.64281
1.62395
1.60344
1.58179
1.5599
1.53847
1.51788
1.49834
1.47995
1.46263
1.44629
1.431
1.41687
1.40392
1.39215
1.38156
1.37223
1.36416
1.35728
1.3515
1.34671
1.34293
1.34034
3.34379
3.30175
3.27033
3.23388
3.19286
3.1477
3.09893
3.0472
2.99316
2.93723
2.87975
2.82121
2.76201
2.70231
2.64237
2.58256
2.52313
2.46429
2.40623
2.34916
2.29315
2.23809
2.18407
2.13142
2.07998
2.02919
1.97935
1.93157
1.88689
1.84601
1.80967
1.77786
1.74924
1.72242
1.69742
1.67528
1.65619
1.63871
1.6208
1.60128
1.58029
1.55872
1.53734
1.51662
1.49688
1.47833
1.46091
1.44447
1.42908
1.41484
1.40177
1.38987
1.37922
1.36986
1.36176
1.3548
1.34889
1.34396
1.34007
1.33739
3.37816
3.33191
3.29796
3.25906
3.21568
3.16829
3.11747
3.06387
3.00802
2.95039
2.89151
2.83181
2.77161
2.71109
2.65023
2.58927
2.52857
2.46843
2.40914
2.35105
2.29445
2.23907
2.18425
2.12984
2.07634
2.02417
1.97398
1.92688
1.88366
1.84422
1.8085
1.77667
1.74806
1.72126
1.69569
1.67223
1.65183
1.63395
1.61664
1.59815
1.57807
1.557
1.53574
1.51492
1.495
1.47624
1.45867
1.44214
1.42668
1.41235
1.39916
1.38716
1.37645
1.36707
1.35891
1.35185
1.3458
1.34075
1.33677
1.33406
3.4162
3.36559
3.32875
3.28695
3.24081
3.19084
3.13762
3.08181
3.02392
2.96433
2.90361
2.84243
2.78098
2.71938
2.65769
2.59585
2.5341
2.47286
2.41251
2.3533
2.29542
2.23882
2.18283
2.127
2.0721
2.01939
1.96971
1.92365
1.88168
1.8434
1.80816
1.77595
1.74679
1.71978
1.69392
1.66947
1.64765
1.6288
1.61158
1.59401
1.57501
1.55463
1.53362
1.51278
1.49269
1.47368
1.4559
1.43928
1.42376
1.40936
1.39608
1.384
1.37325
1.36382
1.35558
1.34839
1.34221
1.33705
1.33303
1.3303
3.45832
3.40252
3.36245
3.31731
3.26794
3.21498
3.15907
3.10076
3.04051
2.97884
2.9162
2.85313
2.79007
2.7271
2.66433
2.60183
2.53952
2.47759
2.41636
2.35593
2.29624
2.23748
2.17977
2.12298
2.06774
2.01546
1.96696
1.92218
1.88105
1.84332
1.80823
1.77548
1.74544
1.71791
1.69185
1.66681
1.64371
1.62354
1.60586
1.5889
1.57097
1.55147
1.5309
1.51016
1.48993
1.47066
1.45264
1.43588
1.42029
1.40582
1.39248
1.38036
1.36957
1.36007
1.35172
1.3444
1.33809
1.33286
1.32883
1.32614
3.50537
3.44346
3.39948
3.35046
3.29735
3.24089
3.1818
3.12065
3.05779
2.99372
2.92911
2.86417
2.7992
2.73461
2.67053
2.60712
2.54435
2.48191
2.41977
2.35801
2.29658
2.23571
2.17627
2.11893
2.06413
2.01276
1.96553
1.92203
1.88153
1.84382
1.8085
1.77513
1.74407
1.7157
1.68932
1.66398
1.63993
1.61837
1.59979
1.58295
1.56589
1.54738
1.52748
1.50699
1.48669
1.46719
1.44889
1.43194
1.41625
1.40171
1.38834
1.37622
1.36539
1.35579
1.3473
1.33984
1.33344
1.32817
1.32416
1.32147
3.55822
3.48898
3.44047
3.38691
3.32946
3.26898
3.20615
3.14158
3.07583
3.00927
2.94237
2.87559
2.80892
2.74256
2.67694
2.61217
2.54827
2.48491
2.42165
2.35855
2.29588
2.23399
2.17377
2.11641
2.0623
2.01172
1.96517
1.92244
1.88245
1.84462
1.80885
1.77483
1.74276
1.71329
1.68631
1.66074
1.63611
1.61336
1.5936
1.57638
1.55983
1.54226
1.52321
1.50316
1.48293
1.46326
1.44468
1.42748
1.41164
1.39702
1.38363
1.37152
1.36066
1.35094
1.3423
1.33471
1.32824
1.32296
1.31898
1.31635
3.61711
3.53973
3.48574
3.42685
3.36435
3.29922
3.23219
3.16383
3.09472
3.02552
2.9564
2.8875
2.81913
2.75115
2.6837
2.61707
2.5513
2.4863
2.42173
2.35753
2.29429
2.23257
2.1729
2.11618
2.06285
2.01271
1.96598
1.92301
1.88306
1.84516
1.80903
1.77451
1.74155
1.71086
1.68291
1.65695
1.63201
1.60842
1.58745
1.56941
1.55291
1.5361
1.51796
1.49854
1.47855
1.45883
1.44001
1.42252
1.40646
1.39174
1.37833
1.36622
1.35531
1.34546
1.33668
1.329
1.32247
1.3172
1.31326
1.31066
3.68258
3.59572
3.5353
3.47018
3.40194
3.33152
3.25976
3.18735
3.11477
3.04243
2.97088
2.89988
2.82939
2.75961
2.69028
2.62151
2.55356
2.48665
2.42087
2.35615
2.29291
2.23192
2.17348
2.11784
2.06532
2.01552
1.96819
1.92401
1.88322
1.84498
1.80863
1.77386
1.74035
1.70854
1.67934
1.65265
1.62745
1.60336
1.58133
1.5622
1.54533
1.52898
1.51168
1.493
1.47345
1.45383
1.43484
1.41706
1.40074
1.38588
1.37241
1.36027
1.34929
1.33934
1.33043
1.32267
1.31613
1.31088
1.30698
1.30444
3.75609
3.65714
3.58901
3.51685
3.44222
3.36612
3.28926
3.21228
3.1359
3.06028
2.98549
2.91196
2.83924
2.76719
2.69592
2.62527
2.55545
2.487
2.42042
2.35581
2.29309
2.2328
2.17532
2.12055
2.06859
2.01915
1.97146
1.92586
1.88344
1.84419
1.80737
1.77243
1.73877
1.70625
1.6758
1.64805
1.6224
1.59799
1.57511
1.55483
1.53727
1.52104
1.50438
1.48646
1.46748
1.44814
1.42913
1.4111
1.3945
1.37945
1.36588
1.35365
1.34257
1.33252
1.32353
1.31572
1.30918
1.30397
1.30012
1.29758
3.83831
3.72428
3.64694
3.56699
3.48549
3.40335
3.32118
3.23949
3.15856
3.07904
3.00077
2.9237
2.8483
2.77403
2.70077
2.62869
2.55776
2.48845
2.42146
2.35721
2.29532
2.23561
2.17846
2.12388
2.07184
2.0224
1.97473
1.92834
1.88426
1.84339
1.80548
1.77002
1.73631
1.7036
1.67227
1.64338
1.617
1.59219
1.56864
1.5473
1.52885
1.5124
1.49615
1.47891
1.46057
1.44164
1.42275
1.40459
1.38773
1.37245
1.35871
1.34632
1.33511
1.32498
1.31594
1.3081
1.30159
1.29644
1.29263
1.29011
3.92633
3.79594
3.70899
3.62081
3.53231
3.4439
3.3561
3.26937
3.18389
3.0996
3.01724
2.93657
2.85763
2.78094
2.70602
2.63279
2.56137
2.49182
2.42459
2.36039
2.29907
2.23986
2.18269
2.12776
2.07503
2.02485
1.97704
1.93055
1.8855
1.84302
1.80354
1.76693
1.73278
1.70009
1.66844
1.63867
1.61139
1.58598
1.56184
1.53955
1.5201
1.50314
1.48707
1.47041
1.4527
1.43423
1.4156
1.39745
1.38041
1.36489
1.35091
1.33829
1.32691
1.3167
1.30764
1.29981
1.29334
1.28826
1.28449
1.28195
4.01593
3.87233
3.77504
3.67868
3.58315
3.48855
3.39507
3.30283
3.21235
3.12368
3.03655
2.95195
2.86963
2.78984
2.71304
2.63878
2.56688
2.49729
2.42988
2.36519
2.30365
2.24457
2.1873
2.13188
2.07829
2.02691
1.97825
1.93166
1.88634
1.84283
1.80189
1.76375
1.7285
1.69553
1.66387
1.63364
1.60555
1.57944
1.55471
1.53156
1.51101
1.49331
1.47721
1.46102
1.44386
1.42586
1.40756
1.38957
1.37247
1.35672
1.34245
1.32957
1.31798
1.30766
1.29859
1.29081
1.2844
1.27937
1.27563
1.2731
4.10587
3.95187
3.84528
3.7412
3.63872
3.53799
3.43884
3.34145
3.24554
3.15201
3.06083
2.9718
2.88594
2.80305
2.72348
2.64754
2.57466
2.50456
2.43683
2.37133
2.30875
2.2491
2.19148
2.13559
2.08138
2.0289
1.97895
1.93164
1.88607
1.84206
1.80021
1.76076
1.72407
1.69021
1.65833
1.62789
1.59924
1.57253
1.54727
1.52334
1.50163
1.48297
1.46661
1.45076
1.43411
1.41653
1.39858
1.38085
1.3638
1.34787
1.33332
1.32015
1.30833
1.29787
1.28878
1.28106
1.27473
1.26975
1.26604
1.2635
4.19551
4.03313
3.91949
3.80827
3.69957
3.59292
3.4883
3.38566
3.28525
3.18652
3.09077
2.99793
2.90792
2.8216
2.73882
2.65998
2.58508
2.51352
2.44482
2.37833
2.31429
2.25335
2.19495
2.13843
2.08371
2.0306
1.97949
1.93101
1.88473
1.84022
1.79782
1.75764
1.71976
1.68465
1.65203
1.6212
1.59214
1.56504
1.53943
1.51486
1.49204
1.47221
1.4553
1.43961
1.42344
1.40629
1.38867
1.37119
1.35427
1.33826
1.32346
1.31002
1.29796
1.28734
1.27821
1.27054
1.26428
1.25936
1.25566
1.25313
4.28493
4.11687
3.99685
3.87937
3.76502
3.65317
3.54371
3.43625
3.33111
3.22856
3.12789
3.03061
2.93668
2.84611
2.75955
2.677
2.59877
2.52456
2.45384
2.38586
2.32018
2.25747
2.19782
2.14042
2.08502
2.03142
1.97956
1.93
1.88275
1.83742
1.79434
1.75372
1.71524
1.67907
1.64537
1.61375
1.58412
1.55668
1.53092
1.50601
1.48229
1.46119
1.44334
1.42754
1.41181
1.39516
1.37785
1.36058
1.34378
1.32776
1.31282
1.29915
1.28686
1.27608
1.26687
1.25921
1.25301
1.24814
1.24447
1.24194
4.37691
4.20285
4.07708
3.95489
3.83508
3.71835
3.60424
3.49298
3.3836
3.27681
3.17273
3.07071
2.97223
2.87732
2.78609
2.6991
2.61656
2.53851
2.46463
2.39427
2.32658
2.26175
2.20032
2.14173
2.08538
2.03111
1.97867
1.92833
1.88027
1.83408
1.79001
1.7487
1.70987
1.67312
1.63849
1.60589
1.57538
1.54735
1.52143
1.49651
1.47228
1.44999
1.43091
1.41461
1.39918
1.38308
1.36614
1.34901
1.33228
1.31629
1.30129
1.28748
1.27503
1.26409
1.25477
1.24707
1.24089
1.23605
1.23241
1.22991
4.47206
4.29147
4.16159
4.03504
3.91094
3.78923
3.67043
3.55451
3.442
3.33139
3.22348
3.11817
3.015
2.91532
2.81926
2.72703
2.63932
2.55641
2.47823
2.40445
2.3341
2.26669
2.20287
2.14256
2.08497
2.02975
1.9766
1.92558
1.87696
1.83023
1.78524
1.74283
1.70333
1.66622
1.6311
1.59776
1.56627
1.53725
1.51084
1.486
1.46171
1.43858
1.41817
1.40096
1.38553
1.36996
1.35348
1.33651
1.31977
1.30377
1.28878
1.27495
1.26241
1.25133
1.24188
1.23411
1.2279
1.22306
1.21944
1.21698
4.56525
4.38222
4.2518
4.12128
3.99283
3.86646
3.74274
3.62197
3.50455
3.39107
3.27966
3.17091
3.06447
2.9602
2.85926
2.76178
2.66825
2.57955
2.49596
2.41752
2.34357
2.27303
2.20614
2.14334
2.08402
2.02755
1.97348
1.92166
1.87245
1.82547
1.77998
1.73646
1.69583
1.65809
1.62271
1.58909
1.55689
1.52671
1.49934
1.4743
1.4502
1.42672
1.4052
1.38681
1.37096
1.35573
1.33976
1.32302
1.30627
1.29022
1.27526
1.26147
1.24893
1.23776
1.2282
1.22032
1.21403
1.20914
1.20554
1.20312
4.65643
4.47888
4.3472
4.21459
4.08172
3.95002
3.82058
3.69462
3.57203
3.45354
3.33935
3.22755
3.11823
3.01084
2.9056
2.80336
2.70428
2.60931
2.51939
2.43498
2.35606
2.28155
2.21096
2.14485
2.08302
2.02475
1.96946
1.9167
1.86669
1.81937
1.77375
1.72957
1.68776
1.64896
1.61308
1.57937
1.54693
1.51587
1.4873
1.46155
1.43747
1.41403
1.39184
1.37231
1.35564
1.34038
1.32485
1.30847
1.29179
1.27567
1.26068
1.24696
1.23448
1.22333
1.21368
1.20568
1.19926
1.19429
1.19067
1.18826
4.75885
4.58335
4.44983
4.31378
4.17652
4.03953
3.90395
3.77111
3.64284
3.51885
3.39983
3.28541
3.17377
3.06428
2.95638
2.85045
2.74687
2.64622
2.54974
2.45849
2.37317
2.29334
2.21817
2.14795
2.08273
2.02189
1.96482
1.91085
1.85982
1.81184
1.76607
1.72171
1.67917
1.63924
1.60239
1.56832
1.53589
1.5045
1.47491
1.44807
1.42355
1.40018
1.37779
1.35741
1.33974
1.32402
1.30868
1.29272
1.27628
1.26016
1.24507
1.23135
1.21899
1.20793
1.19827
1.19016
1.18358
1.17849
1.1748
1.17236
4.88289
4.69574
4.56128
4.42049
4.27673
4.13331
3.99156
3.85209
3.71613
3.58569
3.46079
3.34181
3.22781
3.11688
3.00779
2.90005
2.79368
2.68895
2.58691
2.48892
2.39644
2.30996
2.22895
2.15357
2.08401
2.01971
1.96006
1.90435
1.85202
1.80303
1.75683
1.71244
1.66968
1.62899
1.59102
1.55609
1.52348
1.49212
1.46203
1.43411
1.4087
1.38508
1.36269
1.34187
1.32329
1.3068
1.2913
1.2757
1.25966
1.24364
1.22843
1.21464
1.20238
1.19148
1.1819
1.1737
1.16698
1.16173
1.15791
1.15539
5.03015
4.82442
4.68339
4.53447
4.38388
4.23254
4.08282
3.93643
3.7934
3.65478
3.52249
3.39706
3.27848
3.1654
3.05557
2.94754
2.8406
2.73419
2.62876
2.52554
2.42632
2.33269
2.2448
2.16298
2.08787
2.01906
1.95586
1.89758
1.84346
1.79318
1.74625
1.70164
1.65884
1.61787
1.57907
1.54306
1.5098
1.47837
1.4482
1.41962
1.3932
1.36892
1.34634
1.32532
1.30613
1.28884
1.27288
1.2574
1.24178
1.22602
1.21077
1.19686
1.18461
1.17389
1.16446
1.15627
1.14942
1.14399
1.13998
1.13735
5.20046
4.97188
4.81924
4.66
4.49814
4.33802
4.17989
4.02479
3.87425
3.72809
3.58728
3.4535
3.32763
3.20949
3.09726
2.98876
2.8825
2.77693
2.67112
2.56542
2.46145
2.36145
2.26659
2.17754
2.09556
2.02095
1.95304
1.89116
1.83453
1.78254
1.73456
1.68946
1.64647
1.60541
1.56628
1.52944
1.49521
1.46328
1.43303
1.40424
1.37712
1.35193
1.32874
1.30747
1.28799
1.27012
1.25357
1.2379
1.22255
1.20717
1.19205
1.17801
1.16569
1.1551
1.14587
1.13778
1.13085
1.12522
1.12099
1.11824
5.39328
5.14022
4.97422
4.80104
4.62589
4.45172
4.28289
4.11862
3.95917
3.80523
3.6566
3.5142
3.3793
3.25297
3.13481
3.02307
2.91612
2.81199
2.70833
2.60367
2.49826
2.39428
2.29365
2.19768
2.1082
2.02653
1.95264
1.88596
1.82581
1.77143
1.72198
1.6761
1.63268
1.59143
1.55222
1.515
1.47994
1.44713
1.41644
1.38756
1.36016
1.3342
1.31009
1.28827
1.26859
1.25045
1.23339
1.21731
1.20198
1.18697
1.17213
1.15808
1.14565
1.13509
1.12606
1.11813
1.11119
1.10539
1.10096
1.09805
5.61153
5.33181
5.1502
4.96039
4.76853
4.57902
4.39431
4.2178
4.04809
3.8852
3.72885
3.57883
3.43565
3.30019
3.17331
3.05454
2.94306
2.83765
2.73578
2.63438
2.53128
2.42699
2.32343
2.22225
2.12587
2.03672
1.95579
1.88306
1.81816
1.76041
1.7088
1.66174
1.6177
1.57607
1.53669
1.49936
1.46387
1.4302
1.39867
1.36941
1.3419
1.31553
1.29054
1.26785
1.24779
1.22955
1.21224
1.19571
1.18015
1.16534
1.15088
1.137
1.1245
1.11389
1.10497
1.09723
1.09036
1.08447
1.07986
1.0768
5.86448
5.55109
5.35023
5.14117
4.92867
4.71965
4.51757
4.32444
4.14155
3.96732
3.80177
3.6442
3.49403
3.35112
3.21579
3.08832
2.96884
2.85757
2.75354
2.6539
2.55478
2.45381
2.35119
2.24816
2.14714
2.0514
1.9632
1.88348
1.81257
1.75023
1.6955
1.64664
1.60172
1.55957
1.5198
1.48228
1.44664
1.41245
1.37997
1.34988
1.32206
1.29555
1.27
1.24637
1.2256
1.20722
1.1899
1.17306
1.15711
1.1423
1.1282
1.11464
1.1022
1.09151
1.08259
1.075
1.06828
1.0624
1.05767
1.05448
6.15815
5.80089
5.57742
5.34483
5.10971
4.87702
4.65327
4.44122
4.24158
4.05361
3.87582
3.70845
3.55071
3.40142
3.25973
3.12507
2.99742
2.87759
2.76662
2.66396
2.56637
2.46967
2.37122
2.27039
2.16855
2.06884
1.97449
1.88769
1.80991
1.74183
1.68288
1.63132
1.58498
1.5421
1.50176
1.46381
1.42799
1.39358
1.36038
1.32922
1.30064
1.27393
1.24819
1.22384
1.20217
1.18338
1.1661
1.14919
1.13289
1.11788
1.10402
1.0909
1.07868
1.06794
1.05895
1.05144
1.04489
1.03912
1.03435
1.03108
6.49378
6.08815
5.8386
5.57577
5.31225
5.05352
4.80398
4.56915
4.35025
4.14587
3.95415
3.77397
3.60565
3.44833
3.30044
3.16041
3.02699
2.89994
2.78042
2.67022
2.56904
2.47356
2.37941
2.28347
2.1849
2.08534
1.98774
1.8952
1.81058
1.73599
1.6718
1.61652
1.56792
1.52385
1.48279
1.44419
1.4079
1.37325
1.33964
1.30753
1.27784
1.25055
1.22474
1.20007
1.17757
1.15808
1.14068
1.12386
1.10741
1.09213
1.07835
1.06565
1.05381
1.04315
1.03408
1.02655
1.02015
1.01455
1.00987
1.0066
6.88983
6.42319
6.13784
5.84001
5.53991
5.24859
4.97022
4.70848
4.46677
4.24399
4.03691
3.84329
3.66228
3.49383
3.3371
3.19054
3.05239
2.92094
2.79543
2.6772
2.56847
2.46918
2.37587
2.28415
2.19102
2.09564
1.9991
1.90395
1.81401
1.73307
1.663
1.60308
1.55124
1.50523
1.46309
1.42368
1.38658
1.35135
1.31738
1.28462
1.25381
1.22555
1.19945
1.17475
1.15171
1.13138
1.11357
1.09684
1.08047
1.06505
1.05123
1.03887
1.0275
1.0171
1.00799
1.00038
0.994044
0.988647
0.984159
0.980993
7.34567
6.81013
6.48511
6.13881
5.79418
5.46286
5.15049
4.85891
4.59048
4.34551
4.12127
3.91384
3.72072
3.54062
3.37288
3.2167
3.07142
2.93558
2.80692
2.68397
2.568
2.46167
2.36457
2.27334
2.18439
2.09494
2.0034
1.91007
1.81813
1.7325
1.65679
1.59173
1.53584
1.48697
1.44302
1.40243
1.36423
1.32795
1.29334
1.26016
1.2285
1.19908
1.17231
1.14756
1.12433
1.10324
1.08474
1.06794
1.05183
1.03651
1.02269
1.01057
0.999701
0.989694
0.980653
0.972918
0.966585
0.961395
0.957175
0.954196
7.85458
7.26287
6.88892
6.47839
6.07486
5.69489
5.34359
5.01934
4.72197
4.45139
4.20571
3.982
3.77643
3.58588
3.40816
3.24179
3.08674
2.9433
2.81051
2.68536
2.56567
2.45321
2.34993
2.25512
2.16659
2.08141
1.99622
1.90847
1.81906
1.73231
1.65279
1.58292
1.52257
1.46998
1.42322
1.38067
1.34094
1.30319
1.2675
1.23381
1.20161
1.17118
1.14346
1.11842
1.09511
1.07344
1.0541
1.03699
1.02124
1.00637
0.992753
0.980847
0.970424
0.960879
0.952007
0.944182
0.937806
0.932794
0.928879
0.92614
8.44324
7.79106
7.34849
6.86065
6.3784
5.94136
5.54511
5.18636
4.85998
4.56299
4.29373
4.04974
3.82787
3.62507
3.43775
3.26308
3.09965
2.94725
2.80696
2.67785
2.55637
2.44107
2.33305
2.23336
2.14184
2.05699
1.97587
1.89471
1.81186
1.72899
1.64946
1.57665
1.51215
1.45528
1.4046
1.35888
1.31674
1.27711
1.23999
1.20543
1.17269
1.14162
1.11311
1.08751
1.06384
1.04155
1.02133
1.0038
0.988508
0.974483
0.961435
0.949804
0.939724
0.930622
0.922009
0.914165
0.907729
0.902849
0.899234
0.896759
354728
353897
353666
353523
353596
353861
354261
354729
355206
355643
356004
356261
356388
356356
356120
355602
354637
352834
349086
340293
355099
353304
352680
352442
352608
353053
353656
354315
354954
355518
355970
356283
356435
356396
356119
355516
354421
352505
349096
343101
361621
352027
350890
350781
351300
352112
353037
353959
354804
355518
356070
356443
356624
356591
356301
355674
354558
352675
349511
344233
335116
346094
347323
348264
349680
351137
352513
353758
354831
355696
356335
356748
356943
356907
356607
355969
354870
353090
350286
346039
723.539
76014.6
301966
345360
348209
350411
352264
353842
355144
356137
356817
357219
357387
357325
356996
356341
355269
353644
351284
348056
-1.76974
-27.0989
-3.16813
60658.4
275842
350463
352540
354305
355818
356907
357558
357860
357949
357841
357466
356772
355716
354249
352305
349907
-9.8032
-12.0522
-4.51244
-2.69861
-4.06956
5694.65
95423.3
269631
357513
358277
358535
358397
358284
358166
357720
356916
355761
354375
352932
351633
-14.3687
-6.24187
-5.68691
-4.9864
-5.73575
-7.18411
-9.21946
-15.0457
303.723
37757
91085.3
123844
190514
247927
264810
259524
229650
160035
72768.2
7082.09
-13.5837
-7.01448
-7.06617
-6.85554
-7.40816
-8.53434
-10.2722
-12.4051
-14.0184
-15.3821
-16.9697
-18.9077
-26.9655
-45.6908
-56.593
-61.1345
-43.051
-17.2757
-19.5917
-16.3554
-12.3995
-7.43941
-7.90355
-8.13675
-8.72233
-9.60873
-10.8632
-12.5745
-14.5747
-16.8204
-19.1252
-21.0558
-21.5836
-21.6847
-22.6476
-22.9818
-22.0289
-22.9453
-23.2026
-20.6441
-11.5771
-7.60539
-8.11676
-8.49428
-9.1424
-10.0578
-11.1734
-12.4821
-13.9951
-15.6815
-17.3181
-18.6151
-19.5576
-20.3661
-20.9487
-20.9761
-20.2363
-19.3555
-18.3092
-16.4245
-10.7671
-7.72974
-8.16457
-8.48413
-9.00934
-9.76696
-10.7307
-11.8514
-13.0692
-14.3302
-15.5543
-16.6058
-17.413
-17.966
-18.2156
-18.0566
-17.4429
-16.518
-15.2787
-13.6153
-9.84583
-7.67405
-8.05219
-8.34209
-8.78046
-9.37486
-10.1048
-10.9437
-11.8488
-12.7774
-13.6685
-14.4472
-15.0572
-15.4496
-15.5653
-15.3381
-14.7601
-13.8934
-12.7665
-11.3844
-8.83716
-7.45144
-7.7611
-8.02692
-8.41029
-8.88902
-9.45135
-10.0814
-10.7559
-11.4359
-12.0604
-12.5815
-12.9666
-13.1803
-13.1835
-12.9397
-12.4497
-11.7371
-10.8153
-9.70187
-7.73778
-7.07337
-7.31176
-7.55088
-7.87701
-8.26372
-8.71074
-9.1971
-9.70351
-10.1919
-10.6264
-10.9832
-11.2322
-11.3459
-11.2941
-11.0506
-10.6232
-10.0301
-9.27416
-8.37092
-6.59485
-6.54131
-6.72934
-6.94333
-7.21889
-7.54197
-7.89665
-8.27075
-8.64802
-9.00055
-9.30864
-9.55179
-9.709
-9.76217
-9.68155
-9.4601
-9.1058
-8.61266
-7.98379
-7.2425
-5.50613
-5.92242
-6.07004
-6.25899
-6.49255
-6.75479
-7.03487
-7.32615
-7.61025
-7.87506
-8.10094
-8.27225
-8.37023
-8.36922
-8.26647
-8.07022
-7.77321
-7.36469
-6.85036
-6.24097
-4.49904
-5.26731
-5.36733
-5.52048
-5.70015
-5.89803
-6.11616
-6.34596
-6.5672
-6.77142
-6.94786
-7.07374
-7.12666
-7.09867
-6.99688
-6.82264
-6.56872
-6.23161
-5.8117
-5.30914
-3.5841
-4.58333
-4.62742
-4.73394
-4.86165
-5.01327
-5.18535
-5.36374
-5.53751
-5.69943
-5.83342
-5.91707
-5.94394
-5.91589
-5.82928
-5.68052
-5.46846
-5.19035
-4.84111
-4.42611
-2.77795
-3.87972
-3.87501
-3.94547
-4.03735
-4.1525
-4.28227
-4.41546
-4.54991
-4.67258
-4.76622
-4.82827
-4.85489
-4.83391
-4.76098
-4.63592
-4.45648
-4.21991
-3.92688
-3.59233
-2.10536
-3.17345
-3.14356
-3.18628
-3.24627
-3.32308
-3.40715
-3.49937
-3.59684
-3.68843
-3.76696
-3.82745
-3.85651
-3.84226
-3.78417
-3.6815
-3.525
-3.3144
-3.06943
-2.80945
-1.5915
-2.47587
-2.44098
-2.46132
-2.48986
-2.52618
-2.56773
-2.61827
-2.68071
-2.75272
-2.82598
-2.88417
-2.91303
-2.90794
-2.86311
-2.77073
-2.63134
-2.45956
-2.27221
-2.0769
-1.22331
-1.76581
-1.74953
-1.75852
-1.7628
-1.76604
-1.77401
-1.79076
-1.82086
-1.86647
-1.92007
-1.96473
-1.98792
-1.98341
-1.94255
-1.86176
-1.7525
-1.62982
-1.50011
-1.36596
-0.819028
-1.10388
-1.13278
-1.14705
-1.15131
-1.15106
-1.1521
-1.1555
-1.16173
-1.17422
-1.18928
-1.19613
-1.18695
-1.16025
-1.11747
-1.05908
-0.98586
-0.899615
-0.806865
-0.715739
293891
307375
221758
138817
86.3271
56.1484
50.2121
39.0889
30.9072
25.5024
21.6045
18.5057
15.9443
13.739
11.6716
329681
319167
314545
308388
12659.5
33.8012
39.1499
34.9497
29.203
24.5086
20.9185
18.0444
15.6491
13.6001
11.8145
335505
327375
321389
316541
16651.7
19.3942
27.9575
28.3157
25.5192
22.3323
19.4486
17.0173
14.9577
13.1773
11.638
340141
333813
328436
293948
6.71554
14.343
20.4975
22.2114
21.3589
19.528
17.4839
15.5901
13.9392
12.4779
11.1876
344039
339629
335603
94915.6
1.37712
10.7875
15.5477
17.4486
17.5055
16.6013
15.3017
13.9499
12.7075
11.5723
10.5334
347411
345159
290846
-13.049
0.864818
7.63004
11.719
13.6165
14.1387
13.8348
13.112
12.2427
11.3772
10.5448
9.74562
341043
189136
-17.2934
-4.64894
0.126902
5.37012
8.69946
10.5069
11.2648
11.3438
11.0474
10.5736
10.0361
9.47076
8.88842
-73.9536
-15.5008
-10.4889
-4.08827
-0.288809
3.64661
6.35055
7.99537
8.84477
9.16865
9.17855
9.01135
8.74649
8.40802
8.013
-22.4878
-16.9045
-10.3888
-5.0621
-0.945806
2.22519
4.48152
5.9528
6.83204
7.31239
7.53601
7.59951
7.55004
7.39492
7.15489
-17.6829
-13.1931
-8.75215
-4.78177
-1.49337
1.08003
2.96814
4.28451
5.17116
5.75129
6.12601
6.35787
6.46907
6.45448
6.33732
-13.984
-10.809
-7.53136
-4.48795
-1.90316
0.164095
1.7523
2.93865
3.81151
4.45422
4.93205
5.28346
5.51107
5.59917
5.57588
-11.577
-9.11476
-6.60464
-4.26733
-2.23716
-0.551134
0.805528
1.87749
2.71939
3.39321
3.9376
4.37125
4.67594
4.8329
4.87869
-9.76291
-7.85591
-5.92536
-4.10753
-2.48341
-1.0817
0.0934911
1.06362
1.86901
2.5498
3.13028
3.61323
3.95787
4.15427
4.24748
-8.40804
-6.90618
-5.38764
-3.9394
-2.61126
-1.43729
-0.415352
0.464848
1.22938
1.90456
2.49607
2.99428
3.34584
3.5579
3.68066
-7.32884
-6.12561
-4.90282
-3.7239
-2.62554
-1.63235
-0.742034
0.056552
0.777732
1.43137
2.01251
2.49314
2.8245
3.03561
3.17451
-6.39155
-5.41208
-4.42005
-3.45527
-2.54508
-1.70119
-0.919716
-0.196043
0.475302
1.09277
1.64524
2.08184
2.37632
2.5786
2.7222
-5.53866
-4.74022
-3.93146
-3.14005
-2.38569
-1.66966
-0.984496
-0.332219
0.283565
0.856978
1.3616
1.73428
1.988
2.17744
2.31668
-4.73556
-4.09367
-3.43703
-2.78777
-2.16107
-1.55115
-0.954819
-0.376447
0.179931
0.700955
1.13123
1.4306
1.65004
1.82229
1.95119
-3.96357
-3.45244
-2.92831
-2.40502
-1.88625
-1.36825
-0.854469
-0.348757
0.145183
0.595324
0.930291
1.16445
1.35259
1.50298
1.61734
-3.22827
-2.82556
-2.41232
-1.99645
-1.57328
-1.14071
-0.704974
-0.267485
0.157217
0.503805
0.742819
0.929661
1.0858
1.21143
1.3084
-2.53352
-2.22664
-1.9104
-1.58384
-1.24209
-0.887152
-0.522983
-0.154228
0.173529
0.402826
0.572376
0.718481
0.841505
0.941371
1.01942
-1.87262
-1.64982
-1.42034
-1.17464
-0.906246
-0.621887
-0.32697
-0.0467595
0.157097
0.296705
0.417258
0.523516
0.612943
0.686232
0.743877
-1.22758
-1.07923
-0.925012
-0.756111
-0.565975
-0.356053
-0.148789
0.00971937
0.109806
0.192613
0.268965
0.336116
0.39274
0.438607
0.474228
-0.626557
-0.524071
-0.416384
-0.311595
-0.213887
-0.115896
-0.0308599
0.016478
0.0512039
0.0862746
0.119185
0.14769
0.171755
0.190652
0.205047
9.46399
8.56031
7.83537
7.20094
6.63955
6.1417
5.70247
5.31127
4.95987
4.64261
4.35532
4.09441
3.8577
3.6416
3.44316
3.26074
3.09235
2.93557
2.78975
2.65513
2.53054
2.41379
2.30439
2.20295
2.10908
2.02181
1.93987
1.86153
1.78502
1.70909
1.63432
1.56311
1.49745
1.43781
1.38378
1.33462
1.28962
1.2482
1.20992
1.17436