/*--------------------------------*- C++ -*----------------------------------*\
| =========                 |                                                 |
| \\      /  F ield         | OpenFOAM: The Open Source CFD Toolbox           |
|  \\    /   O peration     | Version:  v1912                                 |
|   \\  /    A nd           | Website:  www.openfoam.com                      |
|    \\/     M anipulation  |                                                 |
\*---------------------------------------------------------------------------*/
FoamFile
{
    version     2.0;
    format      ascii;
    class       surfaceScalarField;
    location    "4";
    object      phi;
}
// * * * * * * * * * * * * * * * * * * * * * * * * * * * * * * * * * * * * * //

dimensions      [0 3 -1 0 0 0 0];
oriented        oriented;


internalField   nonuniform List<scalar> 
40282
(
0.00368951
0.00017684
2.43414
-2.44356
2.4444
-0.000837176
-2.44566
2.44502
0.000639677
-2.4429
2.4431
-0.000199475
-2.44377
2.44256
0.00120362
-2.43915
2.43234
0.00681102
-2.41966
2.39834
0.0213179
-2.36529
2.31773
0.0475639
-2.25437
2.17512
0.079256
-2.07983
1.96825
0.111583
-1.84081
1.69933
0.141477
-1.54705
1.3882
0.158856
-1.22735
1.06891
0.158435
-0.916831
0.77444
0.142391
-0.644419
0.528761
0.115658
-0.428699
0.344576
0.0841232
-0.2757
0.220322
0.0553779
-0.175805
0.138869
0.0369354
-0.106063
0.075165
0.0308983
-0.045571
0.0189133
0.0266577
-0.000580488
0.000946994
2.3503
-2.34967
2.3483
-0.00156955
0.00294157
-2.34611
2.34425
-0.0029133
0.00477142
-2.33941
2.32687
-0.00296023
0.015499
-2.3054
2.2737
-0.0142737
0.0459794
-2.23213
2.18199
-0.0391642
0.0893065
-2.12454
2.06091
-0.0744171
0.138042
-1.99246
1.92035
-0.116686
0.188799
-1.84536
1.76813
-0.161804
0.239036
-1.68931
1.60954
-0.205436
0.28521
-1.52928
1.44875
-0.241907
0.322439
-1.36784
1.28622
-0.263767
0.345385
-1.20349
1.11927
-0.266631
0.35085
-1.03331
0.945501
-0.2515
0.339307
-0.855906
0.764768
-0.223019
0.314157
-0.672558
0.580014
-0.187091
0.279635
-0.488143
0.398076
-0.148084
0.238151
-0.310923
0.228023
-0.106086
0.188987
-0.152411
0.0895568
-0.0694416
0.132296
-0.0446817
0.0172493
-0.0516362
0.0790685
-0.00177845
0.00210031
2.26613
-2.2646
2.26238
-0.00429141
0.00650965
-2.25363
2.23483
-0.0124111
0.0312097
-2.20601
2.1688
-0.0431362
0.0803466
-2.12489
2.07559
-0.0910237
0.140324
-2.02188
1.96453
-0.14621
0.203559
-1.90417
1.84134
-0.203324
0.266147
-1.77661
1.71048
-0.259473
0.3256
-1.64346
1.576
-0.312298
0.379762
-1.50846
1.4411
-0.358883
0.426244
-1.37404
1.30725
-0.395589
0.462374
-1.24057
1.17368
-0.418794
0.485676
-1.10626
1.03793
-0.426325
0.494651
-0.96841
0.89751
-0.418319
0.48922
-0.82518
0.751526
-0.396797
0.470451
-0.676796
0.601351
-0.364243
0.439687
-0.525618
0.450042
-0.322
0.397576
-0.375079
0.301237
-0.269643
0.343485
-0.229174
0.159807
-0.205625
0.274992
-0.0946184
0.0365764
-0.126254
0.184296
-0.00176612
0.00322881
2.1838
-2.17993
2.16371
-0.0149297
0.0311512
-2.13775
2.10407
-0.0601147
0.0938013
-2.06432
2.01976
-0.123406
0.167963
-1.97133
1.91975
-0.192456
0.244034
-1.86562
1.80943
-0.261732
0.31792
-1.75162
1.69256
-0.328243
0.387307
-1.63258
1.57199
-0.389899
0.450487
-1.51105
1.44998
-0.44484
0.505915
-1.38893
1.32802
-0.491143
0.552054
-1.26728
1.2067
-0.526832
0.587413
-1.1462
1.08565
-0.550175
0.610724
-1.02491
0.963838
-0.560096
0.621167
-0.902307
0.840228
-0.556382
0.618461
-0.777563
0.714326
-0.539504
0.602741
-0.650583
0.586434
-0.510086
0.574235
-0.521998
0.457388
-0.468288
0.532898
-0.392678
0.327867
-0.413333
0.478144
-0.262835
0.197336
-0.342982
0.408481
-0.131157
0.0646079
-0.248786
0.315335
-0.00831659
0.0177796
2.09751
-2.08527
2.05948
-0.0536117
0.0794078
-2.02682
1.9889
-0.130989
0.168917
-1.9468
1.90134
-0.214207
0.259661
-1.85317
1.80279
-0.296166
0.346541
-1.75065
1.69709
-0.373872
0.427425
-1.64245
1.58699
-0.445581
0.501042
-1.53095
1.47452
-0.509946
0.56637
-1.41789
1.36117
-0.565731
0.622451
-1.30446
1.24784
-0.611731
0.668351
-1.19134
1.13495
-0.64681
0.703197
-1.07866
1.02242
-0.670016
0.726259
-0.966169
0.909849
-0.680702
0.737022
-0.853396
0.796751
-0.678569
0.735214
-0.739862
0.682683
-0.66359
0.72077
-0.625164
0.567244
-0.63583
0.69375
-0.508838
0.449824
-0.59527
0.654285
-0.390023
0.329199
-0.5417
0.602524
-0.267069
0.203339
-0.474297
0.538026
-0.137766
0.0701103
-0.384344
0.451999
-0.0309222
0.0476145
2.01492
-1.99544
1.96584
-0.10807
0.137665
-1.93121
1.89265
-0.208136
0.246696
-1.85094
1.80665
-0.305514
0.349802
-1.76026
1.71216
-0.396764
0.444866
-1.66267
1.61207
-0.480479
0.531075
-1.56061
1.50849
-0.5558
0.607922
-1.45588
1.40295
-0.622002
0.67494
-1.3498
1.29653
-0.678379
0.73164
-1.24324
1.18995
-0.724229
0.777513
-1.13671
1.08353
-0.758892
0.812075
-1.0304
0.977296
-0.781814
0.834916
-0.924191
0.871039
-0.792599
0.845751
-0.817787
0.764371
-0.791038
0.844453
-0.710719
0.656745
-0.777103
0.831076
-0.60235
0.547415
-0.750938
0.805874
-0.491799
0.435338
-0.712856
0.769317
-0.377849
0.319137
-0.663278
0.72199
-0.259005
0.197272
-0.601934
0.663667
-0.133761
0.0681889
-0.520029
0.585601
-0.0665608
0.0878809
1.93721
-1.9139
1.88303
-0.168673
0.199548
-1.84835
1.81062
-0.285668
0.323394
-1.7704
1.72812
-0.393957
0.436238
-1.68413
1.63871
-0.492523
0.537938
-1.59213
1.54458
-0.581059
0.628605
-1.49626
1.44733
-0.65937
0.708304
-1.39791
1.34814
-0.727218
0.776996
-1.29809
1.24785
-0.784308
0.834549
-1.19747
1.147
-0.830301
0.880773
-1.09646
1.04585
-0.864865
0.915467
-0.995188
0.944441
-0.887723
0.93847
-0.893583
0.842575
-0.898697
0.949705
-0.791362
0.739882
-0.897756
0.949236
-0.688058
0.635803
-0.885048
0.937303
-0.583018
0.529594
-0.860941
0.914365
-0.475411
0.420345
-0.826025
0.881091
-0.364269
0.307063
-0.780968
0.838175
-0.248615
0.188829
-0.725521
0.785307
-0.127599
0.0647423
-0.650996
0.713853
-0.110288
0.134208
1.86459
-1.83909
1.8082
-0.231107
0.26199
-1.77442
1.73824
-0.361082
0.39726
-1.70006
1.66017
-0.478101
0.517985
-1.61884
1.57629
-0.582737
0.625294
-1.53269
1.4882
-0.675455
0.719938
-1.44298
1.39713
-0.756547
0.802395
-1.35076
1.30396
-0.826147
0.872947
-1.2568
1.20933
-0.88427
0.931736
-1.16161
1.11365
-0.930859
0.978818
-1.06547
1.01709
-0.965831
1.01421
-0.968487
0.919651
-0.989131
1.03797
-0.870551
0.821149
-1.00078
1.05018
-0.771397
0.721238
-1.00094
1.05109
-0.670608
0.619436
-0.989914
1.04109
-0.567645
0.515156
-0.968246
1.02074
-0.461888
0.407763
-0.936646
0.990771
-0.352711
0.296668
-0.895794
0.951837
-0.239585
0.181422
-0.845308
0.903471
-0.122137
0.061654
-0.776575
0.837058
-0.15842
0.183558
1.7957
-1.76911
1.73894
-0.293143
0.323313
-1.70655
1.67228
-0.433161
0.467437
-1.63636
1.59903
-0.55731
0.594648
-1.56044
1.52076
-0.66716
0.706841
-1.48012
1.43863
-0.763695
0.80518
-1.39641
1.35353
-0.847553
0.890431
-1.31008
1.26611
-0.919144
0.963108
-1.22169
1.17684
-0.97872
1.02356
-1.13161
1.08601
-1.02644
1.07205
-1.04004
0.993705
-1.06243
1.10876
-0.946996
0.89989
-1.08681
1.13391
-0.85236
0.804372
-1.09976
1.14775
-0.755883
0.706848
-1.10159
1.15063
-0.657216
0.606935
-1.09273
1.14302
-0.555952
0.504217
-1.07379
1.12553
-0.451683
0.39831
-1.04549
1.09886
-0.344065
0.288928
-1.00842
1.06355
-0.23289
0.175951
-0.962027
1.01897
-0.118117
0.0593893
-0.897671
0.956398
-0.208472
0.233913
1.73031
-1.7037
1.67463
-0.353506
0.382569
-1.64387
1.6116
-0.501322
0.533593
-1.57797
1.54313
-0.631387
0.666236
-1.50717
1.47022
-0.745834
0.782785
-1.43237
1.3937
-0.845966
0.884639
-1.35428
1.31418
-0.932653
0.97275
-1.27346
1.23216
-1.0065
1.0478
-1.19032
1.14796
-1.06795
1.11031
-1.1051
1.06175
-1.11733
1.16068
-1.01791
0.973573
-1.15493
1.19927
-0.928713
0.883312
-1.18102
1.22642
-0.837341
0.790764
-1.19591
1.24249
-0.743546
0.695646
-1.2
1.2479
-0.647026
0.597646
-1.19377
1.24315
-0.547471
0.496472
-1.17785
1.22885
-0.444624
0.391913
-1.15288
1.20559
-0.338334
0.283892
-1.11933
1.17377
-0.228605
0.172499
-1.07648
1.13259
-0.115611
0.0579941
-1.01556
1.07318
-0.258797
0.283954
1.66762
-1.64152
1.61373
-0.411524
0.439312
-1.58461
1.55426
-0.565459
0.595814
-1.52275
1.49016
-0.700533
0.733117
-1.45658
1.42208
-0.819123
0.853626
-1.38672
1.35058
-0.922694
0.958842
-1.31369
1.27613
-1.01226
1.04983
-1.23791
1.19909
-1.08857
1.1274
-1.15968
1.1197
-1.15222
1.1922
-1.07915
1.03804
-1.20369
1.24481
-0.99634
0.954043
-1.2434
1.2857
-0.911122
0.867544
-1.27175
1.31533
-0.823275
0.778275
-1.28915
1.33415
-0.732505
0.685926
-1.29604
1.34262
-0.6385
0.590194
-1.29293
1.34123
-0.54098
0.490838
-1.28037
1.33051
-0.439759
0.38774
-1.25893
1.31095
-0.334792
0.280938
-1.22891
1.28276
-0.226211
0.170657
-1.18942
1.24497
-0.11433
0.0573085
-1.1315
1.18852
-0.308381
0.332969
1.60756
-1.58202
1.55544
-0.46697
0.493542
-1.52777
1.49904
-0.625853
0.654592
-1.46927
1.43854
-0.765294
0.796028
-1.40689
1.37439
-0.887679
0.92018
-1.34109
1.30706
-0.994522
1.02856
-1.27233
1.23696
-1.08692
1.12229
-1.20098
1.16441
-1.16576
1.20232
-1.12728
1.08957
-1.23175
1.26945
-1.0513
1.01245
-1.28554
1.3244
-0.97298
0.932872
-1.32769
1.3678
-0.892082
0.850564
-1.3587
1.40022
-0.808269
0.765143
-1.37907
1.4222
-0.721136
0.676198
-1.38927
1.43421
-0.630281
0.583348
-1.38978
1.43671
-0.535367
0.486317
-1.38106
1.43011
-0.43619
0.384989
-1.36353
1.41473
-0.332733
0.279453
-1.33732
1.3906
-0.225194
0.170012
-1.30135
1.35653
-0.113974
0.0571665
-1.24644
1.30325
-0.35681
0.38085
1.54984
-1.5251
1.49943
-0.52009
0.545762
-1.47276
1.4451
-0.683228
0.710889
-1.41648
1.38697
-0.826615
0.856129
-1.35662
1.32549
-0.952491
0.983614
-1.29367
1.2612
-1.06235
1.09482
-1.22814
1.19455
-1.15736
1.19095
-1.16046
1.12589
-1.23852
1.27309
-1.09086
1.05536
-1.30673
1.34223
-1.01936
0.982857
-1.36279
1.3993
-0.945788
0.908107
-1.40745
1.44513
-0.869749
0.830647
-1.44133
1.48044
-0.790726
0.749907
-1.46502
1.50584
-0.708115
0.665275
-1.47899
1.52183
-0.62132
0.576188
-1.48366
1.52879
-0.529831
0.482215
-1.47939
1.52701
-0.433321
0.383147
-1.46639
1.51656
-0.331713
0.279054
-1.44456
1.49722
-0.225225
0.170293
-1.4126
1.46753
-0.114338
0.0574479
-1.36112
1.41801
-0.40428
0.428111
1.49342
-1.46948
1.44413
-0.571652
0.597
-1.41776
1.39041
-0.73879
0.766143
-1.36214
1.33302
-0.885869
0.914986
-1.30315
1.27264
-1.0149
1.04542
-1.24156
1.21002
-1.12733
1.15887
-1.17808
1.14582
-1.22443
1.25669
-1.11327
1.08047
-1.30737
1.34017
-1.04741
1.01409
-1.37728
1.4106
-0.980473
0.946511
-1.43522
1.46919
-0.912135
0.877265
-1.48214
1.51701
-0.841805
0.805652
-1.51884
1.555
-0.768694
0.730813
-1.54601
1.58389
-0.691894
0.65182
-1.56415
1.60423
-0.610481
0.567779
-1.57362
1.61632
-0.523627
0.477958
-1.57459
1.62026
-0.430725
0.381908
-1.56703
1.61584
-0.331515
0.279583
-1.5505
1.60243
-0.226178
0.17139
-1.52339
1.57818
-0.115324
0.0580815
-1.47609
1.53334
-0.451636
0.475944
1.43866
-1.41475
1.38887
-0.622958
0.648845
-1.36184
1.33378
-0.794214
0.822278
-1.3048
1.27505
-0.944817
0.974566
-1.24468
1.21385
-1.07653
1.10736
-1.1827
1.15136
-1.1908
1.22214
-1.11994
1.08852
-1.28905
1.32047
-1.05718
1.02593
-1.37277
1.40402
-0.994776
0.963702
-1.44341
1.47448
-0.93265
0.901544
-1.50237
1.53347
-0.870286
0.838756
-1.5509
1.58243
-0.806818
0.774324
-1.59005
1.62255
-0.741112
0.707011
-1.62067
1.65477
-0.671847
0.635444
-1.6433
1.67971
-0.597628
0.558233
-1.65826
1.69766
-0.517107
0.474115
-1.66552
1.70851
-0.429153
0.382149
-1.66471
1.71171
-0.333076
0.281956
-1.65491
1.70603
-0.228867
0.173939
-1.63399
1.68892
-0.117344
0.0592521
-1.59198
1.65007
-0.50039
0.526175
1.38478
-1.35984
1.33229
-0.675896
0.703449
-1.3034
1.27339
-0.851681
0.881696
-1.24247
1.21089
-1.00563
1.03721
-1.1789
1.14674
-1.1393
1.17147
-1.11462
1.08273
-1.25424
1.28613
-1.05123
1.02024
-1.3522
1.38319
-0.989823
0.960019
-1.4351
1.4649
-0.930819
0.902177
-1.50493
1.53357
-0.874014
0.846219
-1.56354
1.59133
-0.818654
0.791157
-1.61258
1.64008
-0.763545
0.735616
-1.65345
1.68137
-0.707153
0.677924
-1.68717
1.7164
-0.647686
0.616185
-1.71447
1.74597
-0.583162
0.548351
-1.73564
1.77045
-0.511492
0.472334
-1.75053
1.78969
-0.430646
0.386235
-1.7584
1.80281
-0.338963
0.288771
-1.75765
1.80784
-0.235706
0.179942
-1.74517
1.80093
-0.121793
0.0616554
-1.7101
1.77024
-0.552679
0.58122
1.33151
-1.30486
1.27426
-0.73287
0.763469
-1.24207
1.20864
-0.913805
0.947237
-1.17435
1.13958
-1.07081
1.10558
-1.10472
1.07013
-1.20532
1.23991
-1.03613
1.00298
-1.31916
1.35231
-0.970885
0.939986
-1.41468
1.44558
-0.910361
0.88203
-1.49453
1.52286
-0.854961
0.829075
-1.56139
1.58728
-0.804251
0.780336
-1.61775
1.64166
-0.757147
0.734477
-1.66574
1.68841
-0.712098
0.689761
-1.70711
1.72945
-0.667202
0.644134
-1.74321
1.76628
-0.620252
0.59523
-1.77498
1.8
-0.568713
0.540321
-1.80292
1.83131
-0.509645
0.476247
-1.82697
1.86036
-0.439671
0.399458
-1.84621
1.88642
-0.355172
0.306448
-1.85837
1.90709
-0.253073
0.195093
-1.8587
1.91668
-0.132982
0.0677337
-1.83388
1.89912
-0.611137
0.643902
1.27841
-1.24847
1.21326
-0.796767
0.831977
-1.17613
1.13762
-0.983638
1.02214
-1.09835
1.05892
-1.14317
1.1826
-1.01991
0.981864
-1.27677
1.31482
-0.945202
0.910269
-1.38693
1.42187
-0.877302
0.84644
-1.47704
1.5079
-0.817737
0.791169
-1.55087
1.57744
-0.766648
0.744038
-1.61205
1.63466
-0.72316
0.703808
-1.66379
1.68314
-0.685751
0.668743
-1.70872
1.72572
-0.652524
0.636823
-1.74894
1.76464
-0.621355
0.605819
-1.78611
1.80164
-0.589891
0.573217
-1.82148
1.83816
-0.555399
0.53598
-1.85603
1.87545
-0.514425
0.4901
-1.89029
1.91462
-0.46225
0.429977
-1.92403
1.9563
-0.392232
0.347835
-1.95521
1.9996
-0.295565
0.234412
-1.97768
2.03884
-0.164236
0.0868244
-1.97285
2.05026
-0.678726
0.717204
1.2257
-1.19111
1.1495
-0.870845
0.912456
-1.10547
1.05992
-1.06466
1.11022
-1.01381
0.96812
-1.22573
1.27142
-0.923724
0.881349
-1.35569
1.39806
-0.841545
0.804689
-1.45844
1.4953
-0.770994
0.740535
-1.53921
1.56967
-0.713276
0.689093
-1.60339
1.62757
-0.6678
0.649169
-1.65576
1.6744
-0.632943
0.618851
-1.70026
1.71435
-0.606618
0.595972
-1.73988
1.75053
-0.586645
0.57838
-1.77693
1.78519
-0.570921
0.564019
-1.81318
1.82008
-0.557416
0.550839
-1.85019
1.85677
-0.543979
0.536466
-1.88953
1.89704
-0.527835
0.517471
-1.93299
1.94335
-0.504532
0.487843
-1.98254
1.99922
-0.465739
0.435846
-2.03966
2.06955
-0.394833
0.33831
-2.1024
2.15893
-0.261589
0.160546
-2.15279
2.25384
-0.758259
0.8035
1.17382
-1.13219
1.08199
-0.958864
1.00906
-1.02854
0.973422
-1.16109
1.21621
-0.918338
0.864828
-1.32174
1.37525
-0.814137
0.767162
-1.44358
1.49055
-0.724466
0.686331
-1.53362
1.57176
-0.652812
0.623803
-1.60013
1.62914
-0.599079
0.578348
-1.6506
1.67133
-0.561273
0.547503
-1.69101
1.70478
-0.536688
0.528491
-1.72577
1.73397
-0.5226
0.518734
-1.75795
1.76181
-0.516645
0.516126
-1.78967
1.79019
-0.517004
0.519146
-1.8225
1.82035
-0.522456
0.526866
-1.85789
1.85348
-0.532337
0.538844
-1.8977
1.89119
-0.546361
0.554834
-1.9448
1.93633
-0.564129
0.573936
-2.00416
1.99435
-0.583593
0.591715
-2.0849
2.07678
-0.595474
0.589313
-2.20523
2.21139
-0.563125
0.502272
-2.41638
2.47723
0.00327932
-0.00602657
0.00274725
-0.00572969
0.00781347
-0.00208379
-0.00957513
0.0111256
-0.0015505
-0.0125368
0.0138258
-0.00128908
-0.0150064
0.0160836
-0.00107726
-0.0170683
0.0179611
-0.000892868
-0.018768
0.0194872
-0.000719246
-0.0201218
0.0206718
-0.000550071
-0.0211446
0.021544
-0.000399455
-0.021878
0.0221472
-0.000269234
-0.0223559
0.0225029
-0.000147054
-0.0225928
0.0226269
-3.41011e-05
-0.0226119
0.0225417
7.01711e-05
-0.0224276
0.0222697
0.000157924
-0.0220826
0.021862
0.000220576
-0.0216146
0.0213389
0.000275688
-0.0210436
0.0207261
0.000317452
-0.0203913
0.0200431
0.000348217
-0.0196843
0.0193177
0.000366529
-0.0189494
0.0185804
0.000368993
-0.0182193
0.0178593
0.000359968
-0.0175026
0.0171464
0.00035614
-0.0167914
0.0164373
0.00035412
-0.0160831
0.015723
0.000360111
-0.0153622
0.0149979
0.000364284
-0.0146376
0.0142744
0.000363168
-0.013914
0.0135552
0.00035876
-0.0132066
0.012862
0.000344599
-0.0125207
0.0121785
0.000342165
-0.0118324
0.0114941
0.000338302
-0.0111537
0.0108324
0.000321258
-0.0105091
0.0102161
0.000292975
-0.00992877
0.00968073
0.000248029
-0.00944329
0.00923425
0.000209035
-0.00903737
0.00885378
0.000183584
-0.00868614
0.00852004
0.000166097
-0.00836856
0.00820988
0.000158677
-0.0080613
0.00790498
0.000156324
-0.0077548
0.00759768
0.000157118
-0.0074406
0.00727489
0.000165711
-0.00710724
0.00693408
0.000173158
-0.00676279
0.0065909
0.000171889
-0.00641976
0.00624714
0.000172618
-0.00607065
0.00588987
0.000180788
-0.00570655
0.00552216
0.000184393
-0.00534087
0.00516292
0.000177944
-0.00498933
0.00481918
0.000170151
-0.00464972
0.00448145
0.000168271
-0.0043117
0.00414181
0.000169898
-0.00397119
0.00380089
0.000170296
-0.00363231
0.00346535
0.000166963
-0.00330148
0.00313996
0.000161517
-0.00298127
0.00282493
0.000156341
-0.00267058
0.00251823
0.000152348
-0.00236711
0.00221715
0.000149962
-0.00206792
0.0019196
0.000148319
-0.0017714
0.00162353
0.000147867
-0.00147455
0.00132408
0.000150466
-0.00117149
0.00101258
0.00015891
-0.000853769
0.00066071
0.000193059
0.00859184
-0.0109429
0.00235101
-0.00468787
0.00661151
0.00404577
-0.00596941
-0.00838896
0.0100077
0.00311404
-0.00473277
-0.0114805
0.0128235
0.002581
-0.00392396
-0.0140555
0.0151824
0.00216285
-0.00328976
-0.0162131
0.0171502
0.00179728
-0.00273434
-0.0180001
0.0187628
0.00145418
-0.00221691
-0.0194447
0.0200451
0.00112606
-0.00172646
-0.0205708
0.0210214
0.000830005
-0.00128059
-0.0214056
0.021722
0.000570555
-0.000886888
-0.0219777
0.0221711
0.000328456
-0.000521876
-0.0223058
0.0223817
0.000102005
-0.000177942
-0.0224043
0.0223749
-0.000105983
0.000135352
-0.0223002
0.0221852
-0.000281207
0.000396181
-0.0220338
0.0218516
-0.00041268
0.000594809
-0.0216436
0.0214092
-0.000521028
0.000755389
-0.021155
0.0208784
-0.000607772
0.000884412
-0.0205843
0.0202693
-0.000677157
0.000992151
-0.0199391
0.0195944
-0.000717318
0.00106203
-0.0192409
0.0188849
-0.000722728
0.0010788
-0.0185284
0.0181781
-0.000704176
0.00105441
-0.0178313
0.0174888
-0.000692489
0.00103496
-0.0171479
0.0168042
-0.000692248
0.00103596
-0.0164566
0.0161017
-0.000711181
0.00106608
-0.0157388
0.0153695
-0.000731468
0.00110073
-0.0149949
0.0146197
-0.000737135
0.00111232
-0.0142482
0.0138838
-0.000720967
0.00108534
-0.01353
0.0131895
-0.000681783
0.00102228
-0.0128619
0.0125475
-0.000659237
0.000973548
-0.0122401
0.0119393
-0.000647208
0.000947999
-0.0116418
0.0113442
-0.000625135
0.000922649
-0.0110554
0.0107714
-0.000581351
0.000865375
-0.0105044
0.0102513
-0.000499963
0.000753108
-0.0100225
0.00981145
-0.000417831
0.000628912
-0.00961924
0.00944087
-0.000361819
0.000540191
-0.00927199
0.00910968
-0.000329913
0.000492226
-0.00894875
0.00879157
-0.000319623
0.000476804
-0.00863419
0.00847724
-0.000315754
0.000472708
-0.00831999
0.008159
-0.000318877
0.000479869
-0.00799329
0.00782059
-0.000336878
0.000509579
-0.00764134
0.00745671
-0.000354084
0.000538717
-0.0072696
0.00708177
-0.000355122
0.000542947
-0.00689551
0.00670984
-0.000354686
0.000540356
-0.00652433
0.00633699
-0.000364576
0.000551912
-0.00614684
0.00595408
-0.000371759
0.000564519
-0.00575988
0.00556631
-0.000364256
0.000557825
-0.00537485
0.00518646
-0.000351464
0.000539851
-0.00500131
0.0048182
-0.000345255
0.000528363
-0.0046367
0.00445534
-0.000345763
0.000527117
-0.0042742
0.00409341
-0.000345535
0.000526326
-0.00391327
0.00373479
-0.000338846
0.000517318
-0.00355832
0.00338435
-0.000328254
0.000502226
-0.00321262
0.00304315
-0.000318467
0.000487943
-0.00287522
0.00270875
-0.000311142
0.000477614
-0.00254328
0.00237919
-0.000305939
0.000470028
-0.00221595
0.0020537
-0.000302429
0.000464682
-0.00189191
0.0017305
-0.000301775
0.000463181
-0.00156848
0.00140571
-0.000306587
0.000469358
-0.00124118
0.001074
-0.000321587
0.000488768
-0.000899345
0.000726815
-0.000372496
0.000545025
0.0131876
-0.0153554
0.00216785
-0.00430738
0.00619441
0.00784643
-0.00973346
-0.00795554
0.00960346
0.00635168
-0.0079996
-0.0111294
0.0125339
0.00528713
-0.00669172
-0.0138242
0.0150042
0.00443166
-0.00561168
-0.0160814
0.017059
0.00368051
-0.00465809
-0.0179427
0.0187349
0.00298553
-0.0037777
-0.0194408
0.0200608
0.00232945
-0.00294953
-0.0206009
0.0210623
0.00173053
-0.00219196
-0.0214509
0.0217673
0.00119827
-0.00151472
-0.0220165
0.0221998
0.000705571
-0.000888904
-0.0223223
0.0223854
0.000243767
-0.000306847
-0.0223943
0.0223527
-0.00017485
0.000216422
-0.0222658
0.02214
-0.000521222
0.000647025
-0.0219801
0.0217921
-0.000782529
0.000970521
-0.0215817
0.0213516
-0.000989219
0.00121928
-0.0211059
0.0208449
-0.00115424
0.00141519
-0.0205726
0.0202839
-0.00129472
0.00158343
-0.0199817
0.0196626
-0.00139552
0.00171465
-0.0193295
0.0189832
-0.00143148
0.00177776
-0.0186275
0.0182653
-0.00140933
0.00177151
-0.0179003
0.0175344
-0.00138526
0.00175119
-0.0171683
0.0168015
-0.00138741
0.00175418
-0.0164352
0.0160688
-0.00142478
0.00179122
-0.0157035
0.0153396
-0.00146776
0.00183169
-0.0149778
0.0146205
-0.00148017
0.00183754
-0.014268
0.0139193
-0.00144179
0.00179045
-0.0135757
0.0132401
-0.00135711
0.00169268
-0.0129139
0.0126044
-0.00128
0.00158941
-0.012312
0.0120401
-0.00122731
0.00149913
-0.0117878
0.0115527
-0.00118258
0.00141773
-0.0113336
0.011123
-0.00110975
0.00132035
-0.0109218
0.0107206
-0.000976861
0.00117802
-0.0105237
0.0103286
-0.000831183
0.00102631
-0.0101353
0.00994416
-0.000723222
0.000914333
-0.00975432
0.00956731
-0.000666588
0.000853595
-0.00938316
0.00920314
-0.000648477
0.000828504
-0.00902514
0.00884939
-0.000641448
0.000817199
-0.00867481
0.00849751
-0.000650307
0.000827606
-0.00831858
0.00813534
-0.000688911
0.000872146
-0.00794895
0.00775901
-0.000727123
0.00091706
-0.00756753
0.00737465
-0.00073386
0.000926747
-0.00718278
0.00699078
-0.000729108
0.000921113
-0.00679878
0.00660562
-0.000740684
0.000933849
-0.00641046
0.00621295
-0.000757308
0.000954819
-0.00601388
0.00581459
-0.000752639
0.000951937
-0.00561672
0.00542145
-0.000730349
0.000925619
-0.0052291
0.0050391
-0.000712968
0.000902967
-0.00485094
0.00466328
-0.00070991
0.000897573
-0.00447557
0.004288
-0.000709063
0.000896637
-0.00410089
0.00391468
-0.000697604
0.000883815
-0.00373009
0.00354756
-0.000678154
0.000860684
-0.0033668
0.00318808
-0.00065978
0.000838498
-0.00301073
0.00283479
-0.000646145
0.000822078
-0.00266024
0.00248707
-0.000635822
0.000808995
-0.00231481
0.00214397
-0.000628179
0.000799019
-0.00197363
0.00180372
-0.000626163
0.000796079
-0.00163383
0.0014637
-0.000633811
0.000803939
-0.00129269
0.00112252
-0.000655851
0.000826029
-0.000953107
0.000785993
-0.000712389
0.000879502
0.0175096
-0.0196011
0.00209154
-0.00412723
0.00600115
0.0116
-0.0134739
-0.00776741
0.00943179
0.00963972
-0.0113041
-0.0109847
0.0124267
0.00810407
-0.00954606
-0.013754
0.014972
0.00680132
-0.00801932
-0.0160811
0.0170877
0.00564226
-0.00664888
-0.0179929
0.0188038
0.0045716
-0.0053825
-0.0195215
0.0201503
0.0035673
-0.0041961
-0.0206929
0.0211542
0.00264698
-0.0031083
-0.0215375
0.0218464
0.00182129
-0.00213019
-0.0220839
0.0222546
0.00106084
-0.00123154
-0.0223634
0.0224145
0.000359996
-0.000411055
-0.0224132
0.0223642
-0.000264493
0.000313426
-0.0222729
0.0221432
-0.000776437
0.000906191
-0.0219799
0.0217875
-0.00116021
0.00135261
-0.0215708
0.0213336
-0.00145138
0.00168858
-0.02108
0.0208137
-0.00167648
0.00194279
-0.0205387
0.020255
-0.00186834
0.00215207
-0.0199646
0.0196628
-0.00202454
0.00232629
-0.0193512
0.0190226
-0.00211659
0.00244512
-0.0186787
0.0183162
-0.00213598
0.00249851
-0.0179401
0.0175531
-0.00212903
0.00251609
-0.0171613
0.0167699
-0.00213327
0.00252468
-0.0163849
0.0160108
-0.00215972
0.00253386
-0.0156502
0.0153026
-0.00218457
0.00253211
-0.0149675
0.0146424
-0.00217526
0.00250037
-0.0143237
0.0140083
-0.00212008
0.00243544
-0.0136925
0.013379
-0.00201581
0.00232926
-0.0130705
0.0127768
-0.00188837
0.00218201
-0.0125032
0.0122568
-0.0017533
0.00199968
-0.0120396
0.0118483
-0.00162684
0.00181818
-0.0116814
0.0115228
-0.00150196
0.00166055
-0.0113699
0.0112053
-0.00135884
0.00152342
-0.0110321
0.010843
-0.00121717
0.00140628
-0.0106455
0.0104423
-0.00111246
0.00131573
-0.0102352
0.0100294
-0.00104846
0.00125421
-0.00982625
0.00962695
-0.00101799
0.00121729
-0.00943016
0.00923369
-0.00100412
0.00120059
-0.00903739
0.00883961
-0.00101619
0.00121396
-0.0086434
0.00844765
-0.00106299
0.00125873
-0.00825506
0.00806184
-0.00110993
0.00130315
-0.00786876
0.00767252
-0.00112176
0.001318
-0.0074742
0.00727293
-0.00111704
0.00131831
-0.00707092
0.0068683
-0.00113035
0.00133298
-0.00666646
0.00646473
-0.00115283
0.00135456
-0.0062634
0.00606183
-0.00115077
0.00135234
-0.00586076
0.00565981
-0.00112178
0.00132273
-0.00546022
0.00526187
-0.00109483
0.00129318
-0.0050653
0.00486979
-0.00108708
0.00128258
-0.00467541
0.00448146
-0.00108555
0.0012795
-0.00428813
0.00409524
-0.0010712
0.0012641
-0.00390322
0.00371228
-0.00104526
0.0012362
-0.00352245
0.00333401
-0.00101947
0.00120791
-0.00314721
0.00296207
-0.000999773
0.00118491
-0.00277862
0.00259678
-0.000983505
0.00116534
-0.00241635
0.00223704
-0.000971045
0.00115035
-0.00205849
0.00188031
-0.000967236
0.00114541
-0.00170229
0.0015243
-0.000975947
0.00115394
-0.00134602
0.00116645
-0.000999037
0.00117861
-0.000985387
0.000811305
-0.00104762
0.0012217
0.0216515
-0.0236402
0.00198872
-0.00399255
0.00585678
0.0153242
-0.0171885
-0.00763723
0.00931475
0.0129593
-0.0146368
-0.0108883
0.0123484
0.0109845
-0.0124445
-0.0136985
0.0149341
0.00923604
-0.0104716
-0.0160611
0.0170793
0.00765272
-0.00867092
-0.0179962
0.0188156
0.00618855
-0.00700798
-0.0195387
0.0201727
0.00482068
-0.00545468
-0.0207195
0.0211856
0.00356559
-0.00403165
-0.0215734
0.0218877
0.00243551
-0.00274988
-0.0221315
0.0223099
0.00140016
-0.00157851
-0.0224271
0.0224869
0.000462385
-0.000522168
-0.0224946
0.0224543
-0.000359815
0.000400121
-0.022372
0.0222495
-0.00103242
0.00115498
-0.0220909
0.0218977
-0.00154364
0.00173684
-0.0216739
0.0214227
-0.00192974
0.00218094
-0.0211479
0.0208564
-0.00221827
0.00250982
-0.020551
0.0202384
-0.00244629
0.00275896
-0.0199199
0.0195981
-0.00263423
0.00295599
-0.0192736
0.0189416
-0.00277427
0.00310631
-0.0186009
0.0182458
-0.00286081
0.00321598
-0.0178787
0.017501
-0.00290448
0.00328223
-0.0171185
0.0167374
-0.00291546
0.00329649
-0.016364
0.0160035
-0.00290148
0.00326193
-0.0156583
0.015328
-0.00286616
0.00319639
-0.015011
0.0147059
-0.00280742
0.00311251
-0.0144096
0.0141221
-0.00273005
0.00301755
-0.0138388
0.0135635
-0.00262114
0.00289646
-0.0132959
0.0130432
-0.00245579
0.00270855
-0.0128072
0.0125912
-0.00223164
0.00244767
-0.0123989
0.0122267
-0.00199784
0.00217009
-0.0120759
0.0119318
-0.00180866
0.00195276
-0.0117934
0.0116423
-0.00167898
0.00183003
-0.0114817
0.0113016
-0.00158971
0.00176986
-0.0111084
0.0109058
-0.00151901
0.00172162
-0.0106916
0.0104794
-0.00146131
0.00167346
-0.0102637
0.0100522
-0.00142028
0.00163178
-0.00983814
0.00962543
-0.00140449
0.00161721
-0.00941016
0.00919614
-0.00142107
0.00163509
-0.00898497
0.0087791
-0.00146116
0.00166703
-0.00857922
0.00838194
-0.00149865
0.00169592
-0.00818516
0.00798391
-0.00151671
0.00171796
-0.00777718
0.00756508
-0.00152444
0.00173653
-0.00735165
0.00713886
-0.00154016
0.00175295
-0.00693007
0.00672451
-0.00155725
0.0017628
-0.00652183
0.00631895
-0.00155265
0.00175553
-0.00611471
0.00590824
-0.00152398
0.00173045
-0.00570034
0.0054918
-0.00149441
0.00170295
-0.00528472
0.00507967
-0.0014807
0.00168576
-0.00487737
0.00467688
-0.00147436
0.00167484
-0.00447778
0.00427881
-0.00145764
0.0016566
-0.00407989
0.00388068
-0.00142895
0.00162816
-0.00368143
0.00348389
-0.0013983
0.00159583
-0.00328759
0.00309379
-0.00137151
0.00156531
-0.00290161
0.0027117
-0.00134832
0.00153823
-0.00252272
0.00233512
-0.00133099
0.00151859
-0.00214771
0.00196114
-0.00132511
0.00151168
-0.00177461
0.00158878
-0.00133319
0.00151902
-0.00140373
0.00122158
-0.00135761
0.00153976
-0.00104254
0.000862664
-0.00139798
0.00157785
0.0256211
-0.0276068
0.00198568
-0.00390573
0.0057747
0.0190364
-0.0209054
-0.00756585
0.00925804
0.0163067
-0.0179989
-0.0108385
0.0123123
0.013898
-0.0153718
-0.0136731
0.0149187
0.011701
-0.0129466
-0.0160517
0.0170747
0.00968246
-0.0107055
-0.0179932
0.0188101
0.00781889
-0.00863578
-0.0195342
0.020169
0.00608246
-0.00671724
-0.0207206
0.0211935
0.00449666
-0.00496962
-0.0215921
0.0219191
0.00306788
-0.00339493
-0.0221785
0.0223747
0.00176426
-0.0019604
-0.0225122
0.0225926
0.000591657
-0.000672123
-0.02262
0.0225966
-0.000431653
0.00045508
-0.0225272
0.0224131
-0.00127238
0.00138651
-0.0222583
0.0220636
-0.00192917
0.00212382
-0.0218329
0.0215682
-0.00243703
0.00270175
-0.0212732
0.0209531
-0.00281436
0.00313445
-0.0206121
0.0202568
-0.0030913
0.0034466
-0.019891
0.0195224
-0.00329921
0.0036678
-0.0191553
0.0187932
-0.00345184
0.00381387
-0.0184379
0.0180875
-0.0035692
0.00391959
-0.0177427
0.0174006
-0.00364432
0.00398644
-0.0170628
0.016728
-0.00365631
0.00399104
-0.016398
0.0160725
-0.00360484
0.00393033
-0.0157526
0.0154373
-0.00351631
0.00383166
-0.015127
0.0148256
-0.00341114
0.00371248
-0.0145358
0.0142645
-0.00329195
0.00356318
-0.0140112
0.0137808
-0.00314606
0.00337645
-0.0135705
0.0133773
-0.00293239
0.00312565
-0.0131973
0.0130231
-0.0026454
0.00281958
-0.0128546
0.0126863
-0.00234222
0.00251053
-0.0125235
0.0123598
-0.00210655
0.00227025
-0.0121991
0.0120339
-0.00198683
0.0021521
-0.0118671
0.0116916
-0.00194548
0.00212101
-0.011509
0.0113179
-0.00192115
0.00211224
-0.011114
0.0109018
-0.00188337
0.00209559
-0.0106821
0.010459
-0.00184583
0.00206896
-0.0102323
0.0100082
-0.00183403
0.00205806
-0.00978504
0.00956419
-0.00185277
0.00207361
-0.00934672
0.00913373
-0.00187747
0.00209046
-0.00892546
0.00871852
-0.00189826
0.00210521
-0.0085116
0.00829957
-0.00192461
0.00213664
-0.00808324
0.0078626
-0.00195279
0.00217343
-0.00764157
0.00742238
-0.00196916
0.00218835
-0.00720804
0.0069981
-0.00197054
0.00218048
-0.00679082
0.00658327
-0.00195875
0.0021663
-0.00637348
0.00615999
-0.00193804
0.00215152
-0.00594343
0.00572547
-0.00191425
0.00213221
-0.00550853
0.00529377
-0.00189354
0.0021083
-0.00508221
0.00487371
-0.00187658
0.00208508
-0.00466705
0.00446117
-0.00185634
0.00206221
-0.00425499
0.00404872
-0.00182889
0.00203516