/*--------------------------------*- C++ -*----------------------------------*\
| =========                 |                                                 |
| \\      /  F ield         | OpenFOAM: The Open Source CFD Toolbox           |
|  \\    /   O peration     | Version:  v1912                                 |
|   \\  /    A nd           | Website:  www.openfoam.com                      |
|    \\/     M anipulation  |                                                 |
\*---------------------------------------------------------------------------*/
FoamFile
{
    version     2.0;
    format      ascii;
    class       volVectorField;
    location    "4";
    object      U;
}
// * * * * * * * * * * * * * * * * * * * * * * * * * * * * * * * * * * * * * //

dimensions      [0 1 -1 0 0 0 0];


internalField   nonuniform List<vector> 
20320
(
(2.3755 0.00203284 0)
(2.36698 -0.0123127 0)
(2.35393 -0.00894005 0)
(2.35755 -0.00690621 0)
(2.35007 -0.00560444 0)
(2.35051 0.0037186 0)
(2.32388 0.0167832 0)
(2.26171 0.054549 0)
(2.13893 0.104115 0)
(1.95646 0.157699 0)
(1.70987 0.214841 0)
(1.41542 0.246144 0)
(1.10468 0.237379 0)
(0.811616 0.196983 0)
(0.561562 0.1389 0)
(0.369268 0.0798565 0)
(0.236796 0.0415513 0)
(0.150803 0.034725 0)
(0.0870174 0.0376405 0)
(0.0286022 0.0330532 0)
(2.37423 0.00235127 0)
(2.35849 0.000971189 0)
(2.33846 0.00371474 0)
(2.33569 0.00847741 0)
(2.29097 0.0535032 0)
(2.20806 0.137351 0)
(2.09325 0.235964 0)
(1.95654 0.340991 0)
(1.80664 0.447775 0)
(1.64912 0.548332 0)
(1.48865 0.630725 0)
(1.32679 0.680829 0)
(1.16129 0.690188 0)
(0.989367 0.660402 0)
(0.81023 0.600965 0)
(0.625956 0.523713 0)
(0.442359 0.434888 0)
(0.268501 0.328927 0)
(0.116164 0.210259 0)
(0.026939 0.137184 0)
(2.37643 0.00548242 0)
(2.34997 0.00976056 0)
(2.32842 0.0406217 0)
(2.2698 0.132676 0)
(2.17868 0.254806 0)
(2.06733 0.387799 0)
(1.94216 0.521902 0)
(1.80794 0.651143 0)
(1.66899 0.770441 0)
(1.52895 0.873942 0)
(1.3899 0.954802 0)
(1.2516 1.00651 0)
(1.11176 1.02513 0)
(0.967595 1.01069 0)
(0.817618 0.966389 0)
(0.662677 0.896202 0)
(0.505651 0.802227 0)
(0.350186 0.683354 0)
(0.200328 0.534719 0)
(0.0670129 0.343215 0)
(2.37518 0.00378352 0)
(2.33733 0.0471237 0)
(2.28222 0.168656 0)
(2.19695 0.322552 0)
(2.09277 0.484535 0)
(1.97636 0.64412 0)
(1.85203 0.795491 0)
(1.72305 0.934435 0)
(1.59199 1.05717 0)
(1.46071 1.15987 0)
(1.33009 1.23878 0)
(1.19996 1.29067 0)
(1.06934 1.31347 0)
(0.937007 1.30663 0)
(0.802237 1.27069 0)
(0.665146 1.20646 0)
(0.526551 1.11393 0)
(0.387261 0.991439 0)
(0.247026 0.834833 0)
(0.108848 0.625045 0)
(2.36729 0.0265908 0)
(2.31238 0.145979 0)
(2.24047 0.332369 0)
(2.14662 0.526208 0)
(2.03917 0.714147 0)
(1.92286 0.890583 0)
(1.80098 1.05219 0)
(1.67598 1.19636 0)
(1.54965 1.32067 0)
(1.42318 1.42276 0)
(1.29715 1.50043 0)
(1.17159 1.55185 0)
(1.04612 1.57574 0)
(0.9202 1.57143 0)
(0.793305 1.53878 0)
(0.664997 1.47787 0)
(0.534694 1.38878 0)
(0.401207 1.27148 0)
(0.262474 1.12471 0)
(0.120045 0.928918 0)
(2.35866 0.0854845 0)
(2.2918 0.27215 0)
(2.21256 0.505073 0)
(2.11606 0.728157 0)
(2.00874 0.935364 0)
(1.89425 1.12427 0)
(1.7752 1.29339 0)
(1.6535 1.44142 0)
(1.53054 1.56703 0)
(1.40724 1.6689 0)
(1.28407 1.74577 0)
(1.16116 1.79657 0)
(1.0383 1.82056 0)
(0.915101 1.81734 0)
(0.790973 1.78694 0)
(0.66512 1.72979 0)
(0.536429 1.64678 0)
(0.403367 1.53908 0)
(0.264144 1.40617 0)
(0.120892 1.22853 0)
(2.35198 0.170419 0)
(2.27796 0.408686 0)
(2.19551 0.676709 0)
(2.09901 0.922636 0)
(1.99346 1.14527 0)
(1.88168 1.34444 0)
(1.76575 1.52001 0)
(1.6472 1.67169 0)
(1.52713 1.79902 0)
(1.40626 1.90141 0)
(1.28499 1.97829 0)
(1.16343 2.02917 0)
(1.04141 2.05376 0)
(0.918536 2.05212 0)
(0.794191 2.02467 0)
(0.667537 1.97234 0)
(0.537519 1.89655 0)
(0.402933 1.79884 0)
(0.262596 1.6786 0)
(0.119316 1.51657 0)
(2.34729 0.270902 0)
(2.26914 0.547684 0)
(2.18573 0.842724 0)
(2.09071 1.10705 0)
(1.98787 1.34262 0)
(1.87939 1.55083 0)
(1.76686 1.73253 0)
(1.65148 1.88821 0)
(1.53413 2.01805 0)
(1.41538 2.12205 0)
(1.29551 2.20015 0)
(1.17458 2.25233 0)
(1.05241 2.27876 0)
(0.928614 2.27985 0)
(0.802632 2.25641 0)
(0.673757 2.20967 0)
(0.541202 2.14126 0)
(0.404182 2.05264 0)
(0.262039 1.9429 0)
(0.118152 1.79288 0)
(2.34414 0.379506 0)
(2.26377 0.6849 0)
(2.18075 1.00086 0)
(2.08805 1.28028 0)
(1.98846 1.52705 0)
(1.88356 1.74358 0)
(1.77458 1.93146 0)
(1.66243 2.09171 0)
(1.54777 2.22501 0)
(1.43102 2.33183 0)
(1.31238 2.41252 0)
(1.19182 2.46746 0)
(1.06915 2.49714 0)
(0.943994 2.50228 0)
(0.81589 2.4839 0)
(0.684297 2.44337 0)
(0.548695 2.38227 0)
(0.408657 2.30185 0)
(0.263912 2.20081 0)
(0.118307 2.05988 0)
(2.34212 0.491266 0)
(2.26076 0.817899 0)
(2.17894 1.15013 0)
(2.08892 1.44212 0)
(1.99269 1.69881 0)
(1.89136 1.92325 0)
(1.78586 2.11745 0)
(1.67686 2.28285 0)
(1.56486 2.42053 0)
(1.45015 2.53131 0)
(1.3328 2.61589 0)
(1.21273 2.67496 0)
(1.08967 2.70928 0)
(0.963282 2.71974 0)
(0.833137 2.70747 0)
(0.69883 2.67381 0)
(0.56004 2.62017 0)
(0.416595 2.54751 0)
(0.268491 2.45415 0)
(0.119968 2.32049 0)
(2.34084 0.602906 0)
(2.25934 0.945439 0)
(2.17899 1.29049 0)
(2.0915 1.59319 0)
(1.99827 1.85888 0)
(1.90011 2.09088 0)
(1.79772 2.29149 0)
(1.69163 2.46245 0)
(1.58222 2.60516 0)
(1.46965 2.72076 0)
(1.35389 2.81027 0)
(1.23473 2.87463 0)
(1.11182 2.9148 0)
(0.984754 2.93178 0)
(0.853084 2.92669 0)
(0.716447 2.90074 0)
(0.574627 2.8551 0)
(0.4276 2.79036 0)
(0.275542 2.70445 0)
(0.123025 2.57735 0)
(2.33988 0.712505 0)
(2.25875 1.06727 0)
(2.17952 1.42281 0)
(2.0938 1.73493 0)
(2.00266 2.00888 0)
(1.90677 2.24804 0)
(1.80677 2.45488 0)
(1.70315 2.63142 0)
(1.5962 2.77935 0)
(1.48599 2.90017 0)
(1.37234 2.99521 0)
(1.25487 3.06566 0)
(1.13307 3.11266 0)
(1.00634 3.13726 0)
(0.874103 3.1405 0)
(0.735921 3.12337 0)
(0.591555 3.0867 0)
(0.441039 3.03066 0)
(0.284651 2.95274 0)
(0.127275 2.83247 0)
(2.33881 0.819477 0)
(2.25808 1.1842 0)
(2.17885 1.54894 0)
(2.09339 1.86965 0)
(2.00275 2.1512 0)
(1.90769 2.39688 0)
(1.80898 2.60932 0)
(1.70717 2.79084 0)
(1.60255 2.94353 0)
(1.49506 3.0693 0)
(1.38436 3.16987 0)
(1.26981 3.24675 0)
(1.15058 3.30125 0)
(1.02577 3.33446 0)
(0.894498 3.34729 0)
(0.756051 3.34042 0)
(0.610021 3.31422 0)
(0.456387 3.26831 0)
(0.295485 3.19966 0)
(0.132546 3.08733 0)
(2.3371 0.9246 0)
(2.25621 1.29823 0)
(2.1749 1.67183 0)
(2.08731 2.00064 0)
(1.9948 2.28898 0)
(1.89855 2.54007 0)
(1.79964 2.75677 0)
(1.69882 2.94184 0)
(1.59643 3.09792 0)
(1.49231 3.22752 0)
(1.38583 3.33287 0)
(1.276 3.41591 0)
(1.16152 3.47819 0)
(1.04097 3.52089 0)
(0.912921 3.54473 0)
(0.776157 3.55001 0)
(0.629845 3.53647 0)
(0.473725 3.50296 0)
(0.308152 3.44567 0)
(0.138849 3.34315 0)
(2.33423 1.03013 0)
(2.25177 1.41257 0)
(2.1652 1.79547 0)
(2.07211 2.13202 0)
(1.97456 2.42601 0)
(1.87449 2.68068 0)
(1.77356 2.89932 0)
(1.67286 3.08541 0)
(1.5728 3.24242 0)
(1.47305 3.37368 0)
(1.37264 3.48216 0)
(1.27004 3.57035 0)
(1.16335 3.6402 0)
(1.05039 3.69302 0)
(0.928904 3.72946 0)
(0.796782 3.74937 0)
(0.652334 3.7517 0)
(0.494661 3.73413 0)
(0.323951 3.69151 0)
(0.146749 3.60144 0)
(2.32972 1.13979 0)
(2.2432 1.5317 0)
(2.14703 1.92495 0)
(2.044 2.26883 0)
(1.93741 2.56669 0)
(1.83038 2.82206 0)
(1.72542 3.03907 0)
(1.62407 3.22232 0)
(1.52677 3.37652 0)
(1.43292 3.50611 0)
(1.34107 3.61501 0)
(1.24906 3.70646 0)
(1.15421 3.78295 0)
(1.05344 3.84615 0)
(0.943394 3.89678 0)
(0.820561 3.93446 0)
(0.681627 3.95733 0)
(0.524066 3.96148 0)
(0.347049 3.93927 0)
(0.158254 3.86574 0)
(2.32317 1.25865 0)
(2.22888 1.66126 0)
(2.1175 2.06634 0)
(1.99901 2.4168 0)
(1.87857 2.71578 0)
(1.76108 2.96755 0)
(1.65018 3.17776 0)
(1.54781 3.3528 0)
(1.45428 3.49908 0)
(1.3685 3.62248 0)
(1.28837 3.72804 0)
(1.21104 3.81985 0)
(1.13308 3.90108 0)
(1.05056 3.97397 0)
(0.958923 4.03982 0)
(0.852906 4.09865 0)
(0.726492 4.14849 0)
(0.573399 4.18401 0)
(0.388702 4.19364 0)
(0.179708 4.1452 0)
(2.31444 1.39279 0)
(2.20723 1.80787 0)
(2.07368 2.22663 0)
(1.93296 2.58231 0)
(1.79317 2.8781 0)
(1.66177 3.12001 0)
(1.54361 3.31633 0)
(1.44073 3.47618 0)
(1.35285 3.60822 0)
(1.27802 3.71996 0)
(1.21329 3.81753 0)
(1.15516 3.90577 0)
(1.09972 3.98847 0)
(1.04262 4.06864 0)
(0.978751 4.14874 0)
(0.901474 4.23051 0)
(0.801609 4.31413 0)
(0.666205 4.39585 0)
(0.478305 4.4617 0)
(0.233435 4.46442 0)
(2.30383 1.54886 0)
(2.17687 1.97901 0)
(2.01248 2.41386 0)
(1.84118 2.77224 0)
(1.67618 3.05805 0)
(1.52824 3.28108 0)
(1.40301 3.45423 0)
(1.30169 3.59049 0)
(1.22255 3.7012 0)
(1.16224 3.7954 0)
(1.11677 3.87995 0)
(1.08211 3.95994 0)
(1.05438 4.03935 0)
(1.02984 4.12172 0)
(1.00434 4.21086 0)
(0.972249 4.31149 0)
(0.924117 4.42966 0)
(0.841821 4.57182 0)
(0.688038 4.73832 0)
(0.409534 4.88529 0)
(2.29297 1.73275 0)
(2.13676 2.18335 0)
(1.92968 2.63789 0)
(1.71744 2.99381 0)
(1.52204 3.25848 0)
(1.35745 3.44989 0)
(1.22824 3.58841 0)
(1.13293 3.69196 0)
(1.0671 3.77443 0)
(1.0254 3.84576 0)
(1.00269 3.91269 0)
(0.994643 3.97972 0)
(0.99803 4.05009 0)
(1.01079 4.12681 0)
(1.03189 4.21389 0)
(1.06089 4.318 0)
(1.09675 4.45135 0)
(1.13416 4.63815 0)
(1.14674 4.9304 0)
(1.07257 5.45737 0)
(0.0104685 -0.00931734 0)
(0.0273028 -0.00223152 0)
(0.04069 -0.00160731 0)
(0.0514395 -0.00134248 4.99292e-22)
(0.0604207 -0.00111644 0)
(0.0679034 -0.000921218 0)
(0.0740234 -0.000737504 0)
(0.0788222 -0.000553639 0)
(0.0823917 -0.000392746 0)
(0.0849015 -0.000255524 3.83921e-22)
(0.0864498 -0.00012317 0)
(0.0870923 -6.50712e-06 0)
(0.0869214 0.000102524 -4.03266e-22)
(0.086005 0.000193188 -4.0486e-22)
(0.0845339 0.000251613 0)
(0.0826044 0.000306155 4.00735e-22)
(0.0803132 0.000342669 -3.96557e-22)
(0.0777342 0.000366423 7.82179e-22)
(0.0749703 0.00038314 0)
(0.0721332 0.000387335 3.7539e-22)
(0.0693429 0.00037902 -3.66492e-22)
(0.0665954 0.000378991 -7.11486e-22)
(0.0638661 0.000375493 3.45029e-22)
(0.0611325 0.000376629 -3.33751e-22)
(0.0583518 0.000371096 0)
(0.0555682 0.000363079 -3.12301e-22)
(0.0527889 0.000362096 0)
(0.0500955 0.000353552 2.90965e-22)
(0.0474625 0.000362428 5.61913e-22)
(0.0448229 0.000361016 0)
(0.0422516 0.000337118 2.56106e-22)
(0.039832 0.000304267 -2.40645e-22)
(0.037695 0.00025564 1.12748e-22)
(0.0359131 0.000217016 -1.06404e-22)
(0.0344074 0.000190866 0)
(0.0330961 0.000167635 0)
(0.0318916 0.0001567 -9.3646e-23)
(0.0307137 0.000153917 0)
(0.0295338 0.000155204 8.80347e-23)
(0.0283085 0.000165226 0)
(0.0270094 0.000171964 0)
(0.0256859 0.000168054 7.80168e-23)
(0.0243654 0.000170366 0)
(0.023006 0.000183687 0)
(0.0215969 0.000187521 -6.75053e-23)
(0.0202026 0.000177131 -6.30668e-23)
(0.0188667 0.000166879 0)
(0.0175647 0.000166788 2.74499e-23)
(0.016261 0.000171241 -2.52859e-23)
(0.0149499 0.000173221 2.32798e-23)
(0.0136524 0.000169868 0)
(0.0123905 0.000163706 -1.94015e-23)
(0.0111692 0.000158175 0)
(0.0099821 0.000153688 7.70373e-24)
(0.00881958 0.000151086 0)
(0.00767198 0.000149054 0)
(0.00653233 0.000148663 7.03355e-29)
(0.00538593 0.000152374 7.76708e-29)
(0.00425102 0.000162879 0)
(0.00315165 0.000211045 0)
(0.0144795 -0.0194352 0)
(0.0262896 -0.0100206 0)
(0.0386689 -0.00784968 -3.21891e-22)
(0.0491246 -0.00650336 0)
(0.0579058 -0.00545172 0)
(0.0652407 -0.00453199 5.39327e-22)
(0.0712439 -0.00367135 -5.87756e-22)
(0.0760078 -0.0028526 0)
(0.0796356 -0.00211114 5.87605e-25)
(0.0822415 -0.0014583 3.46442e-22)
(0.0839065 -0.000851318 4.9685e-25)
(0.0846831 -0.0002817 7.28349e-22)
(0.0846427 0.00024103 -3.67431e-22)
(0.0839129 0.000678753 0)
(0.0826534 0.00101109 0)
(0.0809812 0.00128242 -3.62401e-22)
(0.0789804 0.00150089 0)
(0.0766937 0.00167964 0)
(0.0741656 0.00178884 -4.34148e-25)
(0.0715034 0.00180832 0)
(0.0688457 0.00176181 0)
(0.0662519 0.00172835 0)
(0.0636828 0.00172845 3.23261e-22)
(0.0610491 0.00177954 -3.13502e-22)
(0.0583031 0.00183725 3.03781e-22)
(0.055482 0.00185699 2.94503e-22)
(0.0526966 0.00181415 0)
(0.0500642 0.00171019 0)
(0.0476226 0.00163903 2.67673e-22)
(0.045325 0.00160367 2.11568e-25)
(0.0430943 0.00155777 0)
(0.0409341 0.00145475 -1.97709e-25)
(0.0389609 0.00125597 -2.17098e-22)
(0.0372771 0.0010449 0)
(0.0358597 0.000897874 0)
(0.0346035 0.000817991 -1.87085e-22)
(0.033401 0.000793788 0)
(0.0322177 0.000787226 0)
(0.0310285 0.000798054 0)
(0.0297717 0.000846492 -8.38902e-23)
(0.0284147 0.000893264 -8.08269e-23)
(0.0270047 0.000898647 1.54297e-22)
(0.0256022 0.000895599 -7.38238e-23)
(0.0242025 0.00091719 0)
(0.0227692 0.000936909 6.7067e-23)
(0.0213102 0.000922192 0)
(0.019873 0.000891285 -5.8751e-23)
(0.0184808 0.000873689 2.73917e-23)
(0.0171136 0.000873114 2.52827e-23)
(0.0157502 0.000871882 -2.32883e-23)
(0.0143963 0.000855827 2.14225e-23)
(0.0130703 0.00083005 1.94306e-23)
(0.0117801 0.000805838 -3.47603e-23)
(0.0105175 0.000787845 0)
(0.0092734 0.000775036 0)
(0.00804538 0.000766392 0)
(0.00682817 0.000764314 0)
(0.00560907 0.000775245 1.59566e-24)
(0.00438797 0.000810204 -1.6223e-24)
(0.00316152 0.000915494 0)
(0.0183988 -0.0281983 0)
(0.0281087 -0.0173892 -1.63601e-22)
(0.0395274 -0.0141942 0)
(0.0496528 -0.0118412 -3.74025e-22)
(0.0582547 -0.00992629 -4.50247e-22)
(0.0654135 -0.00824275 -5.13118e-22)
(0.0712166 -0.00668437 0)
(0.075759 -0.00521806 -6.08468e-22)
(0.0791493 -0.00387864 0)
(0.0814977 -0.00268441 0)
(0.0828672 -0.00157985 0)
(0.0833427 -0.000548588 0)
(0.0830344 0.000383765 0)
(0.082098 0.00115294 0)
(0.0807023 0.00173238 0)
(0.0789844 0.00218445 0)
(0.077042 0.00254388 0)
(0.0749175 0.00285253 -3.50617e-22)
(0.072606 0.00308257 0)
(0.070123 0.00317809 0)
(0.0675195 0.00314496 0)
(0.0648509 0.00309632 0)
(0.0621515 0.00310056 0)
(0.0594277 0.00317773 0)
(0.056712 0.00326541 0)
(0.0540467 0.00328774 0)
(0.0514737 0.00320395 0)
(0.0489992 0.00302012 0)
(0.0466589 0.00283946 2.59405e-22)
(0.0445531 0.00270023 0)
(0.0427276 0.00257946 -2.31893e-22)
(0.0411498 0.00241294 0)
(0.0397212 0.00213723 0)
(0.0383376 0.00183746 0)
(0.0369657 0.00161691 0)
(0.035596 0.00150072 0)
(0.0342501 0.00145827 -9.30319e-23)
(0.0329439 0.00143969 0)
(0.0316486 0.00145845 0)
(0.0303123 0.00154167 0)
(0.0289241 0.0016254 8.09882e-23)
(0.0275098 0.00164185 -7.75692e-23)
(0.0260962 0.00163063 7.41798e-23)
(0.0246797 0.00165466 0)
(0.023238 0.0016927 6.72343e-23)
(0.0217734 0.00168527 0)
(0.020322 0.00163679 0)
(0.0189101 0.00159709 0)
(0.017525 0.00158867 0)
(0.0161438 0.00158699 -2.34564e-23)
(0.0147671 0.00156298 0)
(0.0134115 0.00152041 -3.90748e-23)
(0.0120842 0.00148012 0)
(0.0107803 0.00145059 0)
(0.00949544 0.00142741 -6.73243e-24)
(0.00822915 0.00141008 5.60885e-24)
(0.00697548 0.00140538 -8.82055e-24)
(0.00572419 0.00142072 1.61882e-24)
(0.00447585 0.00146455 0)
(0.00329033 0.0015795 1.76358e-25)
(0.022327 -0.0365189 0)
(0.0306665 -0.0247241 0)
(0.0413907 -0.0206488 0)
(0.0510387 -0.0173997 0)
(0.0592973 -0.014609 4.28212e-22)
(0.0661439 -0.0121151 0)
(0.0716334 -0.00981124 0)
(0.0758471 -0.00765187 1.2675e-24)
(0.078896 -0.00567292 0)
(0.0808988 -0.00389585 -1.20024e-24)
(0.0819249 -0.00226133 -6.65936e-22)
(0.0820924 -0.000761448 0)
(0.0815486 0.000567874 0)
(0.0804628 0.00165721 4.90523e-25)
(0.0789731 0.00247597 -4.68823e-25)
(0.0771824 0.00309465 4.50015e-25)
(0.0751855 0.00356788 -3.45607e-22)
(0.0730642 0.00396424 0)
(0.0708554 0.0042918 3.36728e-22)
(0.0685364 0.00449979 0)
(0.0660342 0.00456931 3.37139e-25)
(0.0633231 0.00457743 -3.23979e-25)
(0.0604978 0.00458999 3.03315e-25)
(0.0577112 0.00462756 2.99605e-22)
(0.055106 0.00465419 -2.89975e-22)
(0.0527073 0.00461695 0)
(0.0504541 0.00449949 0)
(0.0482495 0.00428982 1.90574e-25)
(0.0461156 0.00401572 -1.65209e-25)
(0.0442383 0.00370129 0)
(0.0427532 0.00339928 2.24272e-22)
(0.0416095 0.00312277 0)
(0.0405604 0.00284556 0)
(0.0393625 0.00258725 0)
(0.0379836 0.00239233 -4.1284e-22)
(0.0365238 0.00226844 0)
(0.0350761 0.00220187 0)
(0.0336626 0.00217063 -9.1799e-23)
(0.0322388 0.00219502 1.762e-22)
(0.0308036 0.00228688 -8.46762e-23)
(0.0293945 0.002379 -1.62935e-22)
(0.027997 0.00240496 0)
(0.0265677 0.00239884 -1.4967e-22)
(0.0251075 0.00242637 0)
(0.0236471 0.00247144 -6.7465e-23)
(0.0221974 0.00246798 6.3734e-23)
(0.0207544 0.00240918 0)
(0.0193225 0.00235242 2.7732e-23)
(0.0179077 0.00233454 0)
(0.0165075 0.00233066 -2.37187e-23)
(0.0151173 0.00230132 -2.16925e-23)
(0.0137379 0.00224749 1.9688e-23)
(0.0123737 0.00219409 -1.76814e-23)
(0.0110303 0.00215213 -1.56327e-23)
(0.00971045 0.00211696 0)
(0.00841171 0.00208988 5.62241e-24)
(0.00712563 0.00208122 4.47345e-24)
(0.00584258 0.00209813 -1.66955e-24)
(0.00456406 0.00214572 0)
(0.00332309 0.00222957 0)
(0.0258533 -0.0443697 -2.16564e-23)
(0.0333511 -0.0319203 1.31757e-22)
(0.0434918 -0.0270908 0)
(0.0526193 -0.0230002 -3.31928e-22)
(0.0604091 -0.0193469 4.07965e-22)
(0.0668139 -0.0160248 0)
(0.0718815 -0.0129547 0)
(0.0757075 -0.0100849 1.2812e-24)
(0.0784208 -0.00745444 -1.23668e-24)
(0.080145 -0.00508565 6.25511e-22)
(0.0809563 -0.00291861 6.46311e-22)
(0.0809785 -0.000960681 -1.08334e-24)
(0.0803446 0.000750571 -3.37908e-22)
(0.0792117 0.00215021 0)
(0.0776797 0.00322121 -4.7215e-25)
(0.0757986 0.0040335 -6.93329e-22)
(0.0736479 0.00463698 0)
(0.0713385 0.00510278 -3.34268e-22)
(0.0689705 0.00548024 -3.27024e-22)
(0.0665841 0.00576859 0)
(0.0641131 0.00596689 3.18929e-22)
(0.0614898 0.00607983 2.33258e-25)
(0.0587911 0.00610702 0)
(0.0561803 0.00605885 0)
(0.0537845 0.00595533 2.86686e-22)
(0.0516002 0.00581276 -2.16219e-25)
(0.0495766 0.00564475 0)
(0.047663 0.0054225 0)
(0.0458887 0.0050767 -1.20873e-25)
(0.0443631 0.00459712 0)
(0.0431387 0.00409039 -4.41858e-22)
(0.0421678 0.00368973 1.51702e-25)
(0.0412394 0.00344399 2.16403e-22)
(0.0401304 0.0032997 -4.28975e-22)
(0.0387992 0.00318305 4.19716e-22)
(0.0373329 0.00307679 4.07021e-22)
(0.0358423 0.0029937 0)
(0.034347 0.00296372 3.99752e-26)
(0.0328247 0.00299828 0)
(0.0313218 0.00306973 8.54756e-23)
(0.0298999 0.00313551 8.21328e-23)
(0.0285058 0.00317409 7.90611e-23)
(0.0270446 0.00319894 7.547e-23)
(0.0255336 0.0032308 -7.14109e-23)
(0.024057 0.00325837 6.76859e-23)
(0.0226296 0.00324717 6.41859e-23)
(0.0211986 0.00319352 -1.20398e-22)
(0.0197387 0.0031365 1.51951e-26)
(0.0182811 0.00310627 2.5988e-23)
(0.0168562 0.00309003 -2.39807e-23)
(0.0154554 0.00305593 2.18777e-23)
(0.0140571 0.00299949 0)
(0.01266 0.0029377 1.78652e-23)
(0.0112808 0.00288149 -1.57483e-23)
(0.00992994 0.00283218 0)
(0.0086006 0.00279578 5.63598e-24)
(0.00728112 0.00278318 4.54517e-24)
(0.00596712 0.00279879 4.59108e-27)
(0.0046732 0.00284315 0)
(0.00346965 0.00292713 -3.93344e-25)
(0.0295107 -0.051882 -1.95712e-23)
(0.0362228 -0.0390322 0)
(0.0458187 -0.0335225 1.46377e-24)
(0.0543922 -0.0286016 0)
(0.0616375 -0.0240853 0)
(0.0675203 -0.0199232 -4.55963e-22)
(0.0721057 -0.0160782 0)
(0.075506 -0.0125076 5.50087e-22)
(0.0778854 -0.00924875 -5.84305e-22)
(0.0793763 -0.00631171 1.22639e-21)
(0.0800458 -0.00363406 -6.36383e-22)
(0.0800062 -0.00122898 -6.57182e-22)
(0.079352 0.00087281 1.34259e-21)
(0.0781938 0.00260229 3.40349e-22)
(0.0766024 0.00396189 0)
(0.0746145 0.00501987 6.82236e-22)
(0.0722947 0.00580835 0)
(0.0697412 0.00638134 0)
(0.0670793 0.0067996 6.45068e-22)
(0.0644489 0.00709478 0)
(0.0619226 0.007318 0)
(0.0594996 0.0074645 -3.03045e-22)
(0.0571743 0.00748428 -5.92756e-22)
(0.0549463 0.00737315 0)
(0.0528073 0.00718514 -2.82267e-22)
(0.0507489 0.006961 0)
(0.048848 0.00669838 2.57733e-22)
(0.0472166 0.00637718 0)
(0.0459059 0.00592754 4.62559e-22)
(0.0448283 0.00534603 0)
(0.0438251 0.00474135 -2.21328e-22)
(0.0428159 0.00427145 2.19448e-22)
(0.0417614 0.00404032 0)
(0.0406238 0.00397416 -2.15648e-22)
(0.0393766 0.00394337 2.1158e-22)
(0.0379916 0.00388838 -2.06048e-22)
(0.0364915 0.00382329 1.0567e-25)
(0.0349403 0.00380189 9.5602e-23)
(0.0333928 0.00383686 -9.10229e-23)
(0.0318858 0.00387653 -1.44898e-26)
(0.0304425 0.00390942 0)
(0.0290023 0.00396595 -7.97696e-23)
(0.0274995 0.00403086 -7.60112e-23)
(0.0259701 0.00406202 0)
(0.0244933 0.0040548 -1.64608e-26)
(0.0230688 0.00402939 -6.44775e-23)
(0.021628 0.00399467 6.06616e-23)
(0.0201402 0.00395253 5.65076e-23)
(0.0186467 0.00390872 -5.25652e-23)
(0.0171926 0.00386949 -2.42253e-23)
(0.0157726 0.00382765 2.2059e-23)
(0.0143559 0.00377424 1.99896e-23)
(0.0129351 0.00370843 -1.79917e-23)
(0.0115296 0.00363729 0)
(0.0101505 0.00357335 1.35248e-23)
(0.00878934 0.00352944 0)
(0.00743601 0.003513 4.61325e-24)
(0.00609055 0.00352361 0)
(0.00476214 0.00355998 0)
(0.00348571 0.00361566 0)
(0.0336312 -0.0596409 2.31004e-23)
(0.0398035 -0.0460947 0)
(0.0488537 -0.0399263 0)
(0.0568273 -0.0341824 3.10525e-22)
(0.0634933 -0.0288006 0)
(0.0688359 -0.0237915 0)
(0.0729233 -0.0191634 0)
(0.0758646 -0.0148944 0)
(0.0778336 -0.0110254 0)
(0.0789643 -0.00754499 0)
(0.079334 -0.00437923 0)
(0.0790553 -0.00154123 -6.53098e-22)
(0.0782177 0.000953525 0)
(0.0769127 0.0030375 0)
(0.075186 0.00471426 6.69869e-22)
(0.0730832 0.00604445 0)
(0.0706802 0.00705149 -3.73451e-25)
(0.0680544 0.00777563 0)
(0.065304 0.00825727 3.12022e-25)
(0.0625879 0.00851503 0)
(0.0600636 0.00864546 0)
(0.0577944 0.00869999 -2.95226e-22)
(0.0557497 0.00866626 -2.90536e-22)
(0.0538128 0.00853382 2.84524e-22)
(0.0519079 0.00833709 -2.74896e-22)
(0.0500477 0.00807435 0)
(0.0483774 0.00767533 -1.05978e-25)
(0.0470824 0.00715852 -9.4525e-26)
(0.0461683 0.00655065 0)
(0.0454203 0.00593261 -2.25061e-22)
(0.0445641 0.00537791 0)
(0.0434809 0.00494737 -2.22659e-22)
(0.0422502 0.00471896 -1.40679e-25)
(0.0409982 0.00465213 -2.1659e-22)
(0.0397535 0.00465539 0)
(0.0384261 0.00468036 2.07257e-22)
(0.0369659 0.00466926 -2.00886e-22)
(0.0354459 0.00464943 -1.93376e-22)
(0.0339524 0.00466902 -9.2435e-23)
(0.0324749 0.00469462 -8.80914e-23)
(0.0309872 0.00472361 0)
(0.0294715 0.00479723 8.04525e-23)
(0.0279398 0.00488077 7.65004e-23)
(0.0264281 0.00490241 -2.3893e-26)
(0.0249561 0.00486719 0)
(0.0235021 0.00483406 6.46535e-23)
(0.0220255 0.00481973 -6.09844e-23)
(0.0205176 0.00479324 5.71125e-23)
(0.0190066 0.00473863 0)
(0.0175222 0.00467629 2.44339e-23)
(0.016069 0.00462248 0)
(0.0146306 0.00456942 0)
(0.013198 0.00450003 0)
(0.0117756 0.00441741 0)
(0.0103692 0.00434217 0)
(0.00897392 0.0042924 0)
(0.00758732 0.00427101 0)
(0.00621357 0.0042739 -3.77985e-24)
(0.00486879 0.00430152 -1.39584e-24)
(0.00361898 0.00436172 4.42885e-25)
(0.0379399 -0.0679243 0)
(0.0438385 -0.0531854 -2.01336e-24)
(0.0523701 -0.0462928 2.23374e-22)
(0.0597366 -0.0397306 3.13197e-22)
(0.0658048 -0.0334895 0)
(0.0705909 -0.0276325 0)
(0.0741604 -0.0222069 0)
(0.0766105 -0.0172182 5.63391e-22)
(0.078089 -0.0127142 0)
(0.0787056 -0.00867292 0)
(0.0785752 -0.00502272 0)
(0.0778472 -0.00176759 -6.48856e-22)
(0.0766442 0.00109161 0)
(0.0750884 0.0035035 0)
(0.073226 0.00548016 -6.5748e-22)
(0.0710829 0.00706326 0)
(0.0687386 0.00826779 0)
(0.0662658 0.00913089 0)
(0.0637257 0.00968992 -3.13772e-22)
(0.0612086 0.00993408 -3.05615e-22)
(0.0588089 0.009964 0)
(0.0565936 0.00989702 -2.91383e-22)
(0.054559 0.00977665 -2.86311e-22)
(0.0526831 0.00960433 -2.78262e-22)
(0.0509692 0.00937239 -2.65614e-22)
(0.0494766 0.00903515 0)
(0.0482798 0.00849232 0)
(0.0473821 0.0077913 0)
(0.0466906 0.00705504 0)
(0.0460226 0.00643718 0)
(0.0451922 0.00599221 0)
(0.0441006 0.00567659 2.26642e-22)
(0.0427826 0.00549094 0)
(0.0413815 0.00540256 0)
(0.0400006 0.00539154 -2.12784e-22)
(0.0386449 0.00544618 -2.07337e-22)
(0.03728 0.00547615 7.76735e-26)
(0.0358955 0.0054616 0)
(0.0344872 0.00547678 0)
(0.0330269 0.0055251 0)
(0.0314945 0.00558294 0)
(0.0299326 0.00566346 0)
(0.0283992 0.00573637 0)
(0.0269059 0.00574582 0)
(0.0254199 0.00570563 0)
(0.0239161 0.00567712 0)
(0.0223977 0.00567252 0)
(0.0208763 0.00565087 0)
(0.0193555 0.00559134 0)
(0.0178424 0.00551513 4.93024e-23)
(0.0163512 0.00544629 0)
(0.0148896 0.00538288 0)
(0.0134487 0.00530766 0)
(0.0120147 0.00521994 0)
(0.0105813 0.00514034 1.35865e-23)
(0.00915183 0.00508528 0)
(0.00773408 0.00505608 0)
(0.00633379 0.00504874 0)
(0.00495629 0.00506417 0)
(0.00363778 0.00510039 2.25926e-25)
(0.042021 -0.0763883 -2.50001e-23)
(0.0476002 -0.0603943 0)
(0.0557014 -0.0526532 4.54049e-22)
(0.0624879 -0.045239 0)
(0.0679341 -0.0381342 0)
(0.0721069 -0.0314258 0)
(0.075089 -0.025189 -5.21847e-22)
(0.0769828 -0.0194582 0)
(0.0779388 -0.0142855 1.20339e-21)
(0.0780427 -0.00964561 0)
(0.0774206 -0.00549787 -6.39543e-22)
(0.0762593 -0.0018421 6.47758e-22)
(0.0747226 0.001335 0)
(0.0729599 0.00400388 0)
(0.0710414 0.00621446 1.29319e-21)
(0.0689786 0.00800329 -6.42425e-22)
(0.0668081 0.00936804 1.2688e-21)
(0.0645713 0.0103424 -6.23292e-22)
(0.0623213 0.0109716 -3.06217e-22)
(0.0600852 0.0112526 0)
(0.0578606 0.0112683 2.95357e-22)
(0.0556773 0.0111425 -2.88768e-22)
(0.0536115 0.0109355 0)
(0.0517729 0.010646 2.69589e-22)
(0.0502819 0.0102593 0)
(0.0492137 0.00975017 -2.43019e-22)
(0.0485051 0.0090737 2.35146e-22)
(0.0479612 0.00830023 0)
(0.0473691 0.00755216 0)
(0.046626 0.00696354 0)
(0.0457133 0.00660037 2.34464e-22)
(0.044599 0.00640306 2.30192e-22)
(0.0432602 0.00631212 -4.48296e-22)
(0.0417532 0.00625881 0)
(0.040209 0.00621577 2.1282e-22)
(0.0387776 0.00621487 -4.13963e-22)
(0.0375027 0.00621418 -2.00579e-22)
(0.0362585 0.00620944 3.8831e-22)
(0.0349302 0.006264 -1.88198e-22)
(0.0334856 0.00636804 -1.81668e-22)
(0.0319555 0.00646195 8.66653e-23)
(0.030411 0.00654011 -2.55163e-26)
(0.0288929 0.00659723 -7.78262e-23)
(0.027385 0.00660632 -7.3734e-23)
(0.025855 0.00657972 -6.94386e-23)
(0.0243046 0.00655872 6.51653e-23)
(0.0227582 0.006551 0)
(0.0212227 0.00652585 5.79784e-23)
(0.0196849 0.00646688 -6.20335e-26)
(0.0181453 0.00638515 0)
(0.0166253 0.00629915 0)
(0.0151428 0.00621566 0)
(0.0136895 0.00613123 0)
(0.0122403 0.00604482 -3.17705e-23)
(0.0107816 0.00596721 0)
(0.00932197 0.00590708 0)
(0.00787703 0.00586729 -9.83878e-24)
(0.00645273 0.00584817 -4.02466e-24)
(0.0050573 0.00585416 -1.51027e-24)
(0.0037525 0.00589398 -4.80524e-25)
(0.0461417 -0.0847658 0)
(0.0511358 -0.0677539 0)
(0.0588238 -0.0590626 0)
(0.0650568 -0.0507115 0)
(0.0698532 -0.0426982 0)
(0.0733485 -0.0351197 0)
(0.075669 -0.0280623 0)
(0.0769552 -0.0215867 0)
(0.0773666 -0.0157439 0)
(0.0770145 -0.0105081 0)
(0.0760382 -0.0058604 0)
(0.0745921 -0.00181637 0)
(0.072848 0.00164356 0)
(0.0709637 0.00451648 0)
(0.0690113 0.00688885 0)
(0.0670265 0.00882475 0)
(0.0650317 0.0103192 0)
(0.0630089 0.0114036 0)
(0.0609654 0.0121119 0)
(0.0589164 0.0124643 0)
(0.0568512 0.0125258 0)
(0.0548171 0.0123886 0)
(0.0529261 0.0120858 0)
(0.0513469 0.0116204 0)
(0.0501843 0.0109995 0)
(0.0494524 0.0102656 0)
(0.049019 0.009474 2.38241e-22)
(0.0486373 0.0087168 0)
(0.0480876 0.00805732 0)
(0.0472726 0.00755425 0)
(0.0462226 0.00725949 0)
(0.0449827 0.0071484 0)
(0.0435751 0.00715623 0)
(0.0420448 0.00717501 0)
(0.0404691 0.00711764 0)
(0.0389997 0.00700798 0)
(0.0377142 0.00692183 0)
(0.0364981 0.00691963 0)
(0.0352169 0.00702933 0)
(0.0338397 0.00719145 0)
(0.0323916 0.0073209 0)
(0.0309075 0.00740776 0)
(0.0293945 0.00747363 0)
(0.0278421 0.00750265 0)
(0.0262585 0.00749191 0)
(0.0246768 0.00746906 0)
(0.0231141 0.00745188 0)
(0.0215569 0.00742492 0)
(0.0199924 0.00736872 -5.41856e-23)
(0.0184315 0.00728129 -5.00495e-23)
(0.0168961 0.00717578 0)
(0.0153961 0.00707016 0)
(0.0139211 0.00697608 0)
(0.0124484 0.00689374 0)
(0.0109667 0.00682032 -1.38328e-23)
(0.00948403 0.00675518 5.93842e-24)
(0.00801615 0.00670329 -5.02759e-24)
(0.00656795 0.00667188 0)
(0.00514145 0.00666675 -1.51971e-24)
(0.00377798 0.00668818 0)
(0.0507221 -0.0934147 2.76583e-23)
(0.0550992 -0.075243 0)
(0.0622905 -0.065528 -4.926e-22)
(0.0679044 -0.0561488 3.36214e-22)
(0.0720266 -0.0471675 0)
(0.074834 -0.0386843 0)
(0.0764852 -0.0307961 0)
(0.0771682 -0.0235828 5.62816e-22)
(0.0770375 -0.0170829 5.9529e-22)
(0.0762266 -0.0112821 0)
(0.0749134 -0.00616865 -6.34283e-22)
(0.0732306 -0.00174409 0)
(0.0713021 0.00199354 0)
(0.0692685 0.00505648 6.42746e-22)
(0.0672086 0.00755756 6.3511e-22)
(0.0651833 0.00958148 -6.23607e-22)
(0.0632473 0.0111589 6.56313e-25)
(0.0613631 0.0123396 0)
(0.0594936 0.0131434 -6.00222e-22)
(0.0576281 0.0135754 5.8824e-22)
(0.0557834 0.0136797 -2.99816e-25)
(0.0540465 0.0135127 -5.46988e-22)
(0.0525603 0.0130856 2.60069e-22)
(0.0514404 0.0124286 2.49773e-22)
(0.0506808 0.0115974 0)
(0.0502004 0.0106926 -4.1491e-26)
(0.0498312 0.00982655 2.47563e-22)
(0.0494136 0.0091006 0)
(0.0487992 0.00856364 2.48823e-22)
(0.0478808 0.00820288 2.46795e-22)
(0.0466653 0.00801705 -2.42409e-22)
(0.0452443 0.00797758 2.3632e-22)
(0.0437472 0.00802096 0)
(0.0422676 0.00806741 0)
(0.0407925 0.00802164 0)
(0.0393276 0.00785584 0)
(0.037937 0.0076854 1.9957e-22)
(0.0366246 0.00764454 -1.93033e-22)
(0.0353613 0.00775967 -6.85459e-27)
(0.0341101 0.00795281 -1.82448e-22)
(0.0327996 0.008128 -1.7591e-22)
(0.0313785 0.00826463 0)
(0.0298555 0.00837346 7.99323e-23)
(0.0282649 0.00843635 0)
(0.0266478 0.0084356 0)
(0.0250434 0.00840265 0)
(0.023458 0.00837689 0)
(0.0218727 0.008353 0)
(0.0202828 0.0082977 0)
(0.0187087 0.00819814 5.03662e-23)
(0.0171645 0.00807235 0)
(0.0156461 0.00794962 2.07517e-23)
(0.0141412 0.00784896 1.83018e-23)
(0.0126393 0.00776858 -1.60003e-23)
(0.0111361 0.00769667 -1.39626e-23)
(0.00963667 0.00762623 0)
(0.00815007 0.00756335 -5.13282e-24)
(0.00667872 0.00752081 -4.15101e-24)
(0.00523138 0.0075077 0)
(0.00387025 0.00753084 -2.47557e-25)
(0.0557311 -0.102761 -3.81174e-23)
(0.0596721 -0.0828732 0)
(0.0662503 -0.072003 0)
(0.0711241 -0.0615277 -3.52666e-22)
(0.0745168 -0.0515413 0)
(0.0766355 -0.0421336 4.8463e-22)
(0.0776511 -0.0334041 5.33746e-22)
(0.077755 -0.02545 0)
(0.0771062 -0.0182971 1.19489e-21)
(0.0758424 -0.0119456 -6.16553e-22)
(0.0741446 -0.00639389 1.25236e-21)
(0.0721668 -0.00161239 0)
(0.0700311 0.00240059 0)
(0.0678277 0.00566633 0)
(0.0656117 0.00829286 -6.3136e-22)
(0.0634648 0.0103773 6.66492e-25)
(0.0614634 0.011975 0)
(0.0596178 0.0131907 0)
(0.0579016 0.014045 5.98758e-22)
(0.0562961 0.0145264 0)
(0.0548251 0.0146414 -5.54916e-22)
(0.0535529 0.0144077 0)
(0.0525889 0.0138397 2.52554e-22)
(0.0519702 0.0130139 2.46559e-22)
(0.0515992 0.0120557 2.47727e-22)
(0.0513027 0.0110825 2.53482e-22)
(0.0509131 0.0102162 0)
(0.0503238 0.00955024 0)
(0.049473 0.00913559 -2.58067e-22)
(0.0483307 0.00893027 0)
(0.046948 0.00886645 2.45773e-22)