/*--------------------------------*- C++ -*----------------------------------*\
| =========                 |                                                 |
| \\      /  F ield         | OpenFOAM: The Open Source CFD Toolbox           |
|  \\    /   O peration     | Version:  v1912                                 |
|   \\  /    A nd           | Website:  www.openfoam.com                      |
|    \\/     M anipulation  |                                                 |
\*---------------------------------------------------------------------------*/
FoamFile
{
    version     2.0;
    format      ascii;
    class       volScalarField;
    location    "40";
    object      alpha.water;
}
// * * * * * * * * * * * * * * * * * * * * * * * * * * * * * * * * * * * * * //

dimensions      [0 0 0 0 0 0 0];


internalField   nonuniform List<scalar> 
20320
(
1
1
1
1
1
1
1
1
1
1
1
1
1
1
1
1
1
1
1
1
1
1
1
1
1
1
1
1
1
1
1
1
1
1
1
1
1
1
1
1
1
1
1
1
1
1
1
1
1
1
1
1
1
1
1
1
1
1
1
1
1
1
1
1
1
1
1
1
1
1
1
1
1
1
1
1
1
1
1
1
1
1
1
1
1
1
1
1
1
1
1
1
1
1
1
1
1
1
1
1
1
1
1
1
1
1
1
1
1
1
1
1
1
1
1
1
1
1
1
1
1
1
1
1
1
1
1
1
1
1
1
1
1
1
1
1
1
1
1
1
1
1
1
1
1
1
1
1
1
1
1
1
1
1
1
1
1
1
1
1
1
1
1
1
1
1
1
1
1
1
1
1
1
1
1
1
1
1
1
1
1
1
1
1
1
1
1
1
1
1
1
1
1
1
1
1
1
1
1
1
1
1
1
1
1
1
1
1
1
1
1
1
1
1
1
1
1
1
1
1
1
1
1
1
1
1
1
1
1
1
1
1
1
1
1
1
1
1
1
1
1
1
1
1
1
1
1
1
1
1
1
1
1
1
1
1
1
1
1
1
1
1
1
1
1
1
1
1
1
1
1
1
1
1
1
1
1
1
1
1
1
1
1
1
1
1
1
1
1
1
1
1
1
1
1
1
1
1
1
1
1
1
1
1
1
1
1
1
1
1
1
1
1
1
1
1
1
1
1
1
1
1
1
1
1
1
1
1
1
1
1
1
1
1
1
1
1
1
1
1
1
1
1
1
1
1
1
1
1
1
1
1
1
1
1
1
1
1
1
1
1
1
1
1
1
1
1
1
1
1
1
1
1
1
1
1
1
1
1
1
1
1
1
1
1
1
1
1
1
1
1
1
1
1
1
1
1
1
1
1
0.977301
0.989711
0.989308
1
0.99988
0.99988
0.999879
0.999879
0.377366
0.377365
0.315049
0.296721
0.713965
0.686558
0.293638
0.302512
0.409159
0.403753
0.498984
0.547091
0.628114
0.631604
0.542009
0.602546
1
1
1
1
1
1
1
0.952845
0.948623
0.978778
1
1
0.832558
0.849791
0.999368
0.788338
0.623586
0.630865
1
1
1
1
1
1
1
1
1
1
1
1
1
1
1
1
1
1
1
0.964509
1
1
0.944402
0.801041
0.801041
0.83759
0.978979
0.700911
0.811367
0.811137
0.861179
0.318579
0.424139
0.0287325
1.15224e-21
-2.94872e-38
2.64364e-09
3.42424e-10
3.99351e-14
1.68764e-14
9.66432e-22
0.305288
1
1
1
1
1
1
1
1
1
1
1
1
1
1
0.999995
1
1
1
0.999999
1
1
1
1
1
1
1
1
1
1
1
1
1
1
1
1
1
1
1
0.874988
0.916111
0.997956
1
1
1
0.99997
1
1
0.962259
0.97895
0.890704
0.224132
0.063184
0.0223204
0.00441053
5.28461e-06
3.04521e-05
4.78086e-06
-1.56522e-27
-4.93018e-19
0.967867
1
1
1
1
1
1
1
1
1
1
1
1
1
1
1
1
1
1
1
1
1
1
1
1
1
1
1
1
1
1
1
1
1
1
1
1
1
1
1
0.732569
0.743143
0.91947
0.992783
0.996035
0.999985
0.968153
0.901538
0.858661
1
1
1
0.964646
0.530916
2.0453e-07
3.50224e-05
6.0098e-05
3.97073e-06
1.17584e-19
0.851947
1
1
1
1
1
1
1
1
1
1
1
1
1
1
1
1
1
1
0.999999
1
1
1
1
1
1
1
1
1
1
1
1
1
1
1
1
1
1
0.987496
0.842083
0.990155
1
0.99762
0.811414
0.768704
0.957888
0.994965
0.986095
0.897685
0.998575
1
0.960472
0.965474
1
0.909759
0.0365869
1.12268e-05
2.85772e-24
-6.36912e-19
0.781818
1
1
1
1
1
1
1
1
1
1
1
1
1
1
1
1
1
1
1
1
1
1
1
1
1
1
1
1
1
1
1
1
1
1
1
1
1
1
0.820775
0.706809
0.758563
0.833391
0.986188
1
1
1
0.960747
0.934411
0.84776
0.94403
0.881157
0.965524
0.778495
0.581982
0.949224
0.291892
-2.98186e-27
-1.15035e-18
0.851006
1
1
1
1
1
1
1
1
1
1
0.999864
0.999636
0.999969
1
1
1
1
1
1
1
1
1
1
1
1
1
1
1
1
1
1
1
1
1
1
1
1
1
1
0.995559
1
1
1
0.907442
0.999498
1
0.999805
0.994781
0.798564
0.91619
0.999394
0.851996
0.994263
0.173304
-2.81065e-21
4.0413e-20
1.25027e-20
4.2463e-09
0.907656
1
1
1
1
1
1
0.989294
0.695542
0.270771
3.0897e-20
-1.81502e-20
-2.49397e-20
-2.5191e-20
6.73838e-23
0.00202704
0.0118965
0.0331151
0.0625574
0.0896812
0.113515
0.154281
0.178613
0.176293
0.146655
0.0916686
0.0531528
0.0279154
0.0157627
0.0122282
0.0104456
0.0103847
0.0114336
0.0136291
0.016039
0.0196456
0.0260735
0.0351099
0.0429639
0.0454765
0.0547828
0.958297
0.933002
0.951488
0.974139
1
0.795184
0.965333
0.999373
0.999996
1
0.997996
0.999394
0.927661
0.88917
-1.16495e-19
1.33569e-06
8.55194e-07
-1.36212e-18
0.942228
1
1
1
1
1
1
0.527629
-3.68175e-20
-6.03668e-20
-5.01431e-20
-4.18436e-20
-3.84758e-20
-3.28562e-20
-2.66954e-20
-2.23156e-20
-1.96017e-20
-1.82762e-20
-1.72934e-20
-1.62721e-20
-1.52008e-20
-1.41688e-20
-1.34689e-20
-1.37986e-20
-1.45829e-20
-1.59822e-20
-1.75606e-20
-1.91295e-20
-2.05504e-20
-2.17271e-20
-2.25404e-20
-2.28761e-20
-2.27535e-20
-2.22787e-20
-2.16157e-20
-2.08989e-20
-2.01399e-20
-1.92711e-20
-1.82557e-20
-1.71728e-20
-1.61394e-20
-1.52623e-20
0.819559
0.995967
0.854356
1
1
1
0.807218
0.993598
0.999998
0.996246
0.999107
0.997898
1
5.86867e-23
5.63302e-05
9.13023e-08
2.2252e-19
0.944986
1
1
1
1
1
1
0.0687213
-1.48408e-20
-2.23117e-20
-2.37322e-20
-2.10748e-20
-1.80583e-20
-1.51584e-20
-1.31567e-20
-1.20844e-20
-1.14976e-20
-1.1104e-20
-1.09361e-20
-1.10327e-20
-1.12324e-20
-1.13727e-20
-1.14548e-20
-1.15868e-20
-1.18811e-20
-1.23584e-20
-1.29292e-20
-1.34396e-20
-1.37439e-20
-1.3762e-20
-1.35068e-20
-1.30935e-20
-1.26732e-20
-1.23596e-20
-1.22024e-20
-1.21942e-20
-1.23075e-20
-1.25102e-20
-1.2769e-20
-1.30377e-20
-1.32587e-20
-1.33846e-20
-1.34031e-20
0.648314
0.986343
1
0.99984
0.993727
1
0.870827
0.719368
1
1
0.997316
1
0.807207
-1.1199e-24
8.98714e-06
1.13788e-07
0.884846
1
1
1
1
1
0.987311
-1.44269e-19
-2.22353e-20
-1.91194e-20
-1.59652e-20
-1.26047e-20
-1.09028e-20
-9.70921e-21
-8.68682e-21
-8.01091e-21
-7.70862e-21
-7.67027e-21
-7.74647e-21
-7.83572e-21
-7.89222e-21
-7.8965e-21
-7.8352e-21
-7.73137e-21
-7.61313e-21
-7.49372e-21
-7.36812e-21
-7.22313e-21
-7.05139e-21
-6.86248e-21
-6.68309e-21
-6.54847e-21
-6.49083e-21
-6.52085e-21
-6.6305e-21
-6.79091e-21
-6.98274e-21
-7.1981e-21
-7.43804e-21
-7.69818e-21
-7.94997e-21
-8.17023e-21
-8.33788e-21
-8.44194e-21
0.654592
0.743872
1
0.968141
0.91021
0.950161
0.996702
0.990837
1
0.977708
0.993558
1
0.0663943
1.28834e-24
1.35976e-06
0.708044
1
1
1
1
1
0.991196
1.71772e-18
-4.02927e-20
-2.013e-20
-1.25515e-20
-8.7544e-21
-6.58424e-21
-5.45455e-21
-4.96075e-21
-4.7678e-21
-4.71876e-21
-4.75777e-21
-4.8297e-21
-4.85892e-21
-4.8028e-21
-4.67161e-21
-4.4978e-21
-4.32096e-21
-4.14472e-21
-3.97442e-21
-3.82235e-21
-3.69425e-21
-3.59146e-21
-3.51247e-21
-3.45447e-21
-3.41466e-21
-3.39228e-21
-3.39362e-21
-3.41586e-21
-3.45377e-21
-3.50544e-21
-3.56931e-21
-3.64485e-21
-3.73363e-21
-3.83951e-21
-3.96072e-21
-4.07311e-21
-4.16245e-21
-4.22119e-21
0.596402
0.541518
0.999972
1
1
0.938658
1
0.965822
0.904144
0.987583
1
0.829674
-5.41574e-25
1.96254e-06
0.163448
1
1
1
1
1
1
1.65222e-18
-1.78435e-20
-1.30526e-20
-9.00097e-21
-6.2862e-21
-4.47416e-21
-3.45153e-21
-2.97506e-21
-2.77464e-21
-2.69852e-21
-2.6783e-21
-2.66853e-21
-2.62886e-21
-2.53463e-21
-2.39207e-21
-2.22909e-21
-2.0715e-21
-1.93413e-21
-1.82389e-21
-1.74468e-21
-1.69224e-21
-1.65512e-21
-1.62282e-21
-1.58785e-21
-1.54826e-21
-1.50578e-21
-1.46155e-21
-1.42079e-21
-1.38944e-21
-1.37175e-21
-1.36972e-21
-1.38339e-21
-1.41131e-21
-1.45089e-21
-1.49897e-21
-1.55381e-21
-1.6167e-21
-1.67837e-21
-1.73227e-21
0.872684
0.604297
0.998995
0.99689
1
0.992473
0.898367
0.926599
1
1
1
0.265333
7.20731e-07
2.27455e-07
0.974503
1
1
1
1
1
0.0614074
-6.05341e-22
-1.06365e-20
-9.09406e-21
-6.02568e-21
-3.80458e-21
-2.5163e-21
-1.87306e-21
-1.57756e-21
-1.43223e-21
-1.34562e-21
-1.27705e-21
-1.20529e-21
-1.12061e-21
-1.02289e-21
-9.20457e-22
-8.24956e-22
-7.44663e-22
-6.82387e-22
-6.3681e-22
-6.04121e-22
-5.79251e-22
-5.56916e-22
-5.32894e-22
-5.05233e-22
-4.74798e-22
-4.44648e-22
-4.18664e-22
-4.00164e-22
-3.91168e-22
-3.92314e-22
-4.03152e-22
-4.22486e-22
-4.48663e-22
-4.79778e-22
-5.13871e-22
-5.49081e-22
-5.83865e-22
-6.17479e-22
-6.50475e-22
0.902062
0.965933
1
0.958875
0.985651
0.997722
0.932641
1
1
0.989264
0.990983
0.299713
4.98896e-07
0.337944
1
1
1
1
1
0.225188
-3.28353e-20
-9.63235e-21
-8.53174e-21
-5.60475e-21
-3.32487e-21
-2.03779e-21
-1.33565e-21
-9.58504e-22
-7.50323e-22
-6.2175e-22
-5.30353e-22
-4.5669e-22
-3.9206e-22
-3.33451e-22
-2.80937e-22
-2.36039e-22
-2.00067e-22
-1.72928e-22
-1.53162e-22
-1.38688e-22
-1.27478e-22
-1.17951e-22
-1.09152e-22
-1.00791e-22
-9.31485e-23
-8.68451e-23
-8.25593e-23
-8.08005e-23
-8.18168e-23
-8.5604e-23
-9.19656e-23
-1.00571e-22
-1.11019e-22
-1.22885e-22
-1.35786e-22
-1.4943e-22
-1.63645e-22
-1.78391e-22
-1.93733e-22
-2.09797e-22
0.813627
1
0.938315
0.983666
0.998938
0.989834
0.995386
0.988991
1
0.988503
0.999542
0.292808
-9.26919e-27
0.922179
1
1
1
1
0.708161
-7.6685e-20
-5.77693e-21
-7.2327e-21
-5.56777e-21
-3.33595e-21
-1.87375e-21
-1.08496e-21
-6.55102e-22
-4.17738e-22
-2.82569e-22
-1.99776e-22
-1.4508e-22
-1.06743e-22
-7.88697e-23
-5.8369e-23
-4.34439e-23
-3.28348e-23
-2.54978e-23
-2.05243e-23
-1.71685e-23
-1.48823e-23
-1.33003e-23
-1.21998e-23
-1.14589e-23
-1.1023e-23
-1.08819e-23
-1.10515e-23
-1.15602e-23
-1.24379e-23
-1.37091e-23
-1.53878e-23
-1.74753e-23
-1.99593e-23
-2.28163e-23
-2.60134e-23
-2.9511e-23
-3.32643e-23
-3.72209e-23
-4.13192e-23
-4.54867e-23
-4.96326e-23
0.911166
0.860574
0.770785
1
1
0.998864
0.981922
0.860605
1
0.953133
0.972925
-5.21348e-20
2.38999e-19
1
1
1
1
1
1.9762e-18
-1.20056e-20
-6.99778e-21
-5.43563e-21
-3.44944e-21
-1.8998e-21
-1.00068e-21
-5.17301e-22
-2.64781e-22
-1.37915e-22
-7.42035e-23
-4.11031e-23
-2.32766e-23
-1.34036e-23
-7.84236e-24
-4.69037e-24
-2.90533e-24
-1.89765e-24
-1.33192e-24
-1.01895e-24
-8.53141e-25
-7.76143e-25
-7.55488e-25
-7.72828e-25
-8.17934e-25
-8.85828e-25
-9.75517e-25
-1.08899e-24
-1.23002e-24
-1.40283e-24
-1.61062e-24
-1.85419e-24
-2.13121e-24
-2.43579e-24
-2.75875e-24
-3.08867e-24
-3.41324e-24
-3.72058e-24
-4.00066e-24
-4.24608e-24
-4.45226e-24
-4.61573e-24
0.451914
0.872471
0.852386
0.999874
1
0.994747
0.998074
0.885653
0.819311
0.865334
0.608643
0.00488083
0.356703
1
1
1
1
0.296442
-3.70348e-20
-7.87366e-21
-5.20839e-21
-3.62005e-21
-2.05774e-21
-1.01711e-21
-4.64988e-22
-1.97149e-22
-7.83679e-23
-3.01428e-23
-1.14763e-23
-4.3752e-24
-1.68813e-24
-6.68134e-25
-2.76752e-25
-1.23891e-25
-6.27276e-26
-3.7774e-26
-2.78012e-26
-2.4525e-26
-2.46194e-26
-2.6681e-26
-3.00665e-26
-3.44325e-26
-3.95696e-26
-4.5347e-26
-5.16962e-26
-5.85917e-26
-6.60142e-26
-7.3894e-26
-8.20661e-26
-9.0247e-26
-9.80522e-26
-1.05047e-25
-1.10831e-25
-1.15109e-25
-1.17747e-25
-1.18795e-25
-1.18462e-25
-1.17071e-25
-1.14999e-25
-1.12522e-25
0.380154
0.485042
0.980174
1
0.365105
1
1
0.818858
0.818916
1
0.987443
1.01029e-20
0.766642
1
1
1
1
-7.11128e-19
-6.07288e-21
-4.65811e-21
-3.4222e-21
-2.17698e-21
-1.10265e-21
-4.69455e-22
-1.71886e-22
-5.39762e-23
-1.4672e-23
-3.54672e-24
-7.88239e-25
-1.67612e-25
-3.58284e-26
-8.19122e-27
-2.19713e-27
-7.99194e-28
-4.43922e-28
-3.55102e-28
-3.49563e-28
-3.7918e-28
-4.29065e-28
-4.92822e-28
-5.65858e-28
-6.43665e-28
-7.21785e-28
-7.96166e-28
-8.63558e-28
-9.21588e-28
-9.68515e-28
-1.00279e-27
-1.02299e-27
-1.0279e-27
-1.01697e-27
-9.90746e-28
-9.5101e-28
-9.00732e-28
-8.43713e-28
-7.83993e-28
-7.25341e-28
-6.70926e-28
-6.22936e-28
-5.81763e-28
0.285437
0.380456
1
0.626385
0.28275
1
0.999409
0.991187
0.999984
1
0.748343
-9.12149e-20
0.97757
1
1
1
0.412437
-1.95591e-21
-5.94179e-21
-3.60015e-21
-2.3091e-21
-1.22512e-21
-5.14921e-22
-1.72275e-22
-4.51052e-23
-8.9862e-24
-1.34106e-24
-1.51867e-25
-1.38184e-26
-1.12609e-27
-9.66127e-29
-1.1789e-29
-3.35169e-30
-2.09152e-30
-1.79658e-30
-1.73694e-30
-1.77778e-30
-1.87444e-30
-2.0021e-30
-2.14022e-30
-2.26961e-30
-2.37326e-30
-2.43789e-30
-2.45525e-30
-2.42292e-30
-2.34329e-30
-2.22224e-30
-2.06768e-30
-1.88856e-30
-1.69431e-30
-1.49416e-30
-1.29697e-30
-1.11037e-30
-9.40183e-31
-7.90246e-31
-6.623e-31
-5.56263e-31
-4.7076e-31
-4.03443e-31
-3.50684e-31
0.954303
0.92112
0.756471
0.303959
0.28275
1
0.999984
0.999999
0.999998
1
0.180895
9.34514e-20
1
1
1
1
0.0195318
-1.66039e-21
-4.19029e-21
-2.65803e-21
-1.41228e-21
-6.06544e-22
-1.95563e-22
-4.52202e-23
-7.00536e-24
-6.57558e-25
-3.35548e-26
-8.77273e-28
-1.29251e-29
-1.66347e-31
-9.81841e-33
-3.98058e-33
-2.41928e-33
-1.71901e-33
-1.35739e-33
-1.15382e-33
-1.02951e-33
-9.45228e-34
-8.78927e-34
-8.17678e-34
-7.53879e-34
-6.84306e-34
-6.08652e-34
-5.2911e-34
-4.49033e-34
-3.71957e-34
-3.00975e-34
-2.38153e-34
-1.84603e-34
-1.40467e-34
-1.05206e-34
-7.78205e-35
-5.71045e-35
-4.18002e-35
-3.0749e-35
-2.29517e-35
-1.76124e-35
-1.415e-35
-1.2205e-35
-1.16426e-35
0.955399
0.672943
0.933677
0.426003
0.874086
0.997803
0.785588
1
1
1
-1.60582e-20
0.310828
1
1
1
0.968746
-5.28489e-20
-4.46493e-21
-3.30853e-21
-1.79317e-21
-7.69867e-22
-2.48381e-22
-5.39878e-23
-6.9637e-24
-4.29941e-25
-8.31073e-27
-1.43728e-29
-8.73967e-35
-1.03687e-35
-1.75448e-36
-4.04323e-37
-1.1819e-37
-4.62718e-38
-2.44329e-38
-1.46046e-38
-9.49864e-39
-6.5537e-39
-4.70099e-39
-3.45444e-39
-2.57164e-39
-1.92574e-39
-1.44664e-39
-1.09301e-39
-8.38208e-40
-6.63004e-40
-5.52405e-40
-4.93879e-40
-4.76972e-40
-4.93353e-40
-5.37084e-40
-6.05092e-40
-6.97743e-40
-8.20251e-40
-9.84921e-40
-1.21587e-39
-1.55884e-39
-2.10275e-39
-3.02859e-39
-4.71945e-39
-7.96839e-39
0.0825209
0.726314
0.552121
0.711158
0.883459
0.78746
0.713545
1
1
0.712201
-6.03489e-20
0.762596
1
1
1
0.29801
-1.50207e-20
-3.96447e-21
-2.47145e-21
-1.09883e-21
-3.56769e-22
-7.64088e-23
-8.89179e-24
-3.88955e-25
-1.65334e-27
-7.13301e-36
-2.082e-37
-4.69697e-39
-7.65234e-41
-1.37014e-42
-4.56534e-44
-5.07541e-45
-2.68797e-45
-2.60724e-45
-2.98905e-45
-3.73246e-45
-5.03908e-45
-6.84358e-45
-9.39762e-45
-1.29143e-44
-1.76416e-44
-2.38063e-44
-3.15878e-44
-4.10795e-44
-5.22302e-44
-6.48459e-44
-7.86747e-44
-9.34308e-44
-1.0895e-43
-1.25351e-43
-1.43161e-43
-1.63557e-43
-1.88736e-43
-2.22543e-43
-2.71922e-43
-3.50138e-43
-4.84502e-43
-7.35872e-43
-1.24906e-42
-2.36568e-42
0.000315289
0.000315289
0.0685566
0.373088
0.0908229
4.10814e-06
0.796473
1
0.984343
2.74051e-13
2.59922e-32
0.986412
1
1
1
0.0171569
-3.32408e-21
-3.29744e-21
-1.6915e-21
-5.8639e-22
-1.29062e-22
-1.46786e-23
-5.17217e-25
-1.82792e-28
-2.77644e-37
-2.69706e-39
-6.58892e-42
-2.68471e-44
-7.69381e-48
-9.35977e-49
-4.88626e-49
-3.10855e-49
-2.36549e-49
-2.0899e-49
-2.08302e-49
-2.2795e-49
-2.67296e-49
-3.28806e-49
-4.19109e-49
-5.53486e-49
-7.31169e-49
-9.55396e-49
-1.23393e-48
-1.56719e-48
-1.95017e-48
-2.37477e-48
-2.83322e-48
-3.32399e-48
-3.85704e-48
-4.46125e-48
-5.19372e-48
-6.15849e-48
-7.54493e-48
-9.71896e-48
-1.34476e-47
-2.05201e-47
-3.5651e-47
-7.31491e-47
-1.8311e-46
-5.5804e-46
0.00124895
0.000315289
0.462754
0.553345
0.153476
4.10814e-06
0.000229188
0.0521849
5.62721e-07
8.55506e-08
3.86859e-19
1
1
1
1
-8.8787e-20
-5.36844e-21
-2.42571e-21
-1.04786e-21
-2.60534e-22
-3.1767e-23
-1.09244e-24
-4.57131e-28
-4.31182e-38
-1.73066e-40
-2.5096e-43
-2.23985e-47
-2.06361e-51
-3.32849e-52
-6.99077e-53
-2.1813e-53
-1.05566e-53
-7.56275e-54
-7.25122e-54
-8.36252e-54
-1.07683e-53
-1.4891e-53
-2.16157e-53
-3.2476e-53
-4.99146e-53
-7.74749e-53
-1.20273e-52
-1.87434e-52
-2.92485e-52
-4.28242e-52
-6.04582e-52
-8.25861e-52
-1.09922e-51
-1.4397e-51
-1.87788e-51
-2.47304e-51
-3.34434e-51
-4.73694e-51
-7.20363e-51
-1.21286e-50
-2.35006e-50
-5.5013e-50
-1.64813e-49
-6.64371e-49
-3.53733e-48
0.00760342
0.0301491
0.0124006
0.120125
0.112771
1.58606e-05
8.80144e-22
0.0119753
7.68943e-05
2.99061e-07
0.558619
1
1
1
0.475879
-2.74676e-21
-3.23591e-21
-1.85554e-21
-5.90749e-22
-8.86066e-23
-3.76673e-24
-3.33156e-27
-2.26134e-38
-6.20189e-41
-5.01141e-44
-2.62313e-48
-1.16106e-53
-6.68166e-55
-4.20534e-56
-6.21404e-57
-3.8474e-57
-3.88423e-57
-4.40677e-57
-5.33609e-57
-6.79245e-57
-9.04196e-57
-1.24914e-56
-1.766e-56
-2.52791e-56
-3.65473e-56
-5.3231e-56
-7.76269e-56
-1.12299e-55
-1.59509e-55
-2.20197e-55
-2.95641e-55
-3.88997e-55
-4.9862e-55
-6.31533e-55
-8.09892e-55
-1.07103e-54
-1.49324e-54
-2.25417e-54
-3.80917e-54
-7.51986e-54
-1.83363e-53
-5.93371e-53
-2.77726e-52
-2.01232e-51
-2.09824e-50
0.0132868
0.030607
0.00687054
3.0509e-08
0.000602543
1.0597e-05
0.00543347
0.0101528
0.000302863
-1.23085e-19
0.934385
1
1
1
0.102844
-1.0366e-20
-2.97284e-21
-1.33509e-21
-2.83512e-22
-1.89513e-23
-4.53787e-26
-1.80088e-34
-1.0112e-40
-5.74681e-44
-3.24307e-48
-3.79579e-55
-7.42286e-57
-1.16696e-58
-3.83612e-60
-2.04139e-60
-1.83028e-60
-1.76782e-60
-1.81796e-60
-1.97972e-60
-2.26709e-60
-2.71277e-60
-3.35517e-60
-4.24928e-60
-5.48787e-60
-7.16651e-60
-9.35024e-60
-1.21468e-59
-1.57087e-59
-2.0106e-59
-2.53119e-59
-3.13109e-59
-3.8274e-59
-4.67548e-59
-5.81361e-59
-7.55821e-59
-1.05595e-58
-1.60241e-58
-2.75767e-58
-5.62922e-58
-1.44397e-57
-5.01775e-57
-2.60055e-56
-2.23832e-55
-3.38362e-54
-7.41848e-53
0.00105433
0.00056525
0.000710275
5.1972e-05
0.000864187
4.54741e-23
0.000779468
0.000408546
7.07376e-24
-2.87314e-19
1
1
1
1
-3.41401e-19
-5.94066e-21
-2.65688e-21
-8.51468e-22
-1.04925e-22
-1.33897e-24
-1.34598e-29
-5.68876e-40
-2.44647e-43
-1.68395e-47
-1.33721e-55
-8.41022e-58
-6.41355e-60
-1.21818e-61
-4.37056e-63
-4.14718e-64
-2.05784e-64
-1.55937e-64
-1.32593e-64
-1.22895e-64
-1.21928e-64
-1.27607e-64
-1.39026e-64
-1.56198e-64
-1.79283e-64
-2.07736e-64
-2.41409e-64
-2.80404e-64
-3.2303e-64
-3.68447e-64
-4.19265e-64
-4.80413e-64
-5.62615e-64
-6.94292e-64
-9.58676e-64
-1.62023e-63
-3.5557e-63
-9.68063e-63
-2.94242e-62
-9.15614e-62
-2.92963e-61
-1.00278e-60
-5.00176e-60
-5.89761e-59
-1.63727e-57
-6.44206e-56
0.000242444
6.86476e-07
0.00443381
0.000395388
1.0937e-06
0.000241293
0.000274322
1.42579e-06
4.1718e-06
0.616194
1
1
1
0.785107
2.86306e-21
-3.25464e-21
-1.96148e-21
-4.71183e-22
-2.50228e-23
-8.87285e-27
-1.38454e-38
-4.4245e-42
-4.22874e-46
-3.11574e-54
-2.10186e-57
-5.25642e-59
-2.09813e-60
-7.81892e-62
-2.65369e-63
-8.19308e-65
-2.30015e-66
-5.97703e-68
-2.05407e-69
-5.06352e-70
-3.7255e-70
-3.17088e-70
-2.88806e-70
-2.75703e-70
-2.71162e-70
-2.72435e-70
-2.8649e-70
-3.81879e-70
-1.09809e-69
-6.48169e-69
-4.56366e-68
-3.13588e-67
-1.99312e-66
-1.15319e-65
-6.06907e-65
-2.92295e-64
-1.29445e-63
-5.2808e-63
-1.98567e-62
-6.86943e-62
-2.17884e-61
-6.31543e-61
-1.66716e-60
-4.00059e-60
-8.85972e-60
-1.91179e-59
0.00024234
0.0230015
0.00777357
-1.27811e-23
2.40866e-06
2.84725e-05
2.64809e-05
0.000344895
5.59496e-19
0.984651
1
1
1
0.221941
-2.83435e-21
-3.94304e-21
-1.42712e-21
-2.15048e-22
-2.08642e-24
-6.85394e-30
-3.57451e-40
-5.29732e-44
-4.99231e-49
-1.55427e-54
-8.39108e-58
-3.60722e-59
-1.44062e-60
-5.27714e-62
-1.76753e-63
-5.40068e-65
-1.50234e-66
-3.80083e-68
-8.74657e-70
-1.83366e-71
-3.5043e-73
-6.26577e-75
-9.55185e-76
-5.29976e-75
-3.74247e-74
-2.87682e-73
-2.32099e-72
-1.91474e-71
-1.58312e-70
-1.29513e-69
-1.03381e-68
-7.94016e-68
-5.76944e-67
-3.8605e-66
-2.33502e-65
-1.27347e-64
-6.28445e-64
-2.81551e-63
-1.14595e-62
-4.23742e-62
-1.42124e-61
-4.31661e-61
-1.1852e-60
-2.93638e-60
-6.52843e-60
-1.26409e-59
0.000242283
0.0217302
0.000101807
5.04519e-09
5.26831e-24
5.00898e-05
0.00100714
4.26192e-05
0.153381
1
1
1
1
0.0030949
-2.5216e-21
-2.57134e-21
-8.74048e-22
-7.10338e-23
-1.71896e-26
-4.80285e-34
-6.2442e-41
-1.33519e-44
-3.52775e-49
-1.03773e-54
-5.8807e-58
-2.48367e-59
-9.69929e-61
-3.48226e-62
-1.14661e-63
-3.45858e-65
-9.53508e-67
-2.39669e-68
-5.48718e-70
-1.14466e-71
-2.17771e-73
-3.79015e-75
-1.45311e-76
-5.69615e-76
-4.2707e-75
-3.46974e-74
-2.94691e-73
-2.55923e-72
-2.23566e-71
-1.939e-70
-1.64876e-69
-1.36031e-68
-1.07564e-67
-8.031e-67
-5.51198e-66
-3.40172e-65
-1.8759e-64
-9.24706e-64
-4.079e-63
-1.60878e-62
-5.66705e-62
-1.77766e-61
-4.94507e-61
-1.20749e-60
-2.52413e-60
-4.23775e-60
0.00877112
0.00439333
1.42252e-12
5.63214e-09
1.67222e-08
0.00075068
0.000916918
1.73211e-22
0.887202
1
1
1
0.936356
-8.19596e-20
-4.03951e-21
-1.86477e-21
-4.66898e-22
-1.22833e-23
-8.51307e-29
-8.38486e-38
-3.81945e-41
-8.07273e-45
-2.35625e-49
-7.12943e-55
-4.03631e-58
-1.66848e-59
-6.386e-61
-2.24725e-62
-7.26199e-64
-2.15494e-65
-5.86657e-67
-1.46193e-68
-3.3282e-70
-6.91808e-72
-1.31242e-73
-2.26985e-75
-4.23344e-77
-4.69553e-77
-3.65092e-76
-3.08852e-75
-2.72353e-74
-2.45309e-73
-2.22513e-72
-2.00692e-71
-1.78099e-70
-1.53813e-69
-1.28029e-68
-1.01532e-67
-7.57241e-67
-5.17617e-66
-3.16226e-65
-1.7078e-64
-8.12188e-64
-3.39587e-63
-1.24342e-62
-3.96454e-62
-1.08987e-61
-2.53648e-61
-4.83108e-61
-7.13845e-61
0.00404825
0.000779159
0.000878398
4.6842e-08
1.64469e-08
0.000652575
5.40442e-06
0.0288415
1
1
1
1
0.257687
-5.35304e-21
-3.5897e-21
-1.34888e-21
-2.00681e-22
-2.13418e-25
-2.68758e-31
-1.04861e-37
-3.05382e-41
-4.94682e-45
-1.52872e-49
-4.85554e-55
-2.68633e-58
-1.08721e-59
-4.08375e-61
-1.41169e-62
-4.48298e-64
-1.30843e-65
-3.50876e-67
-8.63681e-69
-1.94917e-70
-4.02874e-72
-7.61784e-74
-1.31505e-75
-2.1048e-77
-3.06746e-78
-2.23359e-77
-1.93403e-76
-1.74443e-75
-1.60477e-74
-1.48503e-73
-1.36631e-72
-1.23743e-71
-1.09174e-70
-9.29807e-70
-7.5594e-69
-5.8023e-68
-4.15546e-67
-2.71394e-66
-1.57245e-65
-7.95223e-65
-3.48089e-64
-1.30932e-63
-4.1952e-63
-1.13123e-62
-2.51525e-62
-4.46205e-62
-6.04482e-62
0.0111597
0.0111608
-7.4414e-23
3.58675e-10
1.15034e-08
4.36848e-05
1.02081e-24
0.871653
1
1
1
1
0.000377993
-4.1032e-21
-2.85629e-21
-8.64058e-22
-5.74125e-23
-1.42493e-27
-4.81649e-34
-2.32863e-37
-5.18958e-41
-5.16949e-45
-1.41494e-49
-4.47407e-55
-1.72984e-58
-6.8543e-60
-2.5262e-61
-8.58306e-63
-2.68284e-64
-7.71167e-66
-2.03866e-67
-4.95227e-69
-1.10455e-70
-2.26249e-72
-4.25091e-74
-7.31184e-76
-1.14932e-77
-2.80192e-79
-9.36248e-79
-8.10473e-78
-7.33626e-77
-6.76915e-76
-6.26997e-75
-5.76465e-74
-5.20787e-73
-4.57973e-72
-3.87845e-71
-3.13086e-70
-2.38307e-69
-1.68867e-68
-1.09919e-67
-6.45549e-67
-3.33335e-66
-1.48007e-65
-5.56505e-65
-1.74784e-64
-4.51793e-64
-9.43464e-64
-1.56161e-63
-2.05166e-63
0.00346571
7.71297e-06
4.95713e-07
9.42441e-07
3.18053e-05
2.87542e-06
0.110337
1
1
1
1
0.802212
6.67313e-20
-5.14665e-21
-2.35147e-21
-4.59336e-22
-6.09043e-24
-1.5486e-29
-9.79811e-34
-6.14803e-37
-1.55278e-40
-1.42065e-44
-3.45229e-49
-1.04342e-54
-1.07287e-58
-4.16853e-60
-1.50875e-61
-5.03668e-63
-1.54883e-64
-4.38641e-66
-1.14416e-67
-2.74485e-69
-6.05271e-71
-1.2269e-72
-2.28475e-74
-3.90338e-76
-6.1017e-78
-9.0336e-80
-2.702e-80
-2.17897e-79
-1.92819e-78
-1.74452e-77
-1.58304e-76
-1.42248e-75
-1.25196e-74
-1.06844e-73
-8.74697e-73
-6.79871e-72
-4.95715e-71
-3.34882e-70
-2.0657e-69
-1.14377e-68
-5.59838e-68
-2.36913e-67
-8.46302e-67
-2.49902e-66
-6.00458e-66
-1.16531e-65
-1.85719e-65
-2.54839e-65
3.88975e-12
3.99188e-09
3.52109e-07
3.45502e-05
1.22751e-05
-8.5288e-20
0.946065
1
1
1
1
0.129952
-4.54963e-21
-3.92931e-21
-1.58152e-21
-1.76501e-22
-4.80151e-26
-1.2988e-30
-2.04365e-33
-1.55769e-36
-4.69982e-40
-4.71837e-44
-1.16578e-48
-3.53664e-54
-6.38587e-59
-2.43522e-60
-8.67082e-62
-2.84744e-63
-8.61316e-65
-2.40108e-66
-6.17218e-68
-1.46199e-69
-3.18819e-71
-6.39974e-73
-1.1812e-74
-2.0018e-76
-3.10882e-78
-4.41766e-80
-1.04597e-81
-3.70157e-81
-3.08171e-80
-2.65435e-79
-2.30215e-78
-1.97568e-77
-1.65582e-76
-1.34035e-75
-1.03488e-74
-7.542e-74
-5.12405e-73
-3.20212e-72
-1.8162e-71
-9.21151e-71
-4.10207e-70
-1.57873e-69
-5.1754e-69
-1.42859e-68
-3.3103e-68
-6.51968e-68
-1.0999e-67
-1.51888e-67
2.06134e-11
1.29967e-09
3.1111e-06
1.76265e-05
-5.58342e-25
0.564795
1
1
1
1
1
1.73294e-19
-5.1362e-21
-3.44518e-21
-9.29999e-22
-3.48709e-23
-8.87046e-28
-1.91696e-30
-3.79074e-33
-3.38259e-36
-1.16989e-39
-1.2698e-43
-3.24449e-48
-1.00109e-53
-3.64549e-59
-1.36214e-60
-4.7754e-62
-1.54473e-63
-4.60142e-65
-1.26311e-66
-3.19783e-68
-7.46663e-70
-1.60799e-71
-3.19343e-73
-5.84236e-75
-9.82682e-77
-1.51572e-78
-2.13834e-80
-2.81297e-82
-4.49466e-83
-3.06248e-82
-2.39823e-81
-1.92693e-80
-1.54249e-79
-1.20808e-78
-9.11278e-78
-6.54114e-77
-4.40935e-76
-2.75907e-75
-1.58067e-74
-8.19236e-74
-3.78456e-73
-1.54209e-72
-5.4765e-72
-1.68275e-71
-4.46227e-71
-1.02505e-70
-2.03733e-70
-3.43586e-70
-4.69109e-70
7.1447e-11
4.52551e-07
8.4057e-07
3.59804e-06
0.0742606
1
1
1
1
1
0.302454
-6.77993e-21
-5.44346e-21
-2.52924e-21
-4.24857e-22
-8.76733e-25
-6.80033e-28
-2.60835e-30
-5.76223e-33
-5.7594e-36
-2.18564e-39
-2.49895e-43
-6.55983e-48
-2.06086e-53
-2.00059e-59
-7.27399e-61
-2.51133e-62
-8.00434e-64
-2.35008e-65
-6.35967e-67
-1.58731e-68
-3.65442e-70
-7.76481e-72
-1.52327e-73
-2.75752e-75
-4.59778e-77
-7.04107e-79
-9.8739e-81
-1.26455e-82
-1.85997e-84
-2.26247e-84
-1.44215e-83
-9.94136e-83
-7.07123e-82
-5.01532e-81
-3.46102e-80
-2.28039e-79
-1.41374e-78
-8.13489e-78
-4.29243e-77
-2.05273e-76
-8.80828e-76
-3.36157e-75
-1.13309e-74
-3.36656e-74
-8.82163e-74
-2.03419e-73
-4.06705e-73
-6.7918e-73
-9.03183e-73
7.3981e-11
3.70711e-05
6.74661e-05
6.15991e-06
1
1
1
1
1
1
-4.49316e-19
-6.17254e-21
-4.4603e-21
-1.70243e-21
-1.26919e-22
-1.31644e-25
-6.63826e-28
-2.76269e-30
-6.4742e-33
-6.9765e-36
-2.81465e-39
-3.32706e-43
-8.91268e-48
-2.85818e-53
-1.06599e-59
-3.69039e-61
-1.25628e-62
-3.94664e-64
-1.14203e-65
-3.04638e-67
-7.49844e-69
-1.70368e-70
-3.57307e-72
-6.92259e-74
-1.23858e-75
-2.04402e-77
-3.10294e-79
-4.31978e-81
-5.49739e-83
-6.40901e-85
-2.38326e-86
-8.41784e-86
-4.42496e-85
-2.48064e-84
-1.449e-83
-8.55542e-83
-4.96558e-82
-2.76609e-81
-1.45184e-80
-7.07506e-80
-3.16232e-79
-1.28387e-78
-4.70378e-78
-1.54792e-77
-4.55685e-77
-1.19241e-76
-2.74178e-76
-5.41404e-76
-8.85293e-76
-1.15548e-75
6.65494e-07
2.4011e-05
-2.17106e-19
0.991647
1
1
1
1
1
0.362603
-5.45696e-21
-6.01891e-21
-3.5029e-21
-1.00058e-21
-2.20491e-23
-1.03672e-25
-5.17715e-28
-2.04295e-30
-4.7836e-33
-5.35918e-36
-2.24382e-39
-2.70709e-43
-7.37328e-48
-2.44342e-53
-5.62823e-60
-1.77233e-61
-5.95279e-63
-1.84516e-64
-5.26659e-66
-1.38537e-67
-3.3611e-69
-7.53026e-71
-1.55833e-72
-2.98195e-74
-5.27348e-76
-8.60493e-78
-1.29314e-79
-1.78402e-81
-2.2531e-83
-2.59548e-85
-2.83991e-87
-5.65368e-88
-2.41274e-87
-1.10192e-86
-5.15888e-86
-2.46302e-85
-1.18607e-84
-5.65845e-84
-2.62593e-83
-1.16473e-82
-4.85798e-82
-1.88259e-81
-6.70282e-81
-2.16978e-80
-6.32396e-80
-1.63961e-79
-3.71852e-79
-7.19562e-79
-1.15151e-78
-1.47973e-78
0.212283
0.143163
1
1
1
1
1
1
1
2.18466e-19
-8.35215e-21
-5.13939e-21
-2.34277e-21
-5.07427e-22
-1.31455e-23
-8.83209e-26
-2.94609e-28
-9.49732e-31
-2.01528e-33
-2.25568e-36
-9.62201e-40
-1.17718e-43
-3.27398e-48
-1.16885e-53
-2.92233e-60
-8.03929e-62
-2.66468e-63
-8.1543e-65
-2.29692e-66
-5.95977e-68
-1.42629e-69
-3.15013e-71
-6.42907e-73
-1.21342e-74
-2.11854e-76
-3.41634e-78
-5.0789e-80
-6.93842e-82
-8.68112e-84
-9.91693e-86
-1.03128e-87
-1.16502e-89
-8.62836e-90
-3.76958e-89
-1.65063e-88
-7.18891e-88
-3.10987e-87
-1.33087e-86
-5.58419e-86
-2.27531e-85
-8.87297e-85
-3.26798e-84
-1.12108e-83
-3.53292e-83
-1.00871e-82
-2.56876e-82
-5.737e-82
-1.09616e-81
-1.74056e-81
-2.22786e-81
1
1
1
1
1
1
1
1
1
1
1
1
1
1
1
1
1
1
1
1
1
1
1
1
1
1
1
1
1
1
1
1
1
1
1
1
1
1
1
1
1
1
1
1
1
1
1
1
1
1
1
1
1
1
1
1
1
1
1
1
1
1
1
1
1
1
1
1
1
1
1
1
1
1
1
1
1
1
1
1
1
1
1
1
1
1
1
1
1
1
1
1
1
1
1
1
1
1
1
1
1
1
1
1
1
1
1
1
1
1
1
1
1
1
1
1
1
1
1
1
1
1
1
1
1
1
1
1
1
1
1
1
1
1
1
1
1
1
1
1
1
1
1
1
1
1
1
1
1
1
1
1
1
1
1
1
1
1
1
1
1
1
1
1
1
1
1
1
1
1
1
1
1
1
1
1
1
1
1
1
1
1
1
1
1
1
1
1
1
1
1
1
1
1
1
1
1
1
1
1
1
1
1
1
1
1
1
1
1
1
1
1
1
1
1
1
1
1
1
1
1
1
1
1
1
1
1
1
1
1
1
1
1
1
1
1
1
1
1
1
1
1
1
1
1
1
1
1
1
1
1
1
1
1
0.999489
0.987969
0.950003
0.879722
0.774224
0.596557
-2.46602e-33
0.267479
0.266395
0.255507
0.238278
0.215963
0.189895
0.160742
0.129897
0.098133
0.0661534
0.035016
0.00313003
-1.11349e-22
-3.17974e-23
-6.25978e-23
-1.40427e-22
-2.51725e-22
-3.96841e-22
-3.57117e-22
-1.32201e-33
-4.47281e-34
-8.03973e-34
-1.70096e-33
-2.86006e-33
-4.30169e-33
-6.04748e-33
-8.07424e-33
-1.03122e-32
-1.26341e-32
-1.49053e-32
-1.74181e-32
-1.53283e-26
1.65167e-28
7.23416e-30
-2.46076e-32
-3.6648e-32
-2.84421e-32
-2.06225e-32
-1.77652e-32
-1.14393e-33
-3.76198e-35
-1.38316e-35
-3.93785e-35
-1.14636e-34
-2.25126e-34
-3.66678e-34
-5.25128e-34
-6.80311e-34
-8.11247e-34
-9.07832e-34
-9.96447e-34
-1.23156e-33
-1.76706e-33
-2.12242e-33
-2.055e-33
-1.58514e-33
-9.78508e-34
-5.08848e-34
-2.59586e-34
-7.19702e-34
-2.58806e-36
-2.17003e-37
-6.44461e-37
-1.90837e-36
-4.57757e-36
-8.56041e-36
-1.33419e-35
-1.81034e-35
-2.20149e-35
-2.46709e-35
-2.64853e-35
-2.89136e-35
-3.24334e-35
-3.21733e-35
-2.62848e-35
-1.74326e-35
-9.46894e-36
-4.3405e-36
-1.75942e-36
-2.81901e-34
-1.31234e-38
-4.20252e-39
-1.47617e-38
-4.50792e-38
-1.13545e-37
-2.28088e-37
-3.66926e-37
-4.96942e-37
-5.89272e-37
-6.29728e-37
-6.22066e-37
-5.786e-37
-5.02797e-37
-3.89678e-37
-2.59364e-37
-1.46356e-37
-7.02344e-38
-2.90625e-38
-1.05814e-38
-8.9115e-35
-1.64799e-38
-2.48885e-40
-3.32301e-40
-1.14783e-39
-2.96616e-39
-5.98288e-39
-9.50432e-39
-1.23709e-38
-1.38376e-38
-1.36959e-38
-1.22051e-38
-9.86431e-39
-7.19482e-39
-4.66514e-39
-2.64948e-39
-1.30825e-39
-5.62092e-40
-2.11684e-40
-7.0634e-41
-2.2444e-35
-2.66276e-38
-2.36323e-40
-7.99984e-42
-2.55072e-41
-6.8123e-41
-1.34151e-40
-2.03689e-40
-2.49935e-40
-2.61306e-40
-2.39516e-40
-1.94698e-40
-1.40696e-40
-9.01474e-41
-5.09541e-41
-2.5287e-41
-1.09921e-41
-4.1895e-42
-1.4062e-42
-4.18482e-43
-1.84643e-36
-1.6937e-38
-1.19842e-40
-6.93295e-43
-4.51342e-43
-1.1948e-42
-2.26457e-42
-3.223e-42
-3.69893e-42
-3.6281e-42
-3.11119e-42
-2.33563e-42
-1.52869e-42
-8.7003e-43
-4.30536e-43
-1.85559e-43
-6.98623e-44
-2.30766e-44
-6.72725e-45
-1.74323e-45
-4.63236e-39
-9.01906e-40
-7.62235e-42
-3.79882e-44
-5.62944e-45
-1.38752e-44
-2.46753e-44
-3.26172e-44
-3.50591e-44
-3.25713e-44
-2.63584e-44
-1.83078e-44
-1.07926e-44
-5.39554e-45
-2.3027e-45
-8.47189e-46
-2.71464e-46
-7.64958e-47
-1.91287e-47
-4.28099e-48
-1.17864e-43
-6.66412e-43
-8.21159e-45
-5.51898e-47
-3.73605e-47
-8.41307e-47
-1.37757e-46
-1.68743e-46
-1.71479e-46
-1.52668e-46
-1.16872e-46
-7.43474e-47
-3.87288e-47
-1.66273e-47
-5.9939e-48
-1.85412e-48
-5.01416e-49
-1.20098e-49
-2.56894e-50
-4.93907e-51
-6.29884e-49
-6.8919e-48
-8.45159e-50
-3.17063e-50
-8.00314e-50
-1.60231e-49
-2.4191e-49
-2.77432e-49
-2.71159e-49
-2.33993e-49
-1.6856e-49
-9.62313e-50
-4.3047e-50
-1.54409e-50
-4.62208e-51
-1.19672e-51
-2.72922e-52
-5.50583e-53
-9.85611e-54
-1.58075e-54
1
1
1
1
1
1
1
1
1
1
1
1
1
1
1
1
1
1
1
1
1
1
1
1
1
1
1
1
1
1
1
1
1
1
1
1
1
1
1
1
1
1
1
1
1
1
1
1
1
1
1
1
1
1
1
1
1
1
1
1
1
1
1
1
1
1
1
1
1
1
1
1
1
1
1
1
1
1
1
1
1
1
1
1
1
1
1
1
1
1
1
1
1
1
1
1
1
1
1
1
1
1
1
1
1
1
1
1
1
1