/*--------------------------------*- C++ -*----------------------------------*\
| =========                 |                                                 |
| \\      /  F ield         | OpenFOAM: The Open Source CFD Toolbox           |
|  \\    /   O peration     | Version:  v1912                                 |
|   \\  /    A nd           | Website:  www.openfoam.com                      |
|    \\/     M anipulation  |                                                 |
\*---------------------------------------------------------------------------*/
FoamFile
{
    version     2.0;
    format      ascii;
    class       surfaceScalarField;
    location    "40";
    object      alphaPhi0.water;
}
// * * * * * * * * * * * * * * * * * * * * * * * * * * * * * * * * * * * * * //

dimensions      [0 3 -1 0 0 0 0];
oriented        oriented;


internalField   nonuniform List<scalar> 
40282
(
0.00279833
0.0026494
1.9193
-1.92593
1.92036
0.00557031
-1.91129
1.89912
0.012176
-1.88392
1.86583
0.0180917
-1.8448
1.82095
0.0238536
-1.79428
1.76492
0.0293579
-1.73288
1.69826
0.034626
-1.66109
1.62147
0.0396182
-1.57944
1.53505
0.0443938
-1.48836
1.43943
0.0489334
-1.38836
1.33515
0.0532086
-1.27998
1.22284
0.0571408
-1.16395
1.10315
0.0607957
-1.04075
0.976643
0.0641105
-0.911199
0.844128
0.0670709
-0.775775
0.705559
0.0702155
-0.634023
0.560536
0.073487
-0.485514
0.407917
0.0775967
-0.328004
0.244364
0.0836402
-0.157145
0.0642472
0.0928973
-0.00422443
0.0056018
1.85441
-1.84995
1.84299
-0.0140931
0.021046
-1.83332
1.82087
-0.0256197
0.0380621
-1.80566
1.78769
-0.0369153
0.0548896
-1.76699
1.7436
-0.0479693
0.0713572
-1.71757
1.68893
-0.0587652
0.0874025
-1.65773
1.62401
-0.0692265
0.102946
-1.58783
1.54922
-0.0792934
0.117904
-1.50823
1.46492
-0.0889094
0.132216
-1.41935
1.37156
-0.0980379
0.145824
-1.32162
1.2696
-0.106658
0.158686
-1.21553
1.15948
-0.11471
0.17076
-1.10149
1.04165
-0.122139
0.181981
-0.979986
0.916576
-0.128876
0.192286
-0.851442
0.784691
-0.134822
0.201573
-0.716365
0.646596
-0.139988
0.209757
-0.57542
0.503041
-0.144453
0.216833
-0.429572
0.355358
-0.148849
0.223062
-0.280546
0.20566
-0.154551
0.229437
-0.130698
0.0616637
-0.168067
0.237102
-0.00701311
0.00835944
1.78796
-1.78377
1.77696
-0.0281785
0.0349904
-1.76749
1.75539
-0.0506886
0.0627921
-1.74066
1.72331
-0.0729323
0.0902797
-1.70336
1.68083
-0.0947585
0.117287
-1.65575
1.62814
-0.116045
0.143653
-1.59804
1.56549
-0.136679
0.16923
-1.53053
1.4932
-0.156538
0.193866
-1.45357
1.41168
-0.175532
0.217415
-1.36762
1.32144
-0.193592
0.239771
-1.27321
1.22301
-0.210655
0.260858
-1.1709
1.11696
-0.226691
0.280635
-1.06124
1.00382
-0.241667
0.299092
-0.944737
0.884059
-0.255517
0.316194
-0.821833
0.758109
-0.268091
0.331814
-0.692935
0.626369
-0.2791
0.345666
-0.558472
0.489341
-0.288233
0.357364
-0.419116
0.348029
-0.295479
0.366566
-0.276386
0.204698
-0.301609
0.373298
-0.133678
0.0653383
-0.309206
0.377546
-0.00964457
0.0109211
1.72393
-1.72007
1.71365
-0.0417094
0.0481313
-1.70467
1.69314
-0.0748274
0.0863562
-1.67908
1.66249
-0.107568
0.124149
-1.64341
1.62185
-0.13976
0.161324
-1.59782
1.57136
-0.171213
0.197674
-1.54249
1.51125
-0.201747
0.232992
-1.47766
1.44178
-0.231182
0.267069
-1.40363
1.36327
-0.259339
0.299699
-1.32075
1.27613
-0.286059
0.33068
-1.22947
1.18086
-0.311216
0.35983
-1.13037
1.07808
-0.33473
0.387014
-1.0241
0.968514
-0.356587
0.412174
-0.911414
0.852883
-0.376797
0.435328
-0.792995
0.731815
-0.395305
0.456486
-0.669393
0.605774
-0.411865
0.475484
-0.541004
0.47513
-0.425893
0.491766
-0.408202
0.340288
-0.43653
0.504444
-0.271515
0.202149
-0.443398
0.512764
-0.132546
0.0642502
-0.447325
0.515621
-0.0121414
0.0133481
1.66219
-1.65854
1.65245
-0.0545034
0.0605906
-1.64394
1.63301
-0.0978008
0.108735
-1.61966
1.60392
-0.14062
0.156364
-1.58579
1.56528
-0.182757
0.20326
-1.54243
1.51723
-0.22399
0.249182
-1.48973
1.45994
-0.264086
0.293879
-1.42788
1.3936
-0.302811
0.337092
-1.35713
1.3185
-0.339932
0.378559
-1.27776
1.23496
-0.37521
0.418011
-1.19015
1.14339
-0.408416
0.455177
-1.09475
1.0443
-0.439352
0.489803
-0.992121
0.938318
-0.467894
0.521697
-0.88299
0.82624
-0.494022
0.550772
-0.768174
0.708895
-0.517773
0.577052
-0.648486
0.587014
-0.539074
0.600546
-0.524526
0.461056
-0.557433
0.620903
-0.396627
0.331261
-0.571755
0.637121
-0.264997
0.197931
-0.580692
0.647758
-0.130123
0.0632676
-0.58382
0.650676
-0.0144953
0.0156232
1.60278
-1.59918
1.59346
-0.0666081
0.0723273
-1.58546
1.57518
-0.119546
0.129825
-1.56262
1.5478
-0.17194
0.186761
-1.53072
1.51138
-0.22356
0.242897
-1.4898
1.46599
-0.274151
0.297964
-1.43996
1.41173
-0.323442
0.351673
-1.38132
1.34875
-0.371149
0.403718
-1.31405
1.27724
-0.416982
0.453784
-1.23838
1.19748
-0.460643
0.501541
-1.15459
1.10977
-0.501818
0.546639
-1.06307
1.01455
-0.540207
0.588729
-0.964277
0.912336
-0.575548
0.62749
-0.858815
0.803816
-0.607677
0.662676
-0.747447
0.689824
-0.63657
0.694193
-0.631058
0.571249
-0.662273
0.722082
-0.51048
0.44881
-0.684547
0.746216
-0.386278
0.322902
-0.702374
0.76575
-0.258682
0.193612
-0.713873
0.778943
-0.12753
0.0625798
-0.717527
0.782477
-0.0166884
0.0177278
1.54517
-1.54214
1.53684
-0.0779495
0.0832591
-1.5294
1.51985
-0.139936
0.149491
-1.50817
1.49437
-0.201352
0.215154
-1.47844
1.46039
-0.261955
0.28001
-1.44021
1.4179
-0.321466
0.343768
-1.39348
1.36695
-0.379581
0.406114
-1.33831
1.30758
-0.435972
0.466702
-1.27477
1.2399
-0.490299
0.525167
-1.203
1.16408
-0.542199
0.581115
-1.12319
1.08035
-0.591285
0.634119
-1.03562
0.989047
-0.637161
0.683738
-0.940681
0.890593
-0.679446
0.729534
-0.83886
0.78557
-0.717816
0.771105
-0.730826
0.674741
-0.752087
0.808172
-0.617436
0.559033
-0.782264
0.840667
-0.499646
0.43937
-0.808281
0.868557
-0.378279
0.31642
-0.829342
0.891201
-0.253807
0.1904
-0.843371
0.906778
-0.125799
0.0629945
-0.848316
0.911121
-0.0187013
0.0196416
1.48999
-1.48723
1.48238
-0.0884394
0.0932911
-1.47558
1.46684
-0.15882
0.167565
-1.45614
1.44347
-0.228648
0.241316
-1.42882
1.41219
-0.297688
0.314318
-1.39357
1.37293
-0.36565
0.386283
-1.35029
1.32561
-0.432208
0.456879
-1.29892
1.27018
-0.497
0.52573
-1.23942
1.20663
-0.559636
0.592426
-1.17182
1.13501
-0.619692
0.65651
-1.0962
1.05542
-0.6767
0.717473
-1.01272
0.968109
-0.730169
0.774777
-0.921649
0.873389
-0.779605
0.827864
-0.823394
0.77174
-0.824528
0.876182
-0.718517
0.663831
-0.86456
0.919246
-0.607802
0.550563
-0.89955
0.956789
-0.492247
0.43298
-0.929472
0.988738
-0.372875
0.312017
-0.953752
1.01461
-0.25045
0.18814
-0.970328
1.03264
-0.124357
0.0637159
-0.976945
1.03759
-0.0205119
0.0213412
1.43668
-1.43403
1.42969
-0.0979778
0.102316
-1.42361
1.41577
-0.176023
0.183862
-1.40616
1.39477
-0.253588
0.264986
-1.38156
1.36652
-0.330466
0.345503
-1.34963
1.33086
-0.406374
0.425145
-1.31019
1.28758
-0.480978
0.503579
-1.26303
1.23651
-0.553893
0.580414
-1.208
1.17749
-0.624687
0.6552
-1.14496
1.11041
-0.692874
0.727422
-1.07385
1.03526
-0.757901
0.796485
-0.994678
0.952113
-0.819176
0.861741
-0.907598
0.861172
-0.87608
0.922505
-0.812886
0.762803
-0.927977
0.978061
-0.711001
0.657577
-0.974282
1.02771
-0.602647
0.546347
-1.01461
1.07091
-0.488828
0.430244
-1.04883
1.10741
-0.370743
0.310461
-1.07649
1.13678
-0.249482
0.187805
-1.09564
1.15731
-0.124219
0.0656594
-1.10423
1.16278
-0.0220963
0.0228021
1.38541
-1.38311
1.37934
-0.10645
0.110216
-1.37405
1.36722
-0.191344
0.198173
-1.35883
1.34885
-0.275891
0.285873
-1.33725
1.32398
-0.359939
0.373201
-1.30902
1.29233
-0.443234
0.459929
-1.27386
1.25356
-0.525456
0.545751
-1.2314
1.20734
-0.606208
0.630273
-1.18133
1.15333
-0.685029
0.713023
-1.12332
1.09126
-0.761373
0.793433
-1.05713
1.02091
-0.834603
0.87082
-0.982601
0.942192
-0.904013
0.944423
-0.899695
0.855133
-0.968847
1.01341
-0.808537
0.759955
-1.0283
1.07688
-0.70945
0.657109
-1.08155
1.13389
-0.603042
0.547386
-1.12793
1.18359
-0.490307
0.431994
-1.16709
1.22541
-0.372647
0.312476
-1.19861
1.25878
-0.25166
0.190304
-1.22064
1.282
-0.126389
0.0700829
-1.2314
1.28771
-0.0234298
0.0239998
1.33583
-1.3339
1.33077
-0.113737
0.116871
-1.32636
1.32065
-0.204572
0.210283
-1.3136
1.30519
-0.295259
0.30367
-1.29537
1.28408
-0.385728
0.397013
-1.27128
1.25691
-0.475784
0.490159
-1.2409
1.22319
-0.565141
0.582849
-1.20372
1.18242
-0.653417
0.674718
-1.15922
1.13407
-0.740135
0.765291
-1.10689
1.07763
-0.824704
0.853962
-1.04624
1.01267
-0.906402
0.939973
-0.976879
0.938842
-0.984406
1.02244
-0.898539
0.855964
-1.05781
1.10038
-0.811124
0.764045
-1.1256
1.17268
-0.714769
0.663363
-1.18672
1.23812
-0.609926
0.554591
-1.24013
1.29547
-0.497531
0.438963
-1.28515
1.34372
-0.379141
0.318362
-1.32122
1.382
-0.256928
0.195136
-1.34663
1.40842
-0.12977
0.0757145
-1.35993
1.41399
-0.0244887
0.0249125
1.28812
-1.28641
1.28396
-0.119719
0.122165
-1.28051
1.27602
-0.215491
0.219981
-1.27045
1.26376
-0.311377
0.318065
-1.2559
1.24679
-0.407423
0.416528
-1.23638
1.22458
-0.503521
0.515318
-1.21132
1.19651
-0.599451
0.614262
-1.18006
1.16188
-0.694873
0.713053
-1.14187
1.11995
-0.789323
0.811249
-1.09601
1.06996
-0.882188
0.908238
-1.04171
1.01118
-0.972678
1.00321
-0.978284
0.942964
-1.05986
1.09518
-0.905158
0.864821
-1.14265
1.18299
-0.821924
0.776455
-1.21984
1.26531
-0.728427
0.677877
-1.29005
1.3406
-0.624882
0.569562
-1.35185
1.40717
-0.512094
0.452718
-1.40406
1.46343
-0.391749
0.329591
-1.44582
1.50798
-0.266707
0.203688
-1.47547
1.53849
-0.135505
0.0838189
-1.492
1.54369
-0.0252537
0.0255235
1.24227
-1.24099
1.23928
-0.124288
0.126
-1.23685
1.23366
-0.2239
0.227086
-1.22968
1.22484
-0.323948
0.328781
-1.2191
1.21236
-0.424619
0.431357
-1.20455
1.19558
-0.525926
0.534896
-1.18535
1.17376
-0.627751
0.639346
-1.16068
1.14601
-0.729836
0.744505
-1.12962
1.11138
-0.831769
0.850008
-1.09116
1.06883
-0.932953
0.955287
-1.04425
1.01729
-1.03257
1.05953
-0.987823
0.955731
-1.12959
1.16168
-0.920902
0.883233
-1.22279
1.26046
-0.842642
0.799061
-1.31071
1.35429
-0.752451
0.7028
-1.39166
1.44131
-0.650142
0.594568
-1.46369
1.51926
-0.536242
0.475424
-1.52496
1.58578
-0.412493
0.347992
-1.57406
1.63856
-0.282618
0.217422
-1.60921
1.67441
-0.14486
0.0959033
-1.63
1.67896
-0.025711
0.025823
1.19772
-1.19708
1.19613
-0.127359
0.128308
-1.19476
1.19295
-0.22964
0.23146
-1.19063
1.18775
-0.332719
0.335596
-1.18424
1.18003
-0.436952
0.441165
-1.17502
1.1691
-0.542503
0.548417
-1.16218
1.15412
-0.649396
0.657457
-1.14479
1.13405
-0.7575
0.76824
-1.12174
1.10772
-0.866512
0.880538
-1.0918
1.07381
-0.975912
0.9939
-1.05357
1.0309
-1.08491
1.10759
-1.0056
0.977491
-1.19246
1.22056
-0.946389
0.912116
-1.29721
1.33149
-0.874506
0.833407
-1.39752
1.43862
-0.788692
0.740268
-1.49133
1.53976
-0.688085
0.632163
-1.57612
1.63204
-0.572618
0.509698
-1.64916
1.71208
-0.443829
0.375713
-1.70815
1.77626
-0.306353
0.237465
-1.75093
1.81982
-0.15843
0.112296
-1.77782
1.82395
-0.0258556
0.0258111
1.15502
-1.15485
1.15467
-0.128882
0.12906
-1.15438
1.15395
-0.232607
0.233038
-1.15333
1.15246
-0.337507
0.338377
-1.15127
1.14968
-0.444129
0.445719
-1.1476
1.14491
-0.552813
0.555499
-1.14151
1.13725
-0.663761
0.668019
-1.13199
1.12558
-0.777024
0.783438
-1.11783
1.10857
-0.892469
0.901735
-1.09758
1.08465
-1.00974
1.02266
-1.06956
1.05206
-1.12817
1.14568
-1.03188
1.00879
-1.24679
1.26989
-0.982486
0.952706
-1.36427
1.39405
-0.919169
0.8816
-1.47886
1.51643
-0.839738
0.793346
-1.58819
1.63459
-0.742228
0.686264
-1.68914
1.74511
-0.625443
0.559932
-1.77788
1.84339
-0.490155
0.416976
-1.85066
1.92384
-0.341812
0.267301
-1.9044
1.97891
-0.179707
0.136619
-1.94015
1.98324
-0.0256925
0.0254981
1.1138
-1.1139
1.11447
-0.128853
0.128277
-1.11524
1.11618
-0.232775
0.231839
-1.11724
1.11837
-0.33824
0.337112
-1.1195
1.12056
-0.445987
0.44493
-1.12145
1.12208
-0.556551
0.555921
-1.12233
1.12206
-0.67034
0.670606
-1.12113
1.11938
-0.787634
0.78939
-1.11661
1.11263
-0.908543
0.912526
-1.10721
1.1001
-1.03296
1.04007
-1.09103
1.07972
-1.16049
1.1718
-1.06585
1.04907
-1.29038
1.30716
-1.02902
1.0053
-1.42153
1.44525
-0.977494
0.945169
-1.5523
1.58462
-0.907868
0.865134
-1.68026
1.72299
-0.816525
0.761649
-1.80182
1.8567
-0.700223
0.632163
-1.91191
1.97997
-0.557728
0.47783
-2.00467
2.08456
-0.394313
0.311002
-2.07502
2.15833
-0.211756
0.171371
-2.12463
2.16501
-0.0252374
0.0249048
1.07406
-1.07477
1.07605
-0.12732
0.126032
-1.07783
1.08006
-0.230213
0.227978
-1.08272
1.08577
-0.334973
0.331927
-1.08914
1.09278
-0.442525
0.438888
-1.0966
1.10052
-0.553594
0.549674
-1.10443
1.10822
-0.668812
0.665026
-1.11174
1.11485
-0.78872
0.785618
-1.11735
1.11906
-0.913728
0.912022
-1.11973
1.11913
-1.04408
1.04468
-1.11696
1.1129
-1.17976
1.18382
-1.1066
1.09764
-1.32047
1.32943
-1.08559
1.06995
-1.46559
1.48123
-1.05015
1.02558
-1.61398
1.63855
-0.995545
0.9593
-1.76368
1.79993
-0.916033
0.86491
-1.91119
1.96232
-0.805129
0.73604
-2.05054
2.11963
-0.657358
0.569653
-2.17325
2.26096
-0.474905
0.37833
-2.2704
2.36697
-0.262577
0.224778
-2.34431
2.3821
-0.0245161
0.0240616
1.03559
-1.03669
1.03862
-0.124382
0.12245
-1.04131
1.04473
-0.225082
0.221663
-1.04886
1.05367
-0.327903
0.323091
-1.05912
1.06517
-0.43393
0.427883
-1.07175
1.07881
-0.544059
0.537006
-1.08625
1.09398
-0.659134
0.651399
-1.1019
1.10987
-0.779967
0.771998
-1.11774
1.12533
-0.907295
0.899702
-1.13245
1.13884
-1.04177
1.03537
-1.14426
1.14838
-1.18389
1.17977
-1.15084
1.15123
-1.33397
1.33358
-1.14907
1.14381
-1.49218
1.49744
-1.1348
1.12128
-1.65841
1.67193
-1.10236
1.077
-1.83197
1.85734
-1.04396
1.00183
-2.0107
2.05283
-0.949008
0.883806
-2.18923
2.25444
-0.804664
0.710779
-2.35732
2.4512
-0.602987
0.486823
-2.49996
2.61612
-0.346737
0.303015
-2.6189
2.66262
-0.0235624
0.0230055
0.998593
-1.00022
1.00271
-0.120186
0.117696
-1.00618
1.01063
-0.217635
0.213185
-1.01605
1.02242
-0.317369
0.311001
-1.02971
1.03791
-0.420591
0.412391
-1.04698
1.05688
-0.52833
0.51843
-1.06757
1.07897
-0.641607
0.630203
-1.09102
1.10363
-0.761475
0.748865
-1.11669
1.13008
-0.888986
0.8756
-1.14364
1.15718
-1.02521
1.01166
-1.17051
1.18335
-1.17118
1.15834
-1.1954
1.20632
-1.32793
1.31701
-1.21568
1.22296
-1.49665
1.48937
-1.22756
1.22871
-1.67868
1.67754
-1.22547
1.21668
-1.87551
1.8843
-1.20086
1.17613
-2.08816
2.11289
-1.14012
1.08989
-2.31526
2.36549
-1.02191
0.932406
-2.5496
2.63911
-0.818249
0.680725
-2.77294
2.91046
-0.511563
0.439634
-2.98249
3.05442
-0.0224161
0.021778
0.963056
-0.964777
0.967725
-0.114914
0.111966
-0.97185
0.977152
-0.208196
0.202893
-0.983635
0.991299
-0.303822
0.296158
-1.00014
1.01016
-0.403071
0.393055
-1.02134
1.03369
-0.507048
0.494704
-1.04718
1.06179
-0.616889
0.602273
-1.0775
1.09428
-0.733829
0.717055
-1.11206
1.1308
-0.859167
0.840434
-1.1504
1.17077
-0.994319
0.973949
-1.19178
1.21329
-1.1408
1.11929
-1.23509
1.25698
-1.3003
1.27842
-1.27867
1.29983
-1.47497
1.45382
-1.32003
1.33875
-1.66769
1.64898
-1.35529
1.36875
-1.88255
1.86909
-1.37792
1.38113
-2.12519
2.12199
-1.37604
1.35937
-2.40236
2.41903
-1.32654
1.27118
-2.71984
2.77519
-1.18506
1.05616
-3.07846
3.20736
-0.88457
0.801363
-3.49731
3.58052
0.132341
-0.26582
0.133253
-0.224917
0.289881
-0.0635645
-0.33146
0.361186
-0.025623
-0.380864
0.402236
-0.0213719
-0.42348
0.429041
-0.00558616
-0.42072
0.410491
0.0102036
-0.39822
0.369896
0.0282988
-0.322061
0.199635
0.122402
-0.0477612
-0.00555474
0.052872
0.0713626
-0.0833537
0.0115482
0.0350153
-0.00140791
0.00536646
-0.0306969
0.0896281
0.00357083
-0.150437
0.114983
0.0479131
0.110354
-0.732691
0.40073
0.941352
-0.872513
0.12821
0.694234
-1.08178
0.0321829
1.18151
-1.10107
7.63345e-28
1.01659
-0.959907
1.42647e-28
0.986415
-1.00444
-1.09751e-09
0.954382
-0.906754
-1.86951e-10
0.869386
-0.789413
-1.63924e-14
0.698032
-0.606309
-3.93007e-15
0.473993
-0.298183
3.65685e-22
-0.0512783
0.979096
-0.274851
-3.02258
4.16915
-1.14658
-4.88037
5.36582
-0.485454
-5.71846
5.98136
-0.262898
-6.18268
6.33955
-0.156878
-6.46204
6.55699
-0.0949477
-6.62983
6.68534
-0.055516
-6.72839
6.76345
-0.0350601
-6.58585
6.47515
-0.0188879
-6.48412
6.4824
0.00171784
-6.47138
6.7889
0.016763
-6.77129
6.75741
0.0138814
-6.75227
6.75495
-0.00267821
-5.71124
5.70135
0.010208
-5.67946
6.22986
0.0285488
-6.671
6.65205
0.00397275
-6.66637
4.25314
-0.0105936
-4.24505
4.24007
0.012872
-4.20456
5.11071
0.0443038
-6.51813
6.47967
0.038466
-6.44803
6.42177
0.02626
-6.39996
6.38205
0.0179131
-6.3673
6.355
0.0122922
-6.34453
6.3354
0.00912726
-6.32729
6.31999
0.00730437
-6.31337
6.30729
0.00608165
-6.30172
6.29653
0.00519141
-6.29172
6.28715
0.00456832
-6.28284
6.2787
0.00414713
-6.27479
6.27107
0.00372171
-6.26763
6.26441
0.00322241
-6.26137
6.25848
0.00289041
-6.25546
6.25238
0.00307884
-6.24872
6.24481
0.00391225
-6.24005
6.23512
0.00492748
-6.22953
6.22436
0.00516976
-6.21892
6.21438
0.00453579
0.380037
-0.457157
0.0771198
-0.180122
0.234534
0.116616
-0.177892
-0.281478
0.309583
0.0505918
-0.0786966
-0.325966
0.336034
0.0339937
-0.0440613
-0.34553
0.283304
0.0193325
-0.0317565
-0.288055
0.294058
-0.0120655
0.00601566
-0.298288
0.30755
-0.0334509
0.024142
-0.323703
0.407797
-0.103938
0.076642
-0.462327
0.462399
-0.138166
0.142865
-0.410158
0.389119
-0.00327097
-0.0177379
-0.458329
0.486257
0.075522
-0.238507
-0.509882
0.645501
0.0743583
-0.238817
-0.745098
0.720086
-0.0104567
-0.063719
-0.433303
0.416818
-0.371942
0.235338
-0.481375
0.408792
-0.221934
0.272148
-0.13093
0.000521817
0.000527961
0.0126176
-4.49633e-20
5.84656e-22
5.69257e-28
-5.70971e-22
-1.26078e-10
-2.39747e-08
-5.5025e-39
2.41008e-08
-9.59366e-10
-2.49311e-09
1.09751e-09
3.75697e-11
8.25119e-10
-2.86247e-11
1.86951e-10
7.72927e-11
1.00618e-13
-3.87885e-13
1.63924e-14
8.99656e-15
2.47898e-14
-4.417e-17
3.93007e-15
-1.90222e-13
1.04805e-20
-2.51471e-22
7.49559e-22
-8.82412e-34
-0.0177297
2.81446
0.246114
-1.38261
-4.35123
4.80975
1.85209
-2.31061
-5.24783
5.62025
0.914222
-1.28664
-5.92514
6.17274
0.520132
-0.767732
-6.37261
6.53308
0.317156
-0.477628
-6.66105
6.76251
0.194872
-0.296329
-6.84215
6.9038
0.11624
-0.177892
-6.95062
6.98502
0.0698026
-0.104203
-7.00949
7.02638
0.0360041
-0.0528972
-7.0373
7.04375
0.00178235
-0.00822508
-7.04593
7.04476
-0.0217668
0.0229345
-7.04063
7.03389
-0.0203406
0.0270716
-7.02478
7.01375
-0.00814217
0.0191828
-7.00155
6.99074
-0.0239318
0.0347389
-6.98182
6.97314
-0.040772
0.0494471
-6.96224
6.94916
-0.0135031
0.0265838
-6.93534
6.92038
-0.000689702
0.0156492
-6.90427
6.88916
-0.0382908
0.0534012
-6.87464
6.85867
-0.0783811
0.094354
-6.8384
6.8155
-0.0679789
0.0908762
-6.79278
6.77164
-0.0509533
0.0720943
-6.75266
6.73597
-0.0360399
0.052728
-6.72146
6.70878
-0.0254373
0.0381137
-6.69763
6.68774
-0.0191316
0.0290226
-6.67892
6.67107
-0.0152286
0.0230798
-6.66409
6.65791
-0.0124469
0.0186299
-6.65242
6.64757
-0.0103765
0.015229
-6.64321
6.63927
-0.00894802
0.0128914
-6.6356
6.63215
-0.00804706
0.0115026
-6.62884
6.62568
-0.00725705
0.0104141
-6.62266
6.61979
-0.00637326
0.00923678
-6.61706
6.61439
-0.00578894
0.00845688
-6.61172
6.6088
-0.00621937
0.00913505
-6.60558
6.60177
-0.00794445
0.0117533
-6.59743
6.59235
-0.0101244
0.0152008
-6.58693
6.58119
-0.0108565
0.0166028
-6.57582
6.57077
-0.00952755
0.0145813
0.509625
-0.544357
0.0347321
-0.0974439
0.140749
0.23143
-0.274735
-0.158802
0.193333
0.109261
-0.143563
-0.228709
0.269659
0.0566713
-0.0678694
-0.298898
0.316908
0.0457794
-0.059683
-0.332817
0.34527
0.00228716
-0.0147401
-0.356948
0.371813
-0.0172265
0.00236158
-0.393322
0.43
-0.0442489
0.00757083
-0.480862
0.535146
-0.0995293
0.0452351
-0.563984
0.578142
0.0313478
-0.0455055
-0.573532
0.587838
0.265807
-0.280112
-0.619506
0.634189
0.301368
-0.32577
-0.710713
0.84159
0.16152
-0.25562
-0.970978
0.94043
-0.318447
0.207024
-0.554105
0.196273
-0.167433
0.287153
-0.130296
0.10957
-0.0465034
0.137804
-0.0678013
0.0537472
-0.00337757
0.182775
-0.0464558
-8.20408e-06
0.000172014
0.00536158
9.23478e-07
-6.92978e-07
-2.51395e-11
9.52033e-06
3.18203e-06
-1.14097e-07
4.67006e-08
-4.1494e-05
-4.30237e-06
2.2471e-07
-1.66479e-11
-2.35487e-05
-3.24397e-13
-3.46586e-26
3.24397e-13
-1.54551e-23
8.56586e-19
0.366525
-1.34566e-18
-0.366525
-4.07239
5.0173
3.35495
-3.95747
-5.13179
5.3505
2.61676
-2.83547
-5.61149
5.87095
1.59585
-1.8553
-6.10847
6.31645
0.994833
-1.20281
-6.49194
6.63668
0.630551
-0.77529
-6.75382
6.84678
0.39403
-0.486996
-6.91933
6.97494
0.236933
-0.292544
-7.01642
7.04644
0.136675
-0.166686
-7.06735
7.08147
0.0685862
-0.0826989
-7.0907
7.09649
0.014532
-0.0203154
-7.09961
7.10026
-0.0227612
0.0221128
-7.09819
7.0931
-0.0327519
0.0378442
-7.0849
7.07435
-0.0302714
0.0408176
-7.0632
7.0531
-0.0452114
0.0553054
-7.04455
7.0364
-0.0577349
0.0658844
-7.02669
7.01406
-0.0392516
0.0518805
-6.99893
6.98321
-0.0318451
0.0475634
-6.96854
6.95613
-0.0670934
0.0794982
-6.94595
6.93647
-0.10651
0.115994
-6.92575
6.91335
-0.107791
0.120192
-6.90011
6.88692
-0.0890855
0.102277
-6.87438
6.86284
-0.0669063
0.0784473
-6.85242
6.84299
-0.0493204
0.0587461
-6.83438
6.82644
-0.0380609
0.0459934
-6.8192
6.81272
-0.0303077
0.0367913
-6.80702
6.80208
-0.0242314
0.029169
-6.79785
6.79427
-0.0194741
0.0230538
-6.79124
6.78863
-0.0161793
0.0187868
-6.78629
6.78408
-0.014339
0.0165406
-6.78193
6.77981
-0.0130552
0.0151768
-6.7777
6.77564
-0.0116906
0.0137538
-6.77362
6.77162
-0.0107828
0.0127813
-6.76956
6.7673
-0.0117141
0.0139742
-6.76469
6.76153
-0.0152218
0.0183797
-6.75772
6.75313
-0.0200033
0.0245915
-6.74793
6.74236
-0.0222145
0.0277846
-6.7371
6.73237
-0.0194506
0.0241794
0.565168
-0.5719
0.0067322
-0.0378046
0.0582728
0.305541
-0.32601
-0.0906374
0.132723
0.208674
-0.25076
-0.147598
0.166587
0.080452
-0.117275
-0.187146
0.241676
0.0641679
-0.0845197
-0.261591
0.287614
0.0282487
-0.031945
-0.315994
0.33688
0.0129168
-0.0196509
-0.357019
0.385353
0.0250196
-0.0445685
-0.426874
0.47353
0.00752756
-0.0541744
-0.502664
0.522497
0.0681917
-0.0949327
-0.524673
0.508346
0.278207
-0.256939
-0.515911
0.599597
0.347937
-0.401668
-0.697681
0.771601
0.341906
-0.415826
-0.872056
1.00623
-0.0434363
-0.0907359
-1.15555
1.27363
-0.419453
0.301372
-1.3068
1.34155
-0.407571
0.466153
-1.23549
0.150336
-0.566886
0.616907
-6.13742e-07
2.79121e-07
-2.63333e-07
5.97954e-07
-1.50881e-06
5.97475e-05
-3.04224e-05
8.42577e-05
-7.55088e-05
8.72906e-05
5.80384e-05
-7.02849e-05
-2.84451e-05
3.32037e-19
2.7522e-05
4.52219e-36
-1.5579e-19
0.19125
2.11456e-19
-0.19125
-2.80753
5.4599
2.30486
-4.21157
-5.54842
5.5498
3.97179
-3.97317
-5.61965
5.75607
2.99962
-3.13603
-5.93132
6.12067
2.07227
-2.26162
-6.30453
6.47195
1.38777
-1.55519
-6.6163
6.73695
0.907271
-1.02792
-6.83433
6.91101
0.571664
-0.648345
-6.96959
7.01378
0.342292
-0.386476
-7.04619
7.06932
0.193023
-0.216157
-7.0852
7.09581
0.094786
-0.105398
-7.10284
7.10753
0.0253357
-0.0300299
-7.11048
7.11176
-0.0212808
0.0200054
-7.111
7.10781
-0.0421547
0.0453406
-7.10213
7.09451
-0.0500641
0.0576877
-7.08612
7.07807
-0.064503
0.0725528
-7.07076
7.06354
-0.0737079
0.080936
-7.05526
7.04514
-0.0634044
0.0735203
-7.03348
7.02148
-0.06159
0.0735866
-7.01066
7.00197
-0.0900762
0.0987568
-6.99561
6.99068
-0.123035
0.127968
-6.986
6.98081
-0.128638
0.133829
-6.97512
6.96912
-0.111631
0.117626
-6.9632
6.95756
-0.0869275
0.0925693
-6.95232
6.94734
-0.0659294
0.0709103
-6.9424
6.93733
-0.0524646
0.0575378
-6.93235
6.92777
-0.042267
0.0468443
-6.92379
6.92041
-0.0332775
0.0366546
-6.91764
6.91548
-0.0258742
0.0280402
-6.91387
6.91269
-0.0206385
0.0218225
-6.91173
6.91081
-0.0180655
0.0189808
-6.90983
6.90873
-0.0167485
0.0178503
-6.90751
6.9062
-0.0153969
0.016707
-6.90484
6.90345
-0.0144295
0.0158136
-6.90201
6.90039
-0.0158777
0.0174999
-6.89844
6.89598
-0.0211527
0.0236087
-6.89284
6.88881
-0.0288735
0.0328978
-6.88389
6.87841
-0.0332433
0.038727
-6.87313
6.86869
-0.0286946
0.0331253
0.559933
-0.500489
-0.0380174
0.0105716
0.000640447
0.334617
-0.261462
-0.0255704
0.060515
0.287825
-0.295895
-0.102393
0.144494
0.186205
-0.228306
-0.179386
0.203209
0.128058
-0.15713
-0.205211
0.200822
0.0430258
-0.0784844
-0.220342
0.24442
0.0353154
-0.0642725
-0.282877
0.330597
0.0678107
-0.105223
-0.357595
0.390736
0.0938168
-0.127377
-0.421076
0.451215
0.128095
-0.167795
-0.452823
0.47906
0.283252
-0.328903
-0.536701
0.568217
0.485485
-0.515064
-0.605853
0.660082
0.478997
-0.533225
-0.719152
0.777205
0.204061
-0.275989
-0.889629
1.01766
-0.203855
0.110842
-1.08928
1.14351
-0.411997
0.357758
-1.20032
0.955482
-0.685374
0.793731
-0.164998
-3.50776e-05
-0.00991099
0.219517
8.40287e-06
1.66559e-05
-3.90902e-05
-1.45262e-06
-9.00058e-06
-4.63366e-23
9.00058e-06
-5.24215e-24
1.20228e-18
0.157279
-3.34594e-18
-0.157279
-2.35654
5.46849
1.8602
-4.37959
-5.74554
5.76952
4.40308
-4.42705
-5.79424
5.8352
3.99354
-4.0345
-5.9111
6.02486
3.25553
-3.3693
-6.16481
6.3159
2.4274
-2.57849
-6.46272
6.5961
1.70343
-1.8368
-6.70945
6.80355
1.13427
-1.22837
-6.87868
6.93722
0.715019
-0.773563
-6.98157
7.01521
0.424358
-0.457993
-7.04075
7.06017
0.236365
-0.255783
-7.07471
7.08558
0.115245
-0.126117
-7.094
7.10087
0.0351521
-0.0420257
-7.10655
7.11093
-0.0176357
0.0132554
-7.11366
7.1145
-0.0467921
0.0459575
-7.11333
7.11053
-0.0630406
0.0658458
-7.10667
7.10243
-0.0788197
0.0830589
-7.0981
7.09353
-0.0869365
0.0914971
-7.08826
7.08199
-0.0816876
0.0879589
-7.0749
7.06782
-0.0830182
0.0900925
-7.06173
7.05736
-0.105171
0.109537
-7.05491
7.05403
-0.13076
0.131636
-7.054
7.05418
-0.136076
0.135901
-7.05417
7.05381
-0.120517
0.120878
-7.05321
7.05248
-0.0954999
0.0962306
-7.05176
7.05088
-0.0736725
0.0745509
-7.04942
7.047
-0.0611689
0.0635908
-7.04391
7.04087
-0.0505265
0.053563
-7.03827
7.03611
-0.0393208
0.0414768
-7.03441
7.0332
-0.0296237
0.0308307
-7.03256
7.03239
-0.0224184
0.0225972
-7.03241
7.03242
-0.0193665
0.0193584
-7.03226
7.03188
-0.0185364
0.0189205
-7.03125
7.0304
-0.0177326
0.0185824
-7.02938
7.02829
-0.0169854
0.0180731
-7.02716
7.02591
-0.0188745
0.0201276
-7.02439
7.02249
-0.025733
0.0276349
-7.01999
7.01662
-0.0365684
0.0399405
-7.01209
7.00667
-0.0441437
0.0495702
-7.0012
6.99686
-0.0374451
0.0417874
0.403524
-0.327551
-0.0645693
0.0611964
-0.0450314
0.272655
-0.288829
0.0213842
0.00321904
0.255361
-0.39225
-0.0342184
0.0709563
0.254763
-0.267015
-0.113795
0.148238
0.184111
-0.19802
-0.169912
0.187524
0.0984959
-0.116108
-0.201936
0.215633
0.0810041
-0.0947008
-0.230815
0.247762
0.128595
-0.145542
-0.26349
0.273633
0.155696
-0.183373
-0.297648
0.323724
0.198772
-0.183793
-0.336234
0.345353
0.350802
-0.335777
-0.386188
0.449699
0.511993
-0.554479
-0.471443
0.455946
0.553078
-0.540736
-0.503368
0.615597
0.37037
-0.454678
-0.634215
0.45071
-0.0351959
-0.0261194
-0.391685
0.536521
-0.309705
0.0354831
-0.80576
0.913243
-0.73883
0.463692
-0.711895
0
-0.410943
0.193273
1.73197e-20
-8.73637e-27
1.22577e-08
-1.22577e-08
-1.70301e-29
0.244624
-2.5908e-18
-0.244624
-2.95404
5.36666
2.45697
-4.78641
-5.67927
5.74416
4.70857
-4.77346
-5.80577
5.86564
4.47004
-4.52991
-5.92718
5.99783
4.09131
-4.16196
-6.0857
6.19445
3.47829
-3.58704
-6.31689
6.44128
2.71419
-2.83859
-6.55704
6.65752
1.95263
-2.05311
-6.73903
6.80692
1.30847
-1.37636
-6.86405
6.91211
0.824351
-0.872409
-6.9517
6.986
0.489323
-0.523623
-7.01629
7.04289
0.27673
-0.303327
-7.06581
7.08324
0.139908
-0.158173
-7.09843
7.11335
0.0519016
-0.0645234
-7.12731
7.13846
-0.00608142
-0.00437161
-7.14685
7.15293
-0.0424964
0.0364138
-7.15686
7.159
-0.0659757
0.0638384
-7.15982
7.15968
-0.0851056
0.0852507
-7.15876
7.15708
-0.0944879
0.0961681
-7.15459
7.15125
-0.092457
0.095796
-7.14736
7.14361
-0.0950964
0.0988517
-7.14086
7.13976
-0.112008
0.113111
-7.14042
7.14257
-0.130869
0.128721
-7.14587
7.14971
-0.133691
0.129846
-7.15348
7.15676
-0.119176
0.115894
-7.15939
7.16145
-0.0952828
0.0932186
-7.16315
7.16465
-0.0739182
0.0724099
-7.16567
7.16525
-0.0649167
0.065335
-7.16326
7.16108
-0.0560682
0.0582485
-7.15924
7.1577
-0.0432265
0.0447738
-7.15639
7.1554
-0.0318214
0.0328176
-7.1549
7.15497
-0.0225374
0.0224665
-7.15528
7.15561
-0.0191041
0.0187679
-7.1558
7.15572
-0.0191036
0.0191828
-7.15535
7.15465
-0.0193271
0.0200304
-7.15361
7.15236
-0.0191743
0.0204169
-7.15107
7.14967
-0.0213681
0.0227674
-7.14807
7.14625
-0.0293985
0.031218
-7.14417
7.1416
-0.0429034
0.0454723
-7.13794
7.13307
-0.0548288
0.0597061
-7.12776
7.12326
-0.0461329
0.050631
0.279618
-0.210769
-0.0704514
0.104885
-0.0953783
0.391433
-0.405779
0.0762495
-0.0504737
0.427477
-0.453253
0.0143021
0.0253911
0.353351
-0.393045
-0.0620265
0.0886938
0.212296
-0.265515
-0.116821
0.130163
0.130081
-0.141433
-0.134968
0.137607
0.103452
-0.106092
-0.141541
0.147537
0.157063
-0.162991
-0.15626
0.164382
0.208962
-0.224843
-0.160402
0.190048
0.206478
-0.236124
-0.221813
0.274707
0.368307
-0.449821
-0.299698
0.320385
0.59087
-0.611583
-0.295231
0.303812
0.542786
-0.551246
-0.370479
0.411253
0.517892
-0.561553
-0.260496
2.61381e-05
0.0450247
-0.0266028
1.51345e-20
5.10036e-22
7.01404e-08
-7.01404e-08
8.9134e-21
2.59777e-21
1.77104e-07
-1.77104e-07
2.51509e-21
1.50634e-10
-1.50634e-10
-1.30975e-20
-2.75331e-08
0.316038
1.25534e-09
-0.316038
-3.28576
5.22698
3.15131
-5.21385
-5.46777
5.55884
5.05371
-5.14478
-5.65133
5.74205
4.8514
-4.94212
-5.83003
5.91657
4.60263
-4.68917
-6.00064
6.08844
4.24231
-4.33011
-6.18309
6.28439
3.69239
-3.79369
-6.38718
6.47978
2.94786
-3.04046
-6.5436
6.30677
2.13575
-2.00167
-4.89169
3.22902
1.42765
-0.144929
-1.76279
0.721406
0.641171
3.22035e-20
-0.110433
2.17033e-19
0.110433
2.27119e-20
1.7317e-20
-1.34919e-19
0
1.24208e-20
1.53233e-19
-1.79205e-19
0
6.66046e-21
1.91834e-19
-1.80003e-19
0
3.35282e-21
9.54021e-20
-0.000323276
0.000323276
1.08746e-21
-0.00349357
0.017966
-0.0056914
9.48677e-20
-0.0467787
0.0931989
-0.0162266
0
-0.159062
0.242529
-0.029163
0
-0.337186
0.432797
-0.0416211
0
-0.519072
0.594069
-0.0508733
0
-0.66896
0.764968
-0.0561025
0
-0.90343
1.06015
-0.0631503
0
-1.12893
1.12961
-0.072826
0
-1.12865
1.09847
-0.0800493
0
-0.997993
0.827779
-0.0718842
0
-0.640639
0.485917
-0.0567777
0
-0.371284
0.281865
-0.0417326
0
-0.20547
0.14361
-0.0267844
-2.1684e-19
-0.107858
0.0924221
-0.0112067
0
-0.0831679
0.0753135
-0.00848298
0
-0.0699607
0.0685134
-0.00596076
0
-0.0687406
0.0697967
-0.00476105
-2.71051e-20
-0.0736851
0.0807636
-0.00411854
-2.71051e-20
-0.0891932
0.0975323
-0.00399357
0
-0.106064