/*--------------------------------*- C++ -*----------------------------------*\
| =========                 |                                                 |
| \\      /  F ield         | OpenFOAM: The Open Source CFD Toolbox           |
|  \\    /   O peration     | Version:  v1912                                 |
|   \\  /    A nd           | Website:  www.openfoam.com                      |
|    \\/     M anipulation  |                                                 |
\*---------------------------------------------------------------------------*/
FoamFile
{
    version     2.0;
    format      ascii;
    class       volScalarField;
    location    "40";
    object      epsilon;
}
// * * * * * * * * * * * * * * * * * * * * * * * * * * * * * * * * * * * * * //

dimensions      [0 2 -3 0 0 0 0];


internalField   nonuniform List<scalar> 
20320
(
4.44147e-05
0.000214353
0.000220195
0.000225974
0.000231642
0.000237155
0.000242454
0.000247468
0.000252112
0.000256289
0.000259893
0.000262807
0.000264894
0.000266006
0.000265957
0.000264452
0.000260997
0.000254506
0.000241942
0.000211277
4.40132e-05
4.39263e-05
4.46702e-05
4.64456e-05
4.97771e-05
5.53212e-05
6.39008e-05
7.65829e-05
9.4743e-05
0.000120106
0.000154797
0.00020146
0.00026325
0.00034395
0.00044761
0.000577401
0.000733946
0.000907038
0.00105478
0.00113861
4.44238e-05
4.49241e-05
4.61376e-05
4.81804e-05
5.1499e-05
5.67103e-05
6.47115e-05
7.68379e-05
9.5074e-05
0.000122335
0.000162743
0.000221838
0.000306747
0.000426099
0.000589482
0.00080536
0.00107508
0.00137775
0.00163398
0.00188443
4.50108e-05
4.65114e-05
4.88034e-05
5.1944e-05
5.64003e-05
6.28133e-05
7.21193e-05
8.57391e-05
0.000105877
0.000135951
0.00018116
0.000249074
0.000350003
0.000496904
0.000704506
0.000986682
0.00134844
0.00176377
0.00212827
0.00258826
4.57374e-05
4.85748e-05
5.23167e-05
5.69536e-05
6.29739e-05
7.10542e-05
8.21851e-05
9.78645e-05
0.00012042
0.000153532
0.000203034
0.000277967
0.000391503
0.000561017
0.000806432
0.00114608
0.00158729
0.00210086
0.00256869
0.00327984
4.65818e-05
5.10982e-05
5.66997e-05
6.33121e-05
7.14323e-05
8.17628e-05
9.53412e-05
0.000113733
0.000139361
0.000176048
0.000229957
0.000311014
0.000434592
0.000622436
0.000900756
0.00129353
0.00180931
0.00241263
0.00297547
0.0039705
4.75158e-05
5.40229e-05
6.1888e-05
7.09784e-05
8.17862e-05
9.50233e-05
0.000111759
0.000133615
0.000163096
0.000204136
0.0002631
0.000350434
0.000483011
0.000686271
0.000993126
0.00143509
0.00202295
0.0027124
0.00336431
0.00467046
4.85046e-05
5.72672e-05
6.77764e-05
7.98578e-05
9.3988e-05
0.00011087
0.000131585
0.000157793
0.000192066
0.000238435
0.000303425
0.000397846
0.000539604
0.000757063
0.00108953
0.00157751
0.0022364
0.00301261
0.00375362
0.00539094
4.95061e-05
6.07168e-05
7.41901e-05
8.97449e-05
0.000107845
0.000129175
0.000154811
0.000186432
0.000226658
0.000279604
0.000351941
0.000454786
0.000606843
0.000838804
0.00119576
0.00172783
0.00245727
0.0033218
0.00415338
0.00614644
5.04713e-05
6.42193e-05
8.08691e-05
0.000100294
0.000122974
0.000149583
0.000181194
0.000219496
0.00026714
0.000328305
0.000409803
0.00052305
0.000687465
0.000935731
0.00131819
0.00189487
0.00269685
0.00365436
0.00458055
0.00695766
5.13461e-05
6.7587e-05
8.74668e-05
0.000111007
0.000138763
0.000171454
0.000210184
0.000256664
0.000313578
0.000385156
0.000478345
0.000604882
0.000784919
0.00105303
0.00146452
0.00208959
0.00297012
0.00403053
0.00506141
0.00784511
5.2076e-05
7.06071e-05
9.3565e-05
0.00012124
0.000154375
0.000193837
0.000240854
0.000297232
0.000365728
0.000450642
0.000559066
0.00070311
0.000903761
0.00119759
0.00164495
0.0023266
0.00329701
0.00447556
0.00562387
0.00883614
5.26122e-05
7.30638e-05
9.87144e-05
0.000130264
0.000168792
0.000215488
0.000271882
0.000340039
0.000422923
0.000524998
0.000653582
0.000821272
0.00105012
0.00137909
0.00187409
0.0026275
0.00370839
0.00503121
0.00631713
0.00998638
5.29178e-05
7.47662e-05
0.000102492
0.000137339
0.000180905
0.000234935
0.000301549
0.000383374
0.000483873
0.000607943
0.00076337
0.000963541
0.00123207
0.00161115
0.0021737
0.00302601
0.00425534
0.00577079
0.00723221
0.0113901
5.29741e-05
7.55797e-05
0.000104569
0.000141829
0.000189652
0.000250617
0.000327822
0.00042493
0.000546454
0.000698294
0.000889296
0.00113436
0.00145972
0.00191264
0.00257618
0.00357567
0.00502316
0.00682055
0.00852481
0.0132137
5.27839e-05
7.54505e-05
0.000104773
0.000143316
0.000194194
0.000261089
0.000348524
0.000461864
0.000607528
0.000793469
0.00103082
0.00133751
0.00174472
0.00230868
0.00312963
0.0043642
0.00616614
0.00843269
0.0105351
0.0158266
5.23709e-05
7.44166e-05
0.000103123
0.000141682
0.000194066
0.000265245
0.000361602
0.000490969
0.000662857
0.000888921
0.00118474
0.00157426
0.00209814
0.00282967
0.00390199
0.00553308
0.00796709
0.011128
0.0140276
0.0200846
5.17759e-05
7.26007e-05
9.98265e-05
0.00013714
0.000189284
0.000262549
0.000365462
0.00050904
0.000707251
0.000977676
0.00134367
0.00184013
0.00252536
0.00350514
0.00497834
0.00729731
0.0109456
0.0160773
0.0211042
0.0287221
5.10498e-05
7.01872e-05
9.52419e-05
0.000130199
0.000180365
0.000253183
0.000359331
0.000513454
0.000735188
0.00105051
0.00149479
0.00212097
0.00301756
0.00434833
0.00643833
0.00993368
0.0159785
0.0259175
0.03831
0.0529923
5.02463e-05
6.73889e-05
8.98084e-05
0.000121567
0.000168242
0.000238066
0.000343529
0.000502821
0.000741864
0.00109701
0.00161997
0.00238979
0.00354067
0.00532813
0.00829211
0.0136499
0.0241597
0.0456768
0.0864631
0.166007
0.87701
1.75869
2.23105
2.42564
2.327
2.15312
1.8553
1.25797
2.391
5.24826
12.563
33.3957
49.4631
73.9287
216.411
490.544
737.942
843.592
1105.92
1489.42
1897.7
2517.5
3431.18
2523.71
1445.66
869.402
588.196
429.229
328.507
259.623
210.275
173.014
143.886
121.577
104.519
91.205
80.2085
71.2674
64.3535
58.6216
53.1808
48.5211
45.024
42.5748
40.8371
39.5209
38.4378
37.4891
36.6345
35.8624
35.1715
34.5586
34.0231
33.5547
33.1361
32.7557
32.407
32.0972
31.8389
31.6395
1.69344
0.875209
0.907518
0.940466
0.943583
0.936283
0.933266
0.982565
1.47177
2.48444
5.97469
15.8834
30.1027
52.2178
116.803
339.747
520.884
552.66
599.925
833.105
1164.03
1746.94
3223.34
1576.96
722.908
428.937
290.064
211.834
162.387
128.618
104.257
85.9649
71.8473
60.7864
51.9782
44.8821
39.1589
34.5167
30.6682
27.453
24.7821
22.5649
20.6987
19.1512
17.8784
16.8194
15.9186
15.136
14.4461
13.8341
13.2902
12.8068
12.3765
11.9923
11.6482
11.3388
11.0598
10.8073
10.5783
10.3728
2.51191
1.11949
1.0541
1.01295
0.976034
0.953545
0.961254
1.0284
1.27007
1.90529
6.36472
19.6782
39.1345
60.1824
88.1604
144.723
259.941
421.76
591.235
902.668
1305.49
1832.85
1908.75
985.062
551.354
352.45
247.781
185.388
144.692
116.376
95.6963
80.025
67.8181
58.1168
50.2859
43.8875
38.6271
34.3006
30.7123
27.683
25.1069
22.9311
21.1001
19.5537
18.2428
17.1236
16.1585
15.3177
14.5798
13.9291
13.3536
12.8431
12.3887
11.9822
11.6158
11.283
10.9789
10.7011
10.4486
10.2224
3.4168
1.42679
1.33085
1.25523
1.1748
1.12265
1.13095
1.22451
1.52266
2.76727
9.47819
28.8283
59.4871
93.8684
131.157
183.7
269.125
418.691
670.667
1036.8
1339.37
1304.45
916.442
592.611
388.795
272.266
202.25
156.946
125.835
103.439
86.666
73.6866
63.3935
55.0836
48.276
42.6415
37.9617
34.0785
30.8342
28.0874
25.7532
23.7817
22.1185
20.7067
19.5
18.4605
17.5583
16.7698
16.0769
15.4651
14.9223
14.4381
14.0037
13.611
13.2519
12.9195
12.6096
12.322
12.0593
11.825
4.61301
1.7905
1.68062
1.58785
1.47058
1.38935
1.4084
1.5784
2.12151
4.49628
15.1176
43.9776
94.7513
163.53
247.104
360.522
492.358
680.98
1107.05
1383.32
1157.93
811.66
564.72
389.339
275.013
203.86
158.036
126.857
104.66
88.1918
75.4945
65.4068
57.2306
50.5209
44.958
40.3159
36.4422
33.2165
30.5194
28.2468
26.3289
24.7177
23.3656
22.2226
21.244
20.3929
19.6433
18.9793
18.3888
17.8615
17.3878
16.9591
16.568
16.2073
15.8693
15.5471
15.238
14.9447
14.6744
14.4351
5.8177
2.21811
2.10224
2.00591
1.85821
1.75031
1.79934
2.12415
3.16607
7.41028
23.956
67.79
155.139
301.569
526.208
866.374
1203.09
1585.14
2368.38
1678.81
980.517
617.54
408.502
280.444
201.589
152.974
121.663
100.302
84.9605
73.41
64.3402
57.0124
50.9943
46.0086
41.8429
38.3497
35.4409
33.0257
31.0105
29.3168
27.892
26.7037
25.718
24.8904
24.1743
23.5308
22.9377
22.3921
21.8929
21.4369
21.0198
20.6354
20.2779
19.94
19.6134
19.2908
18.9712
18.6608
18.3727
18.1202
6.66445
2.69879
2.58705
2.50939
2.34776
2.21876
2.32136
2.90852
4.80234
11.9574
37.2412
105.6
261.091
579.923
1197.26
2313.93
3332.58
4371.55
3585.77
1597.88
833.147
486.841
308.647
208.789
150.727
116.2
94.5342
79.9407
69.4881
61.7995
55.8709
51.15
47.2944
44.0973
41.3205
38.9379
37.0122
35.4224
34.0653
32.8861
31.875
31.0416
30.3686
29.8033
29.2848
28.7668
28.2376
27.7179
27.2198
26.7529
26.3219
25.9241
25.5542
25.2009
24.8504
24.4936
24.1321
23.778
23.4517
23.1692
7.77888
3.2317
3.14531
3.10212
2.94947
2.81889
3.00934
4.01352
7.24883
18.6679
57.1979
168.277
453.544
1136.76
2733.55
3896.08
6602.03
7144.41
2705.84
1203.32
617.543
355.727
224.302
153.246
113.488
90.547
76.2152
66.4242
59.4244
54.2886
50.5152
47.6439
45.4741
43.915
43.0777
42.6308
42.0819
41.3685
40.5531
39.7134
38.9386
38.3031
37.8122
37.3777
36.9034
36.3243
35.6444
34.9507
34.2819
33.6716
33.1395
32.6778
32.2693
31.882
31.4916
31.083
30.6609
30.2455
29.8744
29.5657
9.69468
3.82475
3.78452
3.79732
3.67953
3.58262
3.9202
5.57706
10.9035
28.6907
88.669
279.845
828.101
2193.43
3788.39
6273.03
5791.59
3050.77
1471.67
732.689
398.24
237.657
155.343
111.801
88.3104
74.647
64.6526
57.2463
52.0322
48.2928
45.8041
43.9516
42.6208
41.8136
41.4292
41.295
41.4005
41.4647
41.3134
41.0015
40.6391
40.3078
40.0183
39.7026
39.2906
38.7522
38.1372
37.5301
36.9555
36.443
36.0027
35.6247
35.2912
34.9718
34.6346
34.2653
33.8778
33.5029
33.1741
32.889
10.6431
4.49922
4.50857
4.61086
4.56168
4.54705
5.13071
7.73031
16.1305
43.3728
139.423
491.332
1635.02
4452.4
5841.46
6282.53
2869.04
1446.51
756.022
411.391
239.754
152.512
107.875
86.1818
73.3602
63.2604
55.6021
49.9294
45.8186
42.8884
41.1091
39.9509
39.1844
38.7653
38.5199
38.2775
38.2571
38.4259
38.5725
38.6183
38.5759
38.4778
38.335
38.1235
37.8222
37.439
37.0254
36.628
36.2571
35.9268
35.6423
35.3977
35.1805
34.9655
34.7253
34.4522
34.1634
33.8864
33.6388
33.4118
11.1897
5.20064
5.321
5.55871
5.62271
5.74622
6.70639
10.5798
23.1195
63.2823
215.898
880.595
3347.94
6812.33
9879.24
3740.82
1613.06
777.447
409.187
232.924
145.186
101.366
81.4452
70.3625
61.9796
54.4515
48.1195
43.2561
39.7611
37.3889
36.0424
35.3407
34.9975
34.8803
34.802
34.61
34.4927
34.5642
34.7345
34.8949
34.9913
35.0153
34.9713
34.8598
34.6865
34.471
34.2462
34.0314
33.8318
33.6563
33.5085
33.3862
33.2798
33.1691
33.0348
32.8744
32.7023
32.5343
32.3767
32.2233
11.8705
5.91806
6.22585
6.66063
6.89478
7.21313
8.69293
14.229
31.9184
87.8721
313.213
1456.4
6527.72
12039.2
6222.01
2208.7
909.821
429.858
229.287
137.674
94.4072
75.2642
66.7791
60.3492
54.1295
47.5682
41.6248
37.0077
33.7755
31.7299
30.6748
30.2777
30.2381
30.3666
30.4807
30.4525
30.3903
30.4269
30.5605
30.7254
30.864
30.9511
30.9832
30.9658
30.909
30.828
30.7394
30.6521
30.5709
30.504
30.4575
30.4312
30.4166
30.3976
30.3611
30.3054
30.2389
30.1701
30.0988
30.0223
13.0055
6.71758
7.2404
7.94408
8.42406
8.99715
11.0952
18.5379
42.0492
114.682
399.513
1894.25
7350.54
10360.5
3273.31
1168.2
485.42
236.403
134.005
88.9596
70.0507
63.705
58.6245
53.4503
47.6384
41.3716
35.6076
31.1065
28.0097
26.1542
25.2893
25.0848
25.2389
25.5403
25.82
25.972
26.0429
26.1321
26.2743
26.446
26.6111
26.7474
26.8483
26.9155
26.954
26.9707
26.9729
26.9679
26.9645
26.9733
27.0015
27.0489
27.1075
27.1643
27.2094
27.2403
27.2598
27.2713
27.2749
27.2698
15.1529
7.60634
8.37897
9.44774
10.2768
11.1847
13.9196
23.3019
52.5346
141.167
457.272
1975.37
6403.33
4793.94
1529.99
572.535
256.268
136.457
86.5866
66.2272
60.2998
56.5704
52.1551
47.0993
41.3577
35.3154
29.8048
25.503
22.5781
20.8844
20.1505
20.0529
20.3047
20.6996
21.0888
21.3845
21.5965
21.7851
21.9875
22.2038
22.4172
22.6126
22.7822
22.9232
23.0356
23.1217
23.1873
23.242
23.2976
23.366
23.4535
23.5592
23.6754
23.792
23.9005
23.9975
24.0827
24.1575
24.2228
24.2775
17.3601
8.59176
9.65141
11.2252
12.5559
13.9195
17.341
28.5108
62.5872
164.934
517.533
1888.92
7535.28
2117.57
711.177
295.474
148.31
88.8282
64.7981
57.4949
55.179
51.6777
46.7299
41.1096
35.1839
29.3425
24.1931
20.2292
17.5709
16.0652
15.4383
15.3911
15.6698
16.0923
16.5342
16.9236
17.2514
17.5463
17.834
18.1206
18.3993
18.6601
18.8951
19.0995
19.2716
19.4135
19.5325
19.6398
19.7484
19.8689
20.0062
20.1585
20.3194
20.4806
20.6352
20.7795
20.9125
21.0352
21.1494
21.2525
18.8534
9.677
11.0865
13.3513
15.4171
17.441
21.7349
34.6417
72.7542
183.729
600.334
2784.92
3389.63
1013.95
382.766
178.631
99.1075
66.6805
56.0618
54.5433
51.4944
46.9354
41.2655
35.1746
29.1504
23.5853
18.8971
15.3836
13.0754
11.7934
11.2714
11.2479
11.5139
11.9224
12.3747
12.8131
13.2193
13.6005
13.968
14.3251
14.6672
14.9869
15.2774
15.5342
15.7564
15.9477
16.1162
16.2734
16.4309
16.5972
16.7755
16.9641
17.1575
17.3497
17.5353
17.7113
17.8772
18.0347
18.1861
18.3268
18.8129
10.8915
12.786
15.9226
19.0734
22.123
27.7627
42.9736
86.2206
204.639
578.864
2249.05
1698.1
579.915
248.096
125.169
74.7781
56.6247
53.9311
52.4275
47.8124
41.8715
35.5249
29.2285
23.3484
18.2059
14.0722
11.084
9.17823
8.14525
7.73529
7.73127
7.9721
8.34721
8.7828
9.23331
9.67728
10.1091
10.5288
10.9342
11.3203
11.6809
12.0106
12.3063
12.5685
12.8016
13.0137
13.2147
13.4135
13.6165
13.8257
14.0395
14.2541
14.4653
14.6694
14.8648
15.052
15.2336
15.4124
15.581
20.4325
12.5062
14.9894
19.0653
23.7836
28.4795
36.4404
55.56
107.582
249.196
660.974
1928.34
1005.52
402.061
183.655
95.6681
61.4695
53.074
53.5761
49.6752
43.3908
36.4131
29.6707
23.4461
17.9398
13.362
9.8578
7.43593
5.95322
5.1792
4.8889
4.91066
5.12739
5.46152
5.8612
6.29199
6.7333
7.17408
7.60754
8.02804
8.42968
8.80675
9.15511
9.47288
9.76117
10.0242
10.2685
10.5015
10.7297
10.9573
11.1855
11.4135
11.6388
11.8588
12.0715
12.2769
12.4766
12.6741
12.8724
13.061
27.1145
15.5012
18.2272
23.0857
29.4728
37.0698
49.0926
75.1783
142.44
326.241
841.619
2244.36
780.5
314.758
143.74
76.2204
54.1606
53.3587
52.3713
46.0178
38.2858
30.7275
23.9462
18.0451
13.0921
9.18604
6.35792
4.51316
3.44783
2.92586
2.75418
2.80417
2.99698
3.28313
3.62938
4.01217
4.41478
4.82544
5.23536
5.63728
6.02489
6.39311
6.7384
7.05926
7.35663
7.63352
7.89438
8.14417
8.38703
8.62564
8.86098
9.09259
9.31924
9.53977
9.75377
9.96226
10.1681
10.3754
10.5869
10.7887
43.8513
21.0308
23.4475
28.2285
36.2126
48.451
67.2299
105.491
198.575
450.551
1226.04
1693.12
618.398
251.537
113.105
62.4694
51.0891
54.5878
49.8773
41.4341
32.7892
25.0896
18.5816
13.2089
8.93922
5.7716
3.63466
2.34955
1.67188
1.37492
1.30366
1.37086
1.53101
1.75804
2.03452
2.34667
2.68304
3.03394
3.39103
3.74718
4.09631
4.43363
4.75582
5.06122
5.34989
5.62326
5.88384
6.13426
6.37704
6.61374
6.84514
7.07123
7.29176
7.50661
7.71651
7.92335
8.1307
8.34306
8.5625
8.77134
73.5175
30.4458
31.937
35.2902
44.764
63.4731
92.4131
150.812
288.555
640.665
1642.4
1358.86
495.704
197.457
88.0637
53.1436
51.6466
53.986
46.1473
36.2441
27.2303
19.7504
13.7573
9.06612
5.56511
3.16502
1.70543
0.935338
0.589513
0.465791
0.456939
0.517129
0.629302
0.785552
0.980363
1.20778
1.46152
1.73463
2.02056
2.31299
2.60642
2.89633
3.17937
3.4534
3.71741
3.97148
4.21634
4.45311
4.68294
4.90674
5.12516
5.33854
5.54726
5.75196
5.954
6.15582
6.36121
6.57462
6.79692
7.00679
120.466
45.9662
45.3934
46.235
56.1976
83.2612
125.539
214.74
430.161
978.976
2645.34
1072.71
385.709
149.903
68.1396
47.7589
53.9333
51.989
41.5407
30.8153
21.8752
14.8983
9.59707
5.69223
3.00456
1.38161
0.553175
0.211125
0.100829
0.0761128
0.0848872
0.116158
0.170743
0.251662
0.361297
0.499498
0.664927
0.85301
1.05937
1.27873
1.50649
1.73841
1.97103
2.20177
2.42884
2.65112
2.8682
3.08009
3.28707
3.48965
3.68837
3.88377
4.07661
4.26792
4.4593
4.6533
4.85356
5.06383
5.28346
5.48814
171.962
67.6173
63.1556
62.1504
71.0502
108.255
165.438
295.996
641.21
1563.48
2559.45
813.76
283.854
109.219
53.3549
45.9685
55.467
48.3404
36.3315
25.4111
16.9213
10.6597
6.16981
3.1227
1.29795
0.390956
0.0693313
0.00802954
0.00205857
0.00185376
0.00328604
0.00752862
0.0178202
0.0390761
0.0766694
0.134858
0.215981
0.320026
0.445392
0.588825
0.747067
0.915647
1.09135
1.27137
1.45329
1.63539
1.81642
1.99572
2.1731
2.34876
2.52313
2.69683
2.87072
3.04594
3.22406
3.40734
3.59876
3.80107
4.01176
4.20475
117.733
67.842
73.5041
79.7729
92.0082
129.478
216.038
384.353
904.035
2192.17
1686.64
544.717
194.379
77.0339
43.5629
47.5385
54.1297
43.7137
30.8559
20.2618
12.5108
7.10823
3.53
1.41171
0.365569
0.0327188
0.000428634
6.95093e-05
5.8112e-05
5.98383e-05
7.24471e-05
0.000121753
0.000329488
0.0012187
0.00447879
0.0137111
0.0338061
0.0691445
0.122331
0.19394
0.28278
0.386803
0.5031
0.629331
0.762036
0.899504
1.03991
1.18228
1.32609
1.47132
1.61825
1.76747
1.91975
2.0761
2.23786
2.4068
2.58497
2.77366
2.96861
3.14364
89.5569
64.2443
83.0176
98.6584
119.114
159.967
259.161
458.242
969.29
2072.8
907.106
335.195
126.444
54.0365
38.2989
51.3656
51.0093
38.2418
25.3885
15.5443
8.72854
4.30911
1.73115
0.445811
0.0334461
0.000175837
5.18351e-05
4.856e-05
4.70569e-05
4.60787e-05
4.56134e-05
4.58209e-05
4.76454e-05
5.55689e-05
9.01566e-05
0.00025731
0.00105844
0.00414906
0.0128697
0.031326
0.0627368
0.108569
0.168534
0.241203
0.324451
0.416269
0.514825
0.618884
0.727517
0.840513
0.958051
1.0805
1.2085
1.34284
1.48455
1.63478
1.79463
1.96385
2.13658
2.28816
84.4051
58.2657
83.7918
118.182
146.612
183.56
277.337
486.045
992.895
1248.3
505.251
200.888
80.5558
39.2265
36.951
53.0565
46.549
32.5498
20.2221
11.3881
5.6406
2.32847
0.649287
0.061462
0.000268284
5.095e-05
4.76542e-05
4.60469e-05
4.48409e-05
4.39777e-05
4.33629e-05
4.29151e-05
4.26836e-05
4.27873e-05
4.34156e-05
4.55225e-05
5.35656e-05
8.89576e-05
0.00026562
0.001118
0.00432315
0.0129981
0.0305349
0.0590076
0.098687
0.148646
0.207598
0.2744
0.348361
0.428969
0.516424
0.610561
0.712039
0.821329
0.939238
1.0664
1.2031
1.34772
1.49313
1.61737
83.6773
55.0419
76.9338
124.916
159.569
204.133
300.57
499.995
913.244
643.312
284.212
120.746
51.5279
30.846
39.0104
51.5238
40.8633
26.8279
15.5227
7.85668
3.35457
1.04477
0.141765
0.00123639
5.30632e-05
4.76649e-05
4.57785e-05
4.43575e-05
4.32635e-05
4.24404e-05
4.18617e-05
4.14976e-05
4.13295e-05
4.12993e-05
4.13681e-05
4.16094e-05
4.21472e-05
4.33655e-05
4.69543e-05
6.05974e-05
0.000123596
0.000444854
0.00189876
0.00667773
0.0176544
0.0366909
0.0642082
0.099904
0.143388
0.194393
0.252902
0.319047
0.393237
0.475818
0.567551
0.668471
0.778462
0.894956
1.01005
1.1046
82.1821
54.5485
70.8864
118.362
156.884
209.292
315.838
511.076
655.757
353.558
166.739
73.3393
34.0045
27.3292
43.9839
47.5899
34.8238
21.4117
11.3958
5.07117
1.76231
0.335653
0.00942583
6.62054e-05
4.7793e-05
4.5882e-05
4.43239e-05
4.30806e-05
4.20983e-05
4.135e-05
4.08303e-05
4.05075e-05
4.03403e-05
4.02825e-05
4.03291e-05
4.04865e-05
4.07615e-05
4.12023e-05
4.19522e-05
4.34633e-05
4.76198e-05
6.29492e-05
0.000131197
0.00045886
0.00185051
0.00611434
0.0152475
0.0303907
0.0519646
0.0801532
0.115137
0.157158
0.206578
0.263813
0.329286
0.403145
0.48485
0.571408
0.654698
0.7163
74.411
49.9422
66.6083
105.032
142.848
201.595
306.657
455.755
416.152
213.243
101.188
44.9451
24.2336
27.5334
46.7125
42.6083
28.7511
16.4733
7.8855
3.01514
0.754934
0.0555897
0.000181065
4.84834e-05
4.60289e-05
4.4344e-05
4.30495e-05
4.19943e-05
4.11648e-05
4.05284e-05
4.00648e-05
3.97566e-05
3.9591e-05
3.95428e-05
3.95905e-05
3.97135e-05
3.99178e-05
4.02296e-05
4.06929e-05
4.14156e-05
4.26978e-05
4.56721e-05
5.51568e-05
9.2781e-05
0.000256651
0.000936523
0.00316704
0.00839678
0.0177086
0.0317033
0.0507708
0.0752574
0.105513
0.141894
0.184677
0.233831
0.288437
0.345275
0.395653
0.4175
64.6044
49.2123
67.3082
93.401
134.499
198.053
292.5
415.391
260.534
133.135
61.8946
27.958
19.8105
30.8455
45.9434
36.3083
22.9109
12.1315
5.11284
1.57817
0.223953
0.00267501
5.27238e-05
4.62117e-05
4.45688e-05
4.31574e-05
4.19916e-05
4.1085e-05
4.03879e-05
3.98514e-05
3.94465e-05
3.91701e-05
3.90184e-05
3.89762e-05
3.90233e-05
3.91385e-05
3.93212e-05
3.95747e-05
3.99255e-05
4.04339e-05
4.11901e-05
4.24559e-05
4.51814e-05
5.3179e-05
8.27517e-05
0.000203233
0.000675072
0.00219244
0.00578981
0.0122954
0.0221775
0.0357251
0.0531601
0.0746392
0.100176
0.129395
0.16099
0.1914
0.211869
0.201039
67.4499
48.9602
69.6412
91.5507
139.458
212.365
315.249
323.085
171.833
84.2701
37.2633
18.3938
19.2183
36.5426
42.0678
30.0642
17.5844
8.42935
3.04849
0.66802
0.0328438
0.000103448
4.66222e-05
4.47244e-05
4.33296e-05
4.21449e-05
4.11479e-05
4.03696e-05
3.977e-05
3.93021e-05
3.89458e-05
3.87027e-05
3.85649e-05
3.85224e-05
3.85626e-05
3.86734e-05
3.88521e-05
3.90901e-05
3.93991e-05
3.98093e-05
4.03608e-05
4.11609e-05
4.24614e-05
4.50772e-05
5.22642e-05
7.72887e-05
0.000173689
0.000532777
0.00165621
0.00431143
0.00911128
0.0163264
0.0260027
0.0380379
0.0521159
0.0675001
0.0825503
0.0937369
0.0938768
0.0702071
85.1712
48.1688
68.1783
95.5125
156.104
251.694
361.091
227.448
114.285
51.616
21.7814
13.9782
21.4873
40.8868
36.5737
23.8534
12.8909
5.4259
1.59312
0.19234
0.00148799
4.88269e-05
4.47539e-05
4.34137e-05
4.22509e-05
4.12607e-05
4.04416e-05
3.97833e-05
3.92713e-05
3.88637e-05
3.85503e-05
3.83373e-05
3.82128e-05
3.81673e-05
3.81938e-05
3.8288e-05
3.84514e-05
3.8681e-05
3.89798e-05
3.93538e-05
3.98212e-05
4.04334e-05
4.12833e-05
4.25994e-05
4.50992e-05
5.14109e-05
7.17117e-05
0.000144827
0.000402814
0.00118789
0.00304657
0.00642163
0.0114156
0.0178194
0.0251434
0.0325167
0.0384227
0.0402469
0.0339687
0.0164174
92.3341
51.044
71.2944
106.364
186.179
315.836
307.823
155.033
71.0929
28.8618
12.9808
13.2148
26.2324
39.4639
30.2445
18.2008
8.9227
3.2041
0.666816
0.0265676
8.52109e-05
4.48569e-05
4.3378e-05
4.22747e-05
4.13214e-05
4.0502e-05
3.98162e-05
3.9263e-05
3.88349e-05
3.84938e-05
3.82308e-05
3.80497e-05
3.79414e-05
3.79002e-05
3.79199e-05
3.79948e-05
3.81299e-05
3.83316e-05
3.86053e-05
3.89564e-05
3.93913e-05
3.99256e-05
4.05983e-05
4.14966e-05
4.28251e-05
4.51461e-05
5.03491e-05
6.52267e-05
0.000113738
0.000271975
0.000731632
0.00181249
0.00378546
0.00663946
0.0100118
0.0132044
0.0151874
0.0146705
0.010615
0.00387307
97.0655
56.8664
78.828
130.103
239.028
358.34
206.146
94.6752
38.2503
14.5811
9.28758
15.0766
32.8186
35.3628
24.1001
13.2622
5.685
1.64586
0.185468
0.00112764
4.66718e-05
4.34355e-05
4.23077e-05
4.13496e-05
4.05449e-05
3.98612e-05
3.9285e-05
3.8818e-05
3.84513e-05
3.81631e-05
3.79448e-05
3.7798e-05
3.7715e-05
3.76904e-05
3.77168e-05
3.77858e-05
3.79011e-05
3.80705e-05
3.83015e-05
3.86061e-05
3.89961e-05
3.94799e-05
4.00705e-05
4.0804e-05
4.17565e-05
4.30788e-05
4.51644e-05
4.9184e-05
5.88269e-05
8.5598e-05
0.000161923
0.000361687
0.00080188
0.00156606
0.00256891
0.00348492
0.00381428
0.00312747
0.00159326
0.000360449
82.55
55.1344
84.0593
160.2
302.9
270.481
120.905
48.1287
17.136
7.79727
9.0409
18.9968
35.6489
29.4894
18.1661
9.06212
3.26528
0.667483
0.0234624
7.63509e-05
4.37369e-05
4.24383e-05
4.14658e-05
4.06274e-05
3.99226e-05
3.93323e-05
3.88416e-05
3.84443e-05
3.8129e-05
3.78822e-05
3.76977e-05
3.75785e-05
3.75167e-05
3.75074e-05
3.75453e-05
3.76218e-05
3.77366e-05
3.78923e-05
3.80906e-05
3.83441e-05
3.867e-05
3.90802e-05
3.95893e-05
4.02225e-05
4.10086e-05
4.19947e-05
4.32896e-05
4.5144e-05
4.81608e-05
5.38979e-05
6.63181e-05
9.44755e-05
0.000153812
0.000259498
0.000402588
0.000522442
0.000525774
0.000382178
0.000199443
9.60849e-05
61.033
48.2196
81.9117
175.81
298.522
138.691
55.0489
18.9748
7.25922
5.98192
10.9467
24.9471
32.8935
23.0141
12.8761
5.63904
1.6125
0.173598
0.000857894
4.55047e-05
4.2695e-05
4.16093e-05
4.07325e-05
3.99989e-05
3.9386e-05
3.88731e-05
3.84484e-05
3.81091e-05
3.78465e-05
3.76461e-05
3.74995e-05
3.74062e-05
3.73594e-05
3.73568e-05
3.73974e-05
3.74764e-05
3.75943e-05
3.775e-05
3.79391e-05
3.81668e-05
3.84435e-05
3.87791e-05
3.91933e-05
3.97133e-05
4.03633e-05
4.11641e-05
4.21537e-05
4.34054e-05
4.50562e-05
4.7375e-05
5.09085e-05
5.65818e-05
6.59062e-05
8.01228e-05
9.77546e-05
0.000112415
0.000115347
0.00010377
8.39274e-05
6.38928e-05
54.2242
44.8847
85.0455
198.796
133.938
54.3577
18.6698
6.6916
4.43868
6.66897
14.471
31.0401
26.8864
16.9748
8.54457
3.07188
0.610922
0.0189039
6.84009e-05
4.30924e-05
4.18256e-05
4.08658e-05
4.00825e-05
3.94342e-05
3.89033e-05
3.84643e-05
3.81006e-05
3.78104e-05
3.75893e-05
3.74273e-05
3.73167e-05
3.72516e-05
3.72246e-05
3.72333e-05
3.72767e-05
3.73526e-05
3.74639e-05
3.76123e-05
3.77952e-05
3.8014e-05
3.82708e-05
3.8566e-05
3.89099e-05
3.9325e-05
3.98355e-05
4.04646e-05
4.12401e-05
4.21935e-05
4.33654e-05
4.48248e-05
4.66854e-05
4.91537e-05
5.24394e-05
5.66428e-05
6.16364e-05
6.67063e-05
7.0435e-05
7.10844e-05
6.69569e-05
5.76838e-05
60.8592
57.7194
107.696
154.393
52.922
16.9756
5.91078
3.50102
4.55221
8.72461
19.8715
28.1332
20.8614
11.9772
5.19134
1.41105
0.13918
0.00056147
4.4722e-05
4.22483e-05
4.11207e-05
4.02477e-05
3.95498e-05
3.89732e-05
3.85017e-05
3.81194e-05
3.7812e-05
3.75701e-05
3.73844e-05
3.72481e-05
3.71574e-05
3.71082e-05
3.70963e-05
3.71185e-05
3.71708e-05
3.72493e-05
3.73553e-05
3.74913e-05
3.76575e-05
3.78575e-05
3.80948e-05
3.83675e-05
3.8676e-05
3.90283e-05
3.9436e-05
3.9917e-05
4.04975e-05
4.12066e-05
4.20699e-05
4.311e-05
4.43644e-05
4.58783e-05
4.77172e-05
4.9977e-05
5.26692e-05
5.5602e-05
5.81998e-05
5.92886e-05
5.73952e-05
5.22471e-05
120.701
175.695
108.65
38.3875
12.6547
4.73823
2.811
3.34624
5.94506
11.9856
25.6439
23.3632
15.3969
7.90213
2.72659
0.476768
0.0118519
6.17257e-05
4.29669e-05
4.16599e-05
4.06266e-05
3.98088e-05
3.91605e-05
3.86359e-05
3.82108e-05
3.78668e-05
3.75933e-05
3.73833e-05
3.72276e-05
3.71181e-05
3.70477e-05
3.70112e-05
3.70059e-05
3.70314e-05
3.70858e-05
3.71667e-05
3.72729e-05
3.74033e-05
3.75566e-05
3.77342e-05
3.79402e-05
3.81782e-05
3.84505e-05
3.87595e-05
3.91068e-05
3.94951e-05
3.99355e-05
4.04471e-05
4.10543e-05
4.17793e-05
4.26383e-05
4.36503e-05
4.48431e-05
4.6228e-05
4.78153e-05
4.95713e-05
5.12909e-05
5.2398e-05
5.18857e-05
4.91925e-05
38.5834
58.4462
19.8921
7.32797
3.36768
2.25784
2.5767
4.37341
8.40746
16.8526
23.7933
18.0456
10.5678
4.71594
1.1999
0.0943386
0.000367897
4.503e-05
4.21434e-05
4.10144e-05
4.0105e-05
3.93748e-05
3.87892e-05
3.83176e-05
3.79428e-05
3.76467e-05
3.74146e-05
3.7236e-05
3.7104e-05
3.70143e-05
3.69619e-05
3.69414e-05
3.69479e-05
3.69791e-05
3.70337e-05
3.71109e-05
3.72116e-05
3.73358e-05
3.74819e-05
3.76482e-05
3.78339e-05
3.804e-05
3.82695e-05
3.85274e-05
3.8817e-05
3.91389e-05
3.94929e-05
3.9881e-05
4.03114e-05
4.07983e-05
4.13595e-05
4.20107e-05
4.27564e-05
4.36042e-05
4.45577e-05
4.55989e-05
4.66485e-05
4.74658e-05
4.75886e-05
4.66621e-05
4.94152e-05
6.44151e-05
8.39726e-05
0.00011202
0.00015409
0.000218712
0.000319521
0.000477533
0.000724544
0.0011079
0.00169836
0.00260754
0.0040287
0.00633912
0.0103769
0.0182329
0.035593
0.0790341
0.205639
0.877407
4.85749e-05
6.14147e-05
7.80585e-05
0.000102157
0.000138905
0.000196613
0.000289188
0.00043921
0.000682813
0.00107698
0.00171131
0.00273187
0.00439611
0.00721183
0.0123296
0.0227518
0.0472453
0.112684
0.303867
1.19047
4.77526e-05
5.84581e-05
7.2251e-05
9.23844e-05
0.000123489
0.000173176
0.000254693
0.00039055
0.000618625
0.0010019
0.00164428
0.0027208
0.00454364
0.00772428
0.0136235
0.0257191
0.0538019
0.125152
0.310774
0.77772
4.69772e-05
5.56584e-05
6.67874e-05
8.31641e-05
0.000108729
0.000150059
0.00021895
0.000336178
0.00053819
0.000888405
0.001496
0.00255054
0.00439295
0.00767828
0.0137988
0.0260849
0.0531614
0.116579
0.260542
0.550016
4.62705e-05
5.31023e-05
6.1845e-05
7.48391e-05
9.53049e-05
0.000128639
0.000184704
0.000281292
0.000450573
0.000750502
0.00128435
0.00223613
0.00393925
0.00702095
0.0127419
0.0238688
0.0468651
0.0961468
0.197311
0.386089
4.56475e-05
5.08452e-05
5.7527e-05
6.76066e-05
8.36341e-05
0.00010985
0.000154053
0.000230476
0.000365283
0.000606613
0.00104221
0.00183136
0.0032645
0.00587895
0.0107006
0.0197896
0.0374497
0.0723053
0.138676
0.253665
4.51163e-05
4.89142e-05
5.38711e-05
6.15288e-05
7.38685e-05
9.4119e-05
0.000128184
0.00018681
0.000289796
0.000473784
0.000806055
0.00140948
0.00250818
0.00451094
0.00816694
0.0148691
0.0272371
0.050013
0.0905641
0.157011
4.46797e-05
4.73135e-05
5.08648e-05
5.65676e-05
6.59551e-05
8.14498e-05
0.000107393
0.000151566
0.000228132
0.000363043
0.000603486
0.0010347
0.00181001
0.00320325
0.00569833
0.0101406
0.0179842
0.0316205
0.0545112
0.0904288
4.4337e-05
4.60303e-05
4.84577e-05
5.26128e-05
5.97053e-05
7.15582e-05
9.13278e-05
0.000124525
0.000180935
0.000278051
0.000446885
0.000741887
0.00125778
0.00215708
0.00371276
0.00637109
0.0108387
0.0181797
0.0298309
0.0473222
4.4085e-05
4.50383e-05
4.65711e-05
4.95142e-05
5.4863e-05
6.40185e-05
7.92966e-05
0.000104606
0.000146635
0.000216916
0.000335177
0.000534778
0.000871155
0.00143377
0.00236058
0.00385268
0.00619033
0.00975309
0.0150184
0.0224581
4.39228e-05
4.42908e-05
4.50947e-05
4.71163e-05
5.11994e-05
5.84294e-05
7.05541e-05
9.04358e-05
0.000122741
0.000175117
0.000260093
0.000398111
0.000622116
0.000983035
0.00155107
0.00240695
0.00363166
0.00531717
0.00760855
0.010702
4.40503e-05
4.378e-05
4.41182e-05
4.56883e-05
4.9175e-05
5.54527e-05
6.59027e-05
8.26893e-05
0.0001091
0.000150193
0.000213997
0.000313574
0.000471302
0.000732533
0.0011797
0.00196332
0.00350215
0.0066285
0.0132229
0.0270765
0.000488589
8.5744e-05
0.000135126
0.000191385
0.00025467
0.00033255
0.000445407
0.000633591
0.000965778
0.00159537
0.0029392
0.00552266
0.00987331
0.0168849
0.0289893
0.0495234
0.0816113
0.128755
0.185805
0.267841
0.0478548
0.0181621
0.020752
0.0228741
0.0260839
0.0310122
0.0381864
0.0480254
0.0611352
0.0782706
0.100085
0.125948
0.136519
0.158716
0.224324
0.3229
0.46812
0.653044
0.72682
1.1163
0.00563673
0.00990577
0.0191991
0.0334543
0.0513328
0.0734648
0.100711
0.133669
0.173364
0.219848
0.266877
0.295693
0.308527
0.33684
0.324895
0.310352
0.313588
0.325197
0.345884
0.49666
0.00122187
0.000814864
0.000591006