/*--------------------------------*- C++ -*----------------------------------*\
| =========                 |                                                 |
| \\      /  F ield         | OpenFOAM: The Open Source CFD Toolbox           |
|  \\    /   O peration     | Version:  v1912                                 |
|   \\  /    A nd           | Website:  www.openfoam.com                      |
|    \\/     M anipulation  |                                                 |
\*---------------------------------------------------------------------------*/
FoamFile
{
    version     2.0;
    format      ascii;
    class       volScalarField;
    location    "40";
    object      k;
}
// * * * * * * * * * * * * * * * * * * * * * * * * * * * * * * * * * * * * * //

dimensions      [0 2 -2 0 0 0 0];


internalField   nonuniform List<scalar> 
20320
(
0.00413926
0.00425409
0.00433104
0.00440649
0.00447988
0.00455067
0.00461821
0.00468166
0.00474005
0.00479226
0.00483709
0.00487317
0.00489895
0.00491264
0.00491203
0.00489349
0.00485077
0.00477001
0.00461169
0.00421324
0.00415079
0.00414919
0.0041944
0.00429097
0.00445938
0.00471988
0.00509076
0.00558889
0.00622936
0.00702438
0.00798335
0.00911533
0.0104268
0.0119228
0.0135976
0.0154142
0.0172852
0.0189593
0.0197322
0.0175198
0.00417739
0.00421761
0.00430413
0.00444352
0.00466144
0.00498963
0.00546788
0.00614523
0.0070791
0.00833223
0.00996436
0.0120201
0.0145188
0.0174429
0.0207263
0.0242274
0.0276666
0.0304789
0.0313525
0.0273513
0.00421514
0.00431995
0.0044745
0.00468075
0.00496459
0.00535867
0.00590614
0.00666532
0.00771482
0.00915648
0.011112
0.0137064
0.0170358
0.0211235
0.0258783
0.0310516
0.0361608
0.0402922
0.0415016
0.0358346
0.00426144
0.00445088
0.0046939
0.00498721
0.00535627
0.00583362
0.00646295
0.00730436
0.00844182
0.00999215
0.0121129
0.014999
0.0188501
0.0237958
0.02979
0.0365093
0.0432601
0.0487715
0.0504758
0.0434446
0.00431465
0.00460787
0.00496004
0.00536276
0.00584015
0.00642378
0.00715687
0.00809952
0.00933653
0.0109885
0.0132273
0.0162878
0.0204553
0.0259914
0.0329722
0.0410777
0.0494159
0.0563067
0.0585353
0.0504013
0.00437278
0.00478577
0.00526521
0.00579804
0.00640622
0.00711942
0.00797947
0.00904555
0.010402
0.0121698
0.0145254
0.0177233
0.0221053
0.0280497
0.0357913
0.0450976
0.0549357
0.0631869
0.0659325
0.056903
0.0044335
0.00497834
0.00559993
0.00628143
0.00704202
0.00790855
0.00892048
0.0101351
0.0116353
0.0135411
0.0160301
0.0193661
0.0239251
0.0301765
0.0385142
0.0488516
0.0600932
0.069691
0.0729653
0.0631296
0.00449415
0.00517794
0.00595187
0.00679698
0.00772955
0.00877301
0.0099636
0.0113558
0.0130299
0.0151038
0.0177544
0.0212498
0.0259876
0.0325038
0.0413355
0.0525697
0.0651151
0.076027
0.0798264
0.0692766
0.00455182
0.00537551
0.00630581
0.00732419
0.00844476
0.00968757
0.0110853
0.0126887
0.0145745
0.0168569
0.0197104
0.0234051
0.0283523
0.0351379
0.0444224
0.0564746
0.0702602
0.0824723
0.0867865
0.0755625
0.00460342
0.00556094
0.00664405
0.00783836
0.00915759
0.0106196
0.012254
0.0141074
0.0162519
0.0187965
0.0219118
0.0258671
0.0310835
0.0381855
0.0479402
0.0607974
0.0758187
0.0893692
0.0942173
0.0821756
0.00464601
0.00572363
0.00694744
0.00831174
0.00983303
0.0115296
0.0134296
0.0155764
0.0180372
0.0209144
0.0243723
0.028678
0.0342592
0.0417727
0.0520794
0.0658044
0.0821294
0.0971051
0.102497
0.0893706
0.00467701
0.00585355
0.00719709
0.00871585
0.0104335
0.0123727
0.0145643
0.0170509
0.0198958
0.0231947
0.0271044
0.0318879
0.0379784
0.046062
0.0570867
0.0718498
0.0896668
0.106263
0.11223
0.0975912
0.00469458
0.00594231
0.00737645
0.00902416
0.0109214
0.0131015
0.0156034
0.0184749
0.0217794
0.0256083
0.0301119
0.0355493
0.0423606
0.0512642
0.0632988
0.0794396
0.0991508
0.117787
0.124455
0.10753
0.0046978
0.00598425
0.00747333
0.00921523
0.0112637
0.0136693
0.0164881
0.0197816
0.0236225
0.0281054
0.0333793
0.0397057
0.0475392
0.0576444
0.0711722
0.0893059
0.111681
0.133173
0.140814
0.120366
0.00468688
0.00597734
0.00748183
0.00927578
0.0114352
0.0140353
0.0171593
0.0208953
0.0253398
0.0306057
0.0368562
0.0443703
0.0536399
0.0655124
0.0813136
0.102531
0.129065
0.155158
0.164625
0.13851
0.00466307
0.00592351
0.00740325
0.0092028
0.0114231
0.0141698
0.0175638
0.0217355
0.0268254
0.0329903
0.0404354
0.049491
0.0607334
0.0751734
0.0944601
0.120645
0.154228
0.188753
0.202558
0.167172
0.00462853
0.00582833
0.00724599
0.00900425
0.0112287
0.0140589
0.0176615
0.0222247
0.027958
0.0350959
0.0439299
0.0548988
0.0687479
0.0868009
0.111332
0.145578
0.191729
0.243574
0.270347
0.221033
0.00458601
0.00570023
0.00702436
0.00869824
0.0108689
0.0137084
0.0174334
0.0223014
0.0286142
0.036723
0.0470625
0.0602603
0.0773557
0.100216
0.132252
0.17913
0.247594
0.336776
0.406311
0.348491
0.00453846
0.00554924
0.00675648
0.00831041
0.0103734
0.013145
0.0168881
0.0219335
0.0286904
0.0376604
0.0494796
0.0650537
0.0858592
0.11458
0.156418
0.221336
0.326164
0.490391
0.692025
0.746251
0.622268
0.687656
0.80566
0.851757
0.828708
0.786607
0.712255
0.549447
0.8378
1.41655
2.54067
4.8817
6.34272
8.27987
16.9168
29.2334
38.4262
41.9629
50.239
61.268
71.9664
86.7012
106.962
88.2197
60.8476
43.2387
33.2651
26.9349
22.523
19.2459
16.7187
14.6812
12.9832
11.601
10.485
9.57261
8.78658
8.11839
7.58077
7.1253
6.67885
6.28109
5.97155
5.74997
5.59064
5.46927
5.36905
5.28085
5.20091
5.12818
5.06253
5.00413
4.95273
4.90751
4.86718
4.83034
4.79642
4.76611
4.74071
4.72107
0.967641
1.95215
2.25842
2.35513
2.34122
2.25836
2.13114
1.84307
1.47333
2.04044
5.61169
12.5772
19.355
22.152
29.8854
60.6069
94.1182
119.098
136.283
171.97
210.409
259.92
359.306
223.502
138.175
99.3377
77.1672
62.7531
52.5197
44.8218
38.7999
33.9437
29.9409
26.6213
23.895
21.6257
19.681
18.052
16.7332
15.5916
14.5428
13.6492
12.9859
12.5173
12.1841
11.9355
11.736
11.5665
11.4181
11.2869
11.1712
11.0702
10.983
10.9074
10.8402
10.7782
10.7205
10.6696
10.6299
10.6038
1.26234
2.73746
3.13477
3.21523
3.17639
3.08472
2.98641
2.84651
2.61734
3.11479
7.62305
17.4446
28.4102
36.1886
42.1528
53.9346
77.7756
118.771
161.792
216.032
269.886
319.514
305.179
198.766
140.237
107.167
86.2622
71.7955
61.1309
52.913
46.3731
41.0373
36.6061
32.8925
29.781
27.1587
24.9312
23.0668
21.5248
20.2068
19.0512
18.0842
17.34
16.7965
16.4052
16.1162
15.8916
15.7076
15.5511
15.4148
15.2947
15.1885
15.0948
15.0113
14.9344
14.8606
14.7891
14.7237
14.6709
14.6347
1.55449
3.46743
3.97176
4.0621
3.98163
3.86152
3.78652
3.76444
3.85777
5.00832
10.8562
23.6516
39.4421
53.4623
64.782
77.7246
96.6789
130.883
183.443
244.934
287.886
276.612
214.718
160.934
123.908
99.8351
83.282
71.1496
61.8501
54.4828
48.4894
43.5105
39.3182
35.7666
32.7562
30.2041
28.0473
26.2508
24.7654
23.5159
22.457
21.5942
20.9374
20.4643
20.1313
19.8919
19.7107
19.5663
19.4458
19.3414
19.2484
19.1638
19.0867
19.015
18.9451
18.8734
18.7996
18.7293
18.6723
18.6348
1.90455
4.19685
4.82211
4.9432
4.8298
4.67817
4.62918
4.73654
5.18993
7.34581
15.3551
31.8556
54.0688
77.6654
99.9169
123.033
145.779
178.274
243.117
284.03
259.307
208.891
165.337
130.148
104.826
87.4688
75.0954
65.7692
58.4545
52.5293
47.5983
43.4211
39.8556
36.8127
34.2261
32.0406
30.2145
28.7142
27.4928
26.4906
25.6697
25.0247
24.5542
24.235
24.0265
23.8854
23.7813
23.7001
23.6336
23.5759
23.523
23.4721
23.4226
23.3729
23.3193
23.2579
23.189
23.1202
23.0649
23.0328
2.22947
4.9442
5.70829
5.88477
5.7521
5.57032
5.55918
5.84852
6.8068
10.3395
21.182
42.5467
74.082
113.881
159.779
210.362
248.673
288.887
369.132
305.202
224.055
171.341
133.87
106.72
87.8303
74.9947
65.903
59.0665
53.6774
49.2673
45.5571
42.3934
39.6929
37.4022
35.4699
33.8583
32.5438
31.4927
30.6585
29.9932
29.4684
29.0809
28.8281
28.6864
28.6162
28.5776
28.5459
28.5185
28.4952
28.4738
28.453
28.4305
28.4059
28.377
28.3391
28.2877
28.2238
28.1574
28.1056
28.0814
2.44861
5.70452
6.62847
6.89249
6.77161
6.56704
6.60561
7.14798
8.8168
14.1438
28.4572
56.4578
102.107
169.979
265.301
385.584
461.474
523.816
463.416
285.779
195.557
143.32
110.176
88.3046
73.9891
64.6289
58.1484
53.3133
49.5187
46.5081
44.0565
42.0399
40.3739
39.0121
37.8576
36.8975
36.1712
35.6192
35.1862
34.8399
34.5779
34.4181
34.3615
34.3771
34.4193
34.448
34.448
34.4333
34.4112
34.387
34.3648
34.3448
34.3266
34.3049
34.271
34.2187
34.151
34.0818
34.0331
34.0176
2.7234
6.49386
7.60266
7.9719
7.89756
7.69695
7.80382
8.69008
11.3049
18.7959
37.3819
74.9184
142.345
256.76
446.084
544.036
704.502
709.771
387.854
237.829
160.451
116.555
90.0032
73.6479
63.6456
57.3709
52.9882
49.65
47.0706
45.0517
43.5538
42.4338
41.6506
41.205
41.174
41.3394
41.4271
41.4187
41.3432
41.2398
41.1614
41.1588
41.2436
41.3632
41.4541
41.4673
41.3983
41.3015
41.1982
41.1087
41.048
41.0144
41.0012
40.9898
40.9641
40.9138
40.8443
40.7749
40.7401
40.7494
3.16377
7.30678
8.63896
9.13945
9.14138
8.98488
9.19576
10.5457
14.397
24.4831
48.5878
100.611
202.979
384.704
552.746
726.157
666.225
433.528
272.126
177.019
123.001
91.6437
73.3143
62.9328
57.0873
53.3581
50.0895
47.3571
45.329
43.8382
42.9153
42.2983
41.9676
41.9543
42.2026
42.5792
43.0668
43.5098
43.8135
44.0109
44.169
44.3415
44.54
44.7231
44.8425
44.8719
44.8375
44.7937
44.7516
44.7289
44.7344
44.7649
44.8128
44.8605
44.8863
44.88
44.8538
44.8354
44.8558
44.9033
3.37726
8.15396
9.7371
10.4083
10.5212
10.4513
10.8238
12.7519
18.143
31.3537
62.9424
138.326
301.997
587.345
698.8
711.438
430.773
276.552
182.485
125.219
91.3709
71.9391
61.5287
56.731
53.6818
50.5261
47.6592
45.3161
43.5601
42.3304
41.7151
41.4501
41.4243
41.6239
41.9354
42.2316
42.6452
43.1553
43.6327
44.0337
44.3703
44.6675
44.9364
45.162
45.3273
45.4323
45.5083
45.5851
45.6648
45.755
45.8596
45.9776
46.1048
46.2259
46.3211
46.3851
46.4336
46.4928
46.58
46.6727
3.50357
9.02205
10.8993
11.7874
12.0514
12.1092
12.7114
15.3184
22.5008
39.2915
80.5369
192.419
461.353
746.675
907.922
495.682
291.216
183.892
123.699
88.964
69.382
59.2224
55.1967
52.9918
50.7519
47.9592
45.1673
42.8497
41.1684
40.0971
39.652
39.6217
39.8308
40.1932
40.5761
40.8663
41.1911
41.6291
42.1175
42.5867
43.0047
43.3693
43.6874
43.9604
44.1905
44.3889
44.5763
44.7639
44.9502
45.1387
45.3326
45.5335
45.7378
45.9325
46.1031
46.2484
46.3827
46.5237
46.678
46.8196
3.65677
9.88877
12.1272
13.2852
13.7442
13.9636
14.8632
18.2604
27.3968
48.0515
99.8041
257.202
688.952
1016.84
656.453
340.734
195.99
124.323
86.6392
66.5749
56.642
52.8896
51.8093
50.4984
48.4104
45.4504
42.374
39.8388
38.0713
37.0515
36.7072
36.8323
37.2175
37.7219
38.2067
38.5742
38.9059
39.302
39.7606
40.2335
40.6806
41.0862
41.4512
41.7813
42.0836
42.3677
42.6439
42.9148
43.1798
43.4427
43.7086
43.9799
44.2528
44.5162
44.7603
44.9854
45.2012
45.4183
45.6361
45.8276
3.89703
10.7975
13.4311
14.914
15.6183
16.027
17.2502
21.4596
32.6036
57.2025
117.091
303.738
733.393
892.906
424.821
222.388
130.763
86.7931
64.8586
54.4514
50.7651
50.6504
49.9489
48.395
45.8465
42.5096
39.1044
36.3083
34.3918
33.3479
33.0485
33.2662
33.7696
34.3873
34.9801
35.4625
35.8742
36.2972
36.7594
37.2411
37.7139
38.1615
38.581
38.9753
39.3486
39.705
40.0478
40.3787
40.701
41.0213
41.3459
41.6769
42.0097
42.3354
42.6465
42.9429
43.2298
43.5123
43.7874
44.0268
4.32848
11.7396
14.8158
16.6923
17.7013
18.3326
19.8466
24.8053
37.785
66.2262
131.126
317.984
676.24
541.081
262.628
144.308
90.8233
65.2199
53.2889
48.9476
49.0604
49.0303
47.8371
45.6914
42.6306
38.9519
35.3034
32.3149
30.2758
29.1884
28.8954
29.1526
29.7191
30.4119
31.0969
31.6967
32.2212
32.7246
33.2396
33.7658
34.2882
34.7945
35.2794
35.7414
36.1805
36.597
36.993
37.3727
37.7432
38.1135
38.4899
38.8733
39.259
39.6395
40.0087
40.3653
40.7114
41.0494
41.3748
41.6572
4.75641
12.7084
16.2801
18.6485
20.0426
20.9395
22.7297
28.2933
42.7167
74.3814
145.537
318.015
724.528
329.307
168.852
100.69
68.7431
53.6555
47.859
47.4188
48.1717
47.5124
45.4373
42.4504
38.8079
34.8233
31.0304
27.9574
25.8677
24.7574
24.4548
24.7134
25.298
26.029
26.7814
27.4835
28.126
28.7371
29.3415
29.9452
30.5416
31.1218
31.6791
32.2093
32.7102
33.1817
33.6274
34.0544
34.4727
34.8915
35.3163
35.7472
36.1796
36.607
37.0244
37.43
37.8245
38.2088
38.5779
38.8986
5.04362
13.7358
17.8397
20.8273
22.7237
23.9521
26.0604
32.1133
47.5864
81.2278
160.944
404.38
460.488
216.682
120.932
77.5079
56.5399
47.7156
46.0443
47.4384
47.1473
45.3768
42.3951
38.6508
34.4955
30.2753
26.4308
23.3757
21.3155
20.2224
19.9154
20.1576
20.7321
21.4739
22.2696
23.0526
23.8014
24.5232
25.2302
25.9264
26.6075
27.2662
27.896
28.4918
29.0517
29.5772
30.0738
30.5508
31.0184
31.4853
31.9556
32.4291
32.9016
33.368
33.8243
34.2688
34.7022
35.1253
35.5325
35.8868
5.05672
14.8336
19.5683
23.2921
25.8579
27.5366
30.1068
36.7469
53.3133
88.4723
164.442
367.353
304.01
159.42
95.4164
63.9965
49.4539
45.1011
46.3695
47.1702
45.5457
42.5219
38.6694
34.3303
29.8207
25.4795
21.6786
18.7326
16.7774
15.7489
15.4585
15.6864
16.2405
16.9766
17.7951
18.6345
19.4655
20.2805
21.0797
21.8614
22.6204
23.35
24.0441
24.6989
25.3136
25.8914
26.4393
26.9666
27.4827
27.9947
28.506
29.0161
29.5218
30.0194
30.5061
30.9813
31.4462
31.9021
32.3427
32.727
5.36319
16.1005
21.6355
26.1266
29.5779
31.9092
35.2568
42.905
61.1798
99.925
179.25
344.353
229.218
129.265
79.7648
55.1243
45.388
44.7386
47.0488
46.1042
43.0923
38.9847
34.4077
29.6446
24.9456
20.6117
16.954
14.2025
12.422
11.5077
11.2652
11.4936
12.0281
12.7478
13.5684
14.4343
15.3129
16.1879
17.0499
17.8922
18.7076
19.4895
20.2328
20.9348
21.596
22.2203
22.8148
23.3876
23.9466
24.4973
25.0424
25.5817
26.1132
26.6346
27.1448
27.6442
28.1353
28.6198
29.0906
29.5017
6.50036
18.4546
24.474
29.5441
33.7941
37.2805
41.9555
51.4022
72.6029
117.51
208.11
373.504
194.737
110.466
68.4774
48.8936
43.422
45.8568
46.9055
44.1806
39.8561
34.8932
29.7961
24.7816
20.0468
15.8484
12.4367
9.96447
8.42598
7.67535
7.51249
7.75641
8.27097
8.95976
9.75537
10.6108
11.4943
12.3853
13.2696
14.1367
14.978
15.7866
16.5581
17.2902
17.9842
18.6435
19.2738
19.8819
20.4736
21.0533
21.6231
22.1834
22.7333
23.2722
23.8003
24.3194
24.8331
25.3435
25.8424
26.2775
8.98767
22.7387
28.8049
33.7115
38.5632
43.8528
50.6316
63.091
89.1233
143.106
258.07
316.618
168.097
95.5501
59.3363
44.5252
43.0978
47.1247
45.7681
41.3994
36.0125
30.4355
25.0223
19.9237
15.2996
11.3645
8.30727
6.20398
4.97581
4.4318
4.36762
4.6266
5.10575
5.73633
6.4702
7.27106
8.11144
8.97053
9.8323
10.6844
11.517
12.323
13.0977
13.8391
14.5474
15.225
15.8761
16.505
17.1162
17.713
18.2973
18.8701
19.4318
19.9828
20.5248
21.0608
21.595
22.1296
22.6542
23.11
12.7387
29.65
35.3008
39.0803
44.34
51.9561
61.6672
78.7087
112.529
178.943
314.569
275.006
145.932
82.1013
51.6276
41.6904
44.219
47.1487
43.6544
37.9306
31.7671
25.8008
20.2592
15.2375
10.8694
7.33117
4.75359
3.12392
2.27708
1.96412
1.98694
2.2297
2.63325
3.16091
3.78509
4.48147
5.22876
6.00764
6.80238
7.59949
8.38851
9.16147
9.91296
10.6399
11.3412
12.0175
12.671
13.3043
13.9203
14.5216
15.1103
15.6876
16.2551
16.8141
17.3672
17.918
18.4709
19.0276
19.5748
20.0467
17.7877
39.1885
44.4249
46.6087
51.6193
61.9452
75.1831
98.6159
144.77
232.632
414.009
237.862
124.802
69.5809
45.2466
40.2396
45.8823
46.1615
40.7598
33.9942
27.3085
21.1584
15.6615
10.8751
6.91303
3.94736
2.01484
0.982712
0.567135
0.467663
0.523811
0.687729
0.951296
1.31234
1.7657
2.29943
2.90064
3.55058
4.2344
4.93721
5.6479
6.35704
7.05769
7.74519
8.41663
9.07063
9.70737
10.3279
10.934
11.5276
12.1108
12.6853
13.2532
13.8165
14.378
14.9414
15.5106
16.0855
16.6497
17.1307
22.6269
50.4534
55.2567
56.3969
60.4586
73.9135
90.693
122.151
187.027
313.07
415.139
200.846
103.767
58.0506
40.2469
40.0877
46.8714
44.0392
37.2346
29.7589
22.7975
16.6531
11.3643
6.98603
3.67015
1.47947
0.376977
0.0655889
0.0235318
0.0222028
0.0347987
0.0694322
0.145554
0.286139
0.508113
0.817068
1.20892
1.67245
2.19435
2.75921
3.35495
3.96749
4.58823
5.21022
5.82798
6.43822
7.03896
7.62979
8.21148
8.7855
9.3537
9.91801
10.4805
11.0436
11.6096
12.1816
12.7618
13.348
13.9197
14.3999
17.6637
50.9851
61.6215
66.3243
71.452
84.2033
109.104
147.273
235.903
393.814
324.372
159.536
83.4448
47.9366
36.6888
41.2277
46.1541
41.1399
33.2694
25.3876
18.3759
12.4109
7.52458
3.82533
1.35554
0.188771
0.00826928
0.00517665
0.00497761
0.00492417
0.00500744
0.00551057
0.00769834
0.0165833
0.0461817
0.120664
0.263874
0.487649
0.790834
1.1641
1.59439
2.06889
2.57466
3.10251
3.6409
4.18503
4.7301
5.27427
5.81703
6.35916
6.90198
7.44722
7.99665
8.55206
9.11527
9.68784
10.2699
10.8557
11.4212
11.8877
14.7389
48.5983
66.6556
76.047
84.3505
97.4499
124.931
169.485
257.972
395.741
231.26
121.769
65.3772
39.6355
34.6068
43.2529
44.3132
37.5289
29.033
21.0264
14.1621
8.58037
4.37963
1.54174
0.182557
0.00595327
0.00490718
0.0047798
0.00468489
0.00461862
0.00457883
0.0045606
0.00456894
0.00466459
0.00509117
0.00703065
0.0156716
0.0458192
0.121459
0.26352
0.479953
0.766815
1.11337
1.50682
1.93432
2.38579
2.85341
3.33265
3.82039
4.31617
4.82056
5.33428
5.85852
6.39418
6.94199
7.5018
8.07102
8.6403
9.18172
9.61885
14.2071
45.0111
67.1324
85.3775
96.8605
108.528
134.99
183.288
273.81
302.458
167.028
91.1831
50.4017
33.3579
34.0285
43.9791
41.5856
33.5431
24.7189
16.8072
10.2816
5.38342
2.02639
0.294561
0.0064646
0.00485489
0.00470994
0.00460456
0.0045252
0.00446931
0.00443072
0.00440363
0.00439052
0.00439597
0.00441912
0.00447042
0.00461587
0.00513708
0.00746013
0.0177074
0.0523831
0.135968
0.286699
0.507291
0.788418
1.11671
1.48031
1.87073
2.28303
2.71382
3.16271
3.62759
4.10931
4.60725
5.12126
5.64926
6.1862
6.71871
7.21526
7.60502
14.1941
43.6028
63.9429
89.0431
103.595
118.155
146.136
194.015
269.496
208.173
120.468
67.47
38.5963
29.1514
34.9713
43.0035
37.9974
29.289
20.4616
12.8294
6.95743
2.8815
0.57805
0.0124424
0.00485776
0.00469524
0.00457069
0.00447567
0.00440284
0.00434887
0.00431221
0.00429091
0.0042838
0.0042868
0.00429687
0.00431788
0.00435347
0.00441003
0.00451883
0.00481232
0.00591901
0.0109378
0.0312827
0.0904025
0.209885
0.393481
0.631866
0.913721
1.23052
1.57657
1.94849
2.34399
2.76193
3.20049
3.6589
4.1324
4.61428
5.08741
5.51635
5.83556
14.0839
43.4786
61.1116
87.0586
104.133
122.26
153.954
201.156
225.081
147.136
87.3213
49.2241
29.8138
26.9934
37.3643
40.6757
34.0015
24.9714
16.3697
9.27539
4.23597
1.1496
0.055527
0.0049133
0.00468705
0.00456419
0.0044595
0.0043758
0.0043099
0.00426038
0.00422714
0.0042081
0.00420052
0.00420119
0.00420975
0.00422663
0.00425208
0.00428844
0.00434121
0.0044222
0.00457529
0.00498694
0.00651091
0.0130031
0.0373022
0.101588
0.219977
0.390616
0.605464
0.857337
1.14108
1.45299
1.79049
2.1512
2.53233
2.92906
3.33235
3.72193
4.05744
4.26543
13.2234
41.7341
59.5815
81.9779
99.7929
121.465
153.372
188.89
170.802
107.083
62.8251
35.3174
23.9335
26.7806
38.5992
37.6737
29.7456
20.7144
12.5193
6.25314
2.16226
0.248897
0.0055616
0.00469436
0.00456206
0.00444875
0.00436116
0.00428976
0.00423394
0.00419173
0.0041619
0.00414333
0.00413529
0.00413605
0.00414412
0.00415805
0.00417829
0.00420662
0.00424572
0.00430091
0.00438266
0.00452222
0.004841
0.00585914
0.00979872
0.0244812
0.066411
0.150289
0.278098
0.444759
0.644656
0.873293
1.12704
1.40261
1.69614
2.0016
2.30771
2.59131
2.8037
2.83565
12.0857
41.4148
60.586
77.2815
96.8533
120.578
148.111
174.863
125.305
77.3683
44.0574
25.187
20.7953
28.4005
38.105
33.7848
25.3741
16.6223
9.08055
3.78268
0.794868
0.0193303
0.00470069
0.00456265
0.00445322
0.0043575
0.00427819
0.0042166
0.00416963
0.00413407
0.00410798
0.00409124
0.00408369
0.00408434
0.00409179
0.00410457
0.00412264
0.00414631
0.00417744
0.00422002
0.0042788
0.00436411
0.00450529
0.00480342
0.00567172
0.0087964
0.0199399
0.0516869
0.116533
0.217076
0.349146
0.507451
0.687223
0.883905
1.09226
1.30454
1.50728
1.674
1.74973
1.60815
12.4864
40.6447
61.6823
76.3637
97.8921
123.01
149.53
144.537
92.3795
54.5673
29.7575
18.6357
20.0949
31.4079
35.94
29.6779
21.0512
12.763
6.13727
1.90476
0.151683
0.00495579
0.00456765
0.00445388
0.00435936
0.00427862
0.00421053
0.00415753
0.00411709
0.00408607
0.00406312
0.00404842
0.00404148
0.00404167
0.00404813
0.00406003
0.00407721
0.00409912
0.00412663
0.00416191
0.00420764
0.00427004
0.00436006
0.00450341
0.00478954
0.00555904
0.00813622
0.0168987
0.0414893
0.0921764
0.171371
0.274763
0.396157
0.529161
0.666565
0.798688
0.910031
0.972852
0.935195
0.701673
14.6554
41.078
60.3557
77.0223
101.524
130.03
153.299
109.797
66.512
36.5251
19.5389
15.3725
21.3673
33.7753
32.7661
25.307
16.8746
9.23442
3.71108
0.679076
0.0124788
0.00454819
0.0044461
0.00435588
0.0042766
0.00420887
0.00415285
0.00410801
0.0040735
0.00404651
0.00402634
0.0040135
0.00400722
0.00400685
0.00401192
0.00402217
0.00403772
0.00405842
0.00408453
0.00411654
0.00415578
0.00420577
0.004272
0.00436499
0.00450934
0.00477839
0.00543265
0.00743058
0.0138238
0.0314196
0.068176
0.12638
0.201639
0.286465
0.371966
0.447216
0.497075
0.498363
0.415905
0.214803
15.5459
42.7511
60.7773
79.3293
107.636
140.166
130.62
79.9764
44.5787
22.5337
13.3692
14.7856
24.238
33.1694
28.867
20.9634
12.9446
6.21332
1.85381
0.12225
0.00471826
0.00443561
0.00434479
0.0042695
0.00420423
0.00414806
0.00410113
0.0040635
0.00403475
0.00401228
0.00399549
0.0039847
0.00397931
0.00397896
0.00398322
0.0039917
0.00400478
0.00402297
0.0040467
0.0040764
0.00411259
0.00415642
0.00421058
0.00428045
0.00437622
0.00451849
0.00476131
0.00527877
0.0066581
0.0106633
0.0212317
0.0434542
0.0792243
0.124734
0.172046
0.210871
0.229044
0.212993
0.15234
0.0584646
16.1443
44.9221
62.0992
84.4547
117.212
140.794
94.0142
52.7604
26.314
13.1419
10.8384
16.1428
28.1014
30.9641
24.7336
16.7615
9.3175
3.7187
0.642346
0.0102739
0.00442794
0.00434032
0.00426364
0.00419789
0.00414259
0.00409565
0.00405624
0.00402454
0.00400002
0.00398116
0.00396741
0.00395889
0.00395511
0.0039557
0.00396016
0.00396789
0.00397919
0.00399465
0.00401483
0.00404064
0.00407295
0.00411244
0.00416004
0.00421831
0.00429208
0.00438929
0.00452581
0.00473787
0.00512156
0.00595725
0.0079979
0.0128096
0.0224241
0.0374158
0.0549267
0.0688262
0.0716845
0.0581901
0.0317682
0.0103058
14.5709
42.6378
60.9406
88.2005
123.105
107.79
59.7764
29.4649
13.4989
8.6289
10.9106
18.871
29.9114
27.5138
20.3538
12.7553
6.16254
1.81652
0.107063
0.00458421
0.00434656
0.00426512
0.00419818
0.00414039
0.00409182
0.00405125
0.0040177
0.00399081
0.00396982
0.0039538
0.00394234
0.00393567
0.00393325
0.00393475
0.0039398
0.00394781
0.00395877
0.00397289
0.00399033
0.004012
0.00403919
0.00407277
0.00411382
0.00416419
0.00422587
0.00430194
0.00439861
0.0045276
0.00471027
0.00498997
0.00546375
0.00634305
0.00795268
0.0105415
0.0137495
0.0161748
0.01599
0.0127864
0.00880111
0.00631531
11.9643
37.0496
55.8721
84.0612
106.938
61.4271
30.24
13.2705
7.26098
7.70736
12.5721
22.7184
28.6249
23.3406
16.0043
9.0344
3.58796
0.596166
0.00870357
0.00436363
0.00427551
0.00420092
0.00414024
0.00408948
0.00404713
0.00401185
0.00398284
0.00395995
0.0039426
0.00392979
0.00392092
0.003916
0.00391452
0.00391635
0.00392142
0.0039294
0.00394034
0.00395417
0.00397061
0.00399006
0.00401327
0.00404099
0.00407465
0.00411623
0.00416746
0.00422981
0.00430583
0.00440005
0.0045198
0.00467671
0.00488981
0.00518221
0.00558978
0.00613308
0.0067508
0.00725655
0.00740507
0.00707533
0.00633274
0.00535151
11.1033
31.8912
49.9439
77.1559
54.4461
26.9736
11.7016
6.06211
5.79275
8.64299
15.282
26.4719
25.2277
18.9707
11.9425
5.76034
1.66337
0.0873428
0.00449159
0.00429123
0.00420932
0.0041426
0.00408811
0.00404306
0.0040063
0.00397608
0.00395128
0.00393178
0.00391729
0.00390712
0.00390074
0.00389772
0.00389754
0.00390005
0.00390518
0.00391277
0.00392303
0.00393612
0.00395184
0.00397032
0.00399173
0.00401612
0.00404426
0.00407778
0.0041184
0.0041678
0.00422792
0.00430092
0.00438942
0.0044975
0.00463119
0.00480049
0.00501273
0.00526713
0.00555302
0.00583291
0.00603057
0.00603812
0.00573549
0.00508481
12.0471
30.0948
42.2311
48.4303
21.7868
9.25147
4.92967
4.58215
6.39367
10.5342
19.0106
25.1465
21.3068
14.8414
8.30288
3.17775
0.488763
0.00709734
0.00432546
0.00423224
0.004154
0.00409296
0.00404418
0.00400397
0.00397123
0.0039449
0.00392398
0.00390782
0.00389577
0.00388735
0.0038823
0.00388033
0.00388112
0.00388448
0.0038901
0.00389772
0.00390745
0.00391945
0.00393375
0.00395064
0.00397035
0.00399278
0.00401797
0.00404652
0.00407926
0.0041175
0.00416308
0.00421806
0.00428417
0.00436292
0.00445665
0.004568
0.0047004
0.00485849
0.00504004
0.00522786
0.00537766
0.0054056
0.00521133
0.00477668
19.0973
43.9523
29.5252
13.7763
6.42319
3.99684
3.83248
5.05528
7.85674
13.162
22.6955
22.326
17.2502
10.9869
5.14567
1.34615
0.0583235
0.0044317
0.0042708
0.00418552
0.0041132
0.00405579
0.0040103
0.0039736
0.00394402
0.0039203
0.0039017
0.00388772
0.00387773
0.00387114
0.00386745
0.00386629
0.00386747
0.00387094
0.0038766
0.00388425
0.00389383
0.00390526
0.00391844
0.00393351
0.00395074
0.00397041
0.00399268
0.00401775
0.00404573
0.00407685
0.00411189
0.00415222
0.00419954
0.00425538
0.00432081
0.00439705
0.00448576
0.00458719
0.00470076
0.0048212
0.00492848
0.00497363
0.00487746
0.00459624
8.97044
13.8199
7.056
4.35057
3.4672
3.44986
4.24701
6.24216
10.0064
16.6553
21.8484
18.7052
13.1628
7.48547
2.73045
0.348486
0.00598597
0.00430266
0.00421256
0.00413449
0.00407046
0.00401896
0.0039777
0.00394459
0.00391846
0.00389803
0.00388228
0.00387046
0.00386208
0.00385682
0.00385433
0.00385422
0.00385613
0.00385992
0.00386546
0.00387272
0.00388177
0.00389259
0.0039051
0.00391915
0.00393471
0.00395186
0.00397081
0.00399192
0.00401543
0.0040414
0.00406981
0.00410082
0.00413501
0.00417339
0.00421716
0.0042674
0.00432436
0.00438839
0.00445929
0.00453446
0.00460458
0.00464387
0.00460392
0.00444275
0.00448871
0.00538567
0.00646168
0.00787027
0.00978149
0.0124128
0.0160639
0.0211307
0.0281299
0.0377294
0.0508067
0.0686156
0.0931795
0.128191
0.181099
0.267686
0.420572
0.699519
1.19085
2.1155
0.00443782
0.00521719
0.00615467
0.00740126
0.00912658
0.0115549
0.0150074
0.0199269
0.0269201
0.0368113
0.0507255
0.0702875
0.0980924
0.138818
0.201954
0.308394
0.50414
0.876781
1.53627
2.78687
0.00438745
0.00504753
0.00584408
0.00691989
0.00843634
0.0106123
0.0137718
0.018378
0.0250916
0.0348516
0.0489869
0.0694443
0.0992927
0.143893
0.213762
0.331408
0.544382
0.934219
1.58262
2.36829
0.0043394
0.00488335
0.00554278
0.00644815
0.00774667
0.00964129
0.01244
0.0165954
0.0227731
0.0319537
0.0455712
0.0657583
0.0958351
0.141361
0.212578
0.329906
0.533365
0.885966
1.43323
2.08746
0.00429516
0.00473026
0.00526177
0.00600527
0.0070901
0.00869594
0.0111001
0.0147167
0.0201672
0.0283887
0.0407867
0.059482
0.0877508
0.130865
0.197854
0.305179
0.48241
0.77281
1.20686
1.75914
0.00425578
0.00459239
0.00500899
0.00560542
0.00649185
0.00782118
0.00983121
0.0128796
0.0175067
0.0245357
0.0352158
0.0514503
0.0761708
0.113961
0.172183
0.263057
0.406547
0.630291
0.957087
1.37899
0.00422194
0.00447234
0.00478914
0.00525696
0.00596773
0.00704769
0.00869277
0.011197
0.0150029
0.0207812
0.0295455
0.0428343
0.0630039
0.0936687
0.140369
0.2116
0.320046
0.482406
0.713787
1.01438
0.00419392
0.00437127
0.004604
0.00496296
0.00552435
0.00639071
0.00771883
0.00974147
0.0128046
0.017424
0.0243623
0.0347507
0.0502837
0.0735015
0.108163
0.159705
0.235678
0.345519
0.498159
0.696455
0.00417181
0.00428918
0.0044527
0.00472171
0.0051604
0.00585186
0.00691947
0.00854308
0.010985
0.0146272
0.0200165
0.0279318
0.0394858
0.056266
0.0805
0.115221
0.164382
0.232707
0.324778
0.442893
0.00415547
0.00422505
0.00433207
0.00452799
0.00486884
0.00542289
0.0062871
0.00759924
0.00955482
0.0124307
0.0166122
0.0226273
0.0311882
0.0432293
0.0599173
0.0826218
0.1129
0.15252
0.20327
0.266121
0.0041449
0.00417627
0.00423631
0.00437494
0.00464191
0.00509282
0.00580506
0.00688616
0.00848191
0.0107902
0.0140791
0.0187113
0.0251694
0.0340576
0.0459927
0.0613915
0.0803962
0.103147
0.130085
0.160859
0.00414477
0.00414013
0.00416269
0.00425918
0.00446899
0.00483536
0.00541648
0.00628784
0.00754153
0.00929243
0.0116903
0.0149363
0.0193249
0.0253111
0.0332619
0.043119
0.0552862
0.0723485
0.101242
0.154051
0.00878248
0.0045559
0.00491872
0.00530108
0.00573867
0.00631428
0.00719054
0.00865116
0.011142
0.0155369
0.0238831
0.0383815
0.0609908
0.095047
0.147427
0.225531
0.333493
0.473812
0.630463
0.831353
0.112185
0.0592427
0.0773772
0.0939372
0.113463
0.137784
0.168113
0.205288
0.250522
0.305144
0.369979
0.442861
0.481684
0.551899
0.720411
0.95416
1.25621
1.58752
1.72928
2.30808
0.0298307
0.0551577
0.0914675
0.141829
0.199592
0.265139
0.339748
0.423834
0.518445
0.62264
0.725492
0.799493
0.857987
0.950662
0.966098
0.970353
0.993486
1.01026
1.05043
1.32703
0.0124923
0.0121946
0.0108552
0.0155476
0.0233631
0.0337628
0.0472602
0.0641255
0.0845611
0.108522
0.135653
0.168159
0.227969
0.330358
0.375909
0.367413
0.325905
0.268922
0.223617
0.233426
0.00779714
0.00827753
0.00509111
0.00567429
0.00687616
0.00858635
0.0107823
0.0134125
0.0164196
0.019758
0.0235205
0.0285072
0.0378632
0.0540774
0.0665122
0.067439
0.0577267
0.0430196
0.0298498
0.0217977
0.00671479
0.0081368
0.00424438
0.00416313
0.00430054
0.00459177
0.00501048
0.00551424
0.00606061
0.00661335
0.00716042
0.00775124
0.00852444
0.00951663
0.010246
0.0101496
0.00921478
0.00795282
0.00689259
0.00624134
0.00652569
0.00851025
0.00420017
0.00391605
0.00386325
0.00389607
0.00397844
0.00408474
0.00420019
0.00431629
0.00443087
0.0045508
0.00469029
0.0048535
0.00501335
0.00513387
0.00519883
0.00522015
0.00522619
0.00523974
0.00671711
0.00853043
0.00429204
0.00391179
0.00382421
0.00381928
0.00384867
0.00389137
0.00394023
0.0039941
0.00405533
0.00412951
0.00422404
0.00434256
0.00447811
0.00461454
0.00473495
0.00483003
0.0049006
0.00495201
0.00722703
0.00801904
0.00435939
0.00396135
0.00387207
0.00386273
0.00388079
0.00390919
0.00394358
0.00398392
0.00403216
0.00409147
0.00416507
0.00425381
0.0043536
0.00445573
0.00455028
0.00463014
0.00469284
0.00473899
0.0078278
0.00716236
0.00437216
0.00401997
0.00394208
0.00393233
0.00394352
0.00396309
0.0039881
0.00401846
0.00405515
0.00409964
0.00415316
0.00421554
0.00428427
0.00435458
0.00442083
0.00447843
0.00452488
0.00455962
0.0100279
0.00619124
0.00433363
0.00407292
0.00401523
0.0040058
0.00401094
0.00402251
0.0040385
0.00405856
0.004083