/*--------------------------------*- C++ -*----------------------------------*\
| =========                 |                                                 |
| \\      /  F ield         | OpenFOAM: The Open Source CFD Toolbox           |
|  \\    /   O peration     | Version:  v1912                                 |
|   \\  /    A nd           | Website:  www.openfoam.com                      |
|    \\/     M anipulation  |                                                 |
\*---------------------------------------------------------------------------*/
FoamFile
{
    version     2.0;
    format      ascii;
    class       volScalarField;
    location    "40";
    object      nut;
}
// * * * * * * * * * * * * * * * * * * * * * * * * * * * * * * * * * * * * * //

dimensions      [0 2 -1 0 0 0 0];


internalField   nonuniform List<scalar> 
20320
(
0.0347186
0.00759848
0.0076669
0.00773339
0.00779752
0.00785889
0.007917
0.0079712
0.00802075
0.0080648
0.00810243
0.0081326
0.00815408
0.00816547
0.00816496
0.00814954
0.00811389
0.00804605
0.00791137
0.00756174
0.0352308
0.0352731
0.0354457
0.0356787
0.0359553
0.036242
0.0365007
0.0367081
0.0368623
0.0369738
0.0370552
0.0371193
0.0371689
0.0371963
0.0371762
0.0370344
0.0366378
0.0356665
0.0332226
0.0242618
0.0353539
0.0356365
0.0361375
0.0368829
0.0379738
0.039511
0.0415815
0.0442328
0.0474392
0.0510756
0.0549084
0.0586173
0.0618479
0.0642644
0.0655866
0.0655944
0.0640786
0.0606836
0.0541425
0.0357288
0.0355263
0.0361111
0.0369217
0.037961
0.0393304
0.0411438
0.043531
0.0466343
0.0505933
0.0555031
0.0613423
0.0678835
0.0746271
0.080817
0.0855516
0.0879497
0.0872744
0.0828407
0.072836
0.044652
0.0357341
0.0367048
0.0379027
0.039304
0.0410022
0.0431051
0.0457415
0.0490662
0.0532618
0.0585279
0.0650386
0.0728408
0.0816835
0.0908377
0.099041
0.104673
0.106111
0.101901
0.0892683
0.0517918
0.0359681
0.0373971
0.039051
0.040882
0.042973
0.0454221
0.0483513
0.0519126
0.0562953
0.0617293
0.068476
0.0767691
0.086651
0.0976805
0.108625
0.117403
0.121468
0.118269
0.103639
0.0575811
0.0362176
0.0381566
0.0403152
0.0426264
0.0451612
0.0480067
0.0512754
0.0551134
0.0597078
0.0652961
0.0721735
0.0806729
0.0910494
0.103182
0.11609
0.127547
0.134266
0.132478
0.116291
0.0623955
0.0364714
0.0389499
0.0416417
0.0444674
0.0474859
0.0507717
0.0544269
0.0585884
0.063438
0.0692122
0.0762192
0.0848419
0.0954721
0.108255
0.12253
0.136153
0.145326
0.145095
0.127651
0.0665341
0.036718
0.0397418
0.0429738
0.0463302
0.0498598
0.0536242
0.0577131
0.0622523
0.0674144
0.0734298
0.080609
0.0893605
0.100161
0.113358
0.128602
0.14395
0.155294
0.156605
0.138081
0.0702737
0.036946
0.0404965
0.0442529
0.0481377
0.0521921
0.0564665
0.061037
0.0660161
0.0715629
0.0778965
0.0853219
0.0942587
0.105237
0.118752
0.134731
0.151485
0.164742
0.167513
0.147989
0.0738571
0.0371447
0.041179
0.0454219
0.049813
0.0543915
0.0591985
0.064298
0.0697866
0.0758062
0.0825585
0.0903352
0.0995562
0.110784
0.124624
0.141237
0.159203
0.174189
0.178343
0.157845
0.0774693
0.0373048
0.0417578
0.0464278
0.0512836
0.0563689
0.0617206
0.0673925
0.0734656
0.0800613
0.0873576
0.0956252
0.105273
0.116881
0.131135
0.148396
0.167506
0.184128
0.189618
0.168124
0.0813523
0.0374191
0.0422065
0.0472255
0.0524854
0.0580425
0.0639364
0.0702163
0.0769498
0.084237
0.0922275
0.101163
0.111431
0.123616
0.138463
0.156503
0.176828
0.195128
0.20199
0.17945
0.0858332
0.037483
0.0425057
0.0477801
0.0533658
0.0593408
0.0657561
0.0726648
0.0801279
0.0882271
0.0970828
0.106901
0.118042
0.131078
0.146803
0.165895
0.187692
0.207922
0.216373
0.19275
0.0913637
0.0374946
0.0426438
0.0480692
0.0538876
0.0602069
0.0671001
0.0746357
0.0828799
0.0919053
0.101808
0.112759
0.125083
0.13934
0.156359
0.176965
0.200745
0.223472
0.234023
0.209338
0.098679
0.0374549
0.0426184
0.0480848
0.0540317
0.0606032
0.0679047
0.0760345
0.0850801
0.095122
0.106247
0.118599
0.132474
0.14842
0.167312
0.190141
0.216795
0.243133
0.256936
0.231524
0.109098
0.0373677
0.0424357
0.0478335
0.0537981
0.0605143
0.0681276
0.0767804
0.0866019
0.097705
0.110192
0.124206
0.140029
0.15822
0.179736
0.205804
0.236752
0.2687
0.288146
0.263244
0.12523
0.0372394
0.0421104
0.047336
0.0532075
0.05995
0.0677538
0.0768168
0.08733
0.0994678
0.113386
0.129262
0.147408
0.168437
0.193457
0.224079
0.261381
0.302259
0.332118
0.311685
0.153088
0.0370782
0.0416648
0.046626
0.0522994
0.0589464
0.0668013
0.0761223
0.0871777
0.100232
0.115537
0.133356
0.154088
0.178472
0.207871
0.244498
0.290715
0.345291
0.393852
0.387837
0.206259
0.0368939
0.0411264
0.0457474
0.0511295
0.057564
0.0653226
0.0747208
0.0861084
0.0998598
0.116359
0.136015
0.159377
0.187383
0.221762
0.265554
0.323011
0.3963
0.473839
0.498488
0.301916
0.0397368
0.0241989
0.0261841
0.0269183
0.0265612
0.0258637
0.0246094
0.0215984
0.0264207
0.0344102
0.046243
0.0642234
0.0732003
0.0834597
0.119014
0.156792
0.180084
0.187863
0.205401
0.226826
0.245626
0.268734
0.300097
0.277545
0.230496
0.193538
0.169316
0.152119
0.138979
0.128403
0.119635
0.112121
0.105435
0.0996274
0.0946638
0.0904243
0.0866288
0.0832323
0.0803706
0.0779456
0.0754902
0.0731784
0.0712807
0.0698909
0.0688828
0.06812
0.0674961
0.0669493
0.0664525
0.0659979
0.0655824
0.0652144
0.0648872
0.0645967
0.0643422
0.0641078
0.0638907
0.0636948
0.063529
0.0634006
0.0497625
0.391884
0.50582
0.530798
0.522812
0.490255
0.437986
0.311147
0.132741
0.150821
0.474367
0.896331
1.12002
0.845763
0.688185
0.973042
1.53055
2.30991
2.7863
3.19484
3.423
3.48054
3.60467
2.85091
2.37693
2.07051
1.84762
1.67309
1.52875
1.40579
1.29956
1.20626
1.12296
1.04929
0.988635
0.9378
0.89024
0.849698
0.821697
0.796959
0.768073
0.743062
0.733235
0.736317
0.747312
0.762273
0.77871
0.795499
0.812234
0.828782
0.845107
0.861222
0.877171
0.892855
0.907942
0.922076
0.935242
0.948035
0.961357
0.975592
0.0570944
0.602446
0.839022
0.918494
0.930346
0.898115
0.835035
0.709097
0.485442
0.45829
0.821715
1.39181
1.85622
1.95846
1.81394
1.809
2.09438
3.0102
3.98471
4.6532
5.02144
5.01298
4.39139
3.60963
3.21022
2.93269
2.70282
2.5024
2.32444
2.16523
2.02246
1.89397
1.77829
1.67546
1.58736
1.51259
1.44823
1.3961
1.35771
1.32747
1.30106
1.28356
1.28249
1.29852
1.32774
1.36513
1.40662
1.44968
1.49285
1.53531
1.57661
1.61659
1.65527
1.69256
1.7281
1.76152
1.79294
1.82326
1.85395
1.88564
0.0636502
0.758404
1.06679
1.18309
1.21451
1.19541
1.14098
1.04155
0.879651
0.815784
1.1191
1.7464
2.35364
2.74043
2.87977
2.95972
3.12574
3.68227
4.51582
5.2077
5.56908
5.27907
4.52768
3.93339
3.55401
3.29469
3.08642
2.90294
2.73605
2.58271
2.44167
2.31229
2.19475
2.09014
2.00031
1.92549
1.865
1.8199
1.7902
1.77197
1.76244
1.76472
1.78375
1.82022
1.87047
1.92908
1.99143
2.05461
2.11686
2.17704
2.23457
2.28927
2.34132
2.39081
2.43758
2.4814
2.52253
2.56214
2.60203
2.64295
0.0707693
0.885348
1.24522
1.385
1.42762
1.41769
1.36938
1.27923
1.14267
1.08011
1.40367
2.07674
2.77684
3.31972
3.63614
3.77878
3.88462
4.20032
4.80514
5.24866
5.22624
4.83845
4.35661
3.91551
3.59606
3.37766
3.21154
3.06882
2.93831
2.81591
2.70091
2.5943
2.498
2.41417
2.34504
2.29176
2.25459
2.234
2.22897
2.23593
2.25243
2.28019
2.32229
2.37867
2.44561
2.51785
2.5912
2.66357
2.73369
2.80067
2.86405
2.92378
2.98018
3.03359
3.08402
3.13135
3.17598
3.21913
3.26276
3.30762
0.0768947
0.991861
1.395
1.55378
1.60251
1.59547
1.54579
1.44927
1.31707
1.29839
1.68562
2.40331
3.1838
3.87045
4.3664
4.59698
4.62594
4.73839
5.1779
4.99362
4.60784
4.2786
3.94836
3.65501
3.44401
3.30891
3.21289
3.1305
3.05216
2.97581
2.90317
2.83706
2.78065
2.73651
2.70608
2.69036
2.68952
2.70277
2.72794
2.76167
2.80204
2.85027
2.90829
2.97551
3.04868
3.12361
3.19727
3.2689
3.33797
3.40386
3.46632
3.52531
3.58127
3.63455
3.68522
3.73325
3.77902
3.8238
3.8695
3.91668
0.0809689
1.0852
1.52849
1.70383
1.75781
1.74933
1.69171
1.58102
1.45684
1.50569
1.95706
2.71662
3.59384
4.484
5.29091
5.78269
5.75119
5.64892
5.39016
4.60003
4.13111
3.79723
3.53961
3.36125
3.26878
3.23513
3.21906
3.19997
3.17593
3.15003
3.12664
3.10971
3.10195
3.1062
3.12164
3.14677
3.18143
3.22353
3.27096
3.32187
3.37591
3.43457
3.49915
3.56875
3.64087
3.7126
3.78218
3.84981
3.91523
3.97795
4.03787
4.09505
4.14993
4.2028
4.25366
4.30246
4.34966
4.39654
4.44501
4.49508
0.0858118
1.1744
1.6539
1.84377
1.9032
1.89148
1.82132
1.69342
1.58676
1.70324
2.1988
3.0019
4.02077
5.21948
6.55161
6.83705
6.76596
6.34619
5.00352
4.23048
3.75196
3.43705
3.25031
3.18548
3.21239
3.27154
3.31558
3.34006
3.35565
3.36477
3.37966
3.40142
3.43337
3.47959
3.5419
3.60784
3.67042
3.7322
3.79338
3.85425
3.916
3.98047
4.04876
4.11963
4.19093
4.26046
4.32728
4.39257
4.4559
4.51695
4.57594
4.63299
4.68864
4.74294
4.79574
4.84685
4.89688
4.94728
5.00019
5.05472
0.0929221
1.2563
1.77482
1.97973
2.04397
2.02799
1.94137
1.79467
1.71089
1.88033
2.39621
3.25551
4.47778
6.07255
7.25836
7.56531
6.89741
5.54457
4.52868
3.84914
3.41913
3.1805
3.11407
3.18824
3.32131
3.43265
3.49261
3.52585
3.55404
3.5815
3.61878
3.66364
3.71921
3.7886
3.86915
3.95129
4.03201
4.10901
4.18184
4.25169
4.3205
4.39009
4.46155
4.53406
4.60611
4.67622
4.74436
4.81167
4.8773
4.94089
5.00255
5.06253
5.12131
5.17908
5.23551
5.29045
5.34473
5.40012
5.45858
5.51758
0.0964503
1.32997
1.89262
2.11457
2.18399
2.16199
2.05506
1.8932
1.8366
2.03988
2.55738
3.5049
5.02024
6.97323
7.52361
7.25073
5.82105
4.75857
3.96428
3.43025
3.13395
3.054
3.15847
3.36099
3.53538
3.63196
3.67659
3.70162
3.72715
3.76016
3.8097
3.8705
3.9413
4.02239
4.10883
4.19346
4.2783
4.36202
4.44211
4.51876
4.59316
4.66676
4.74072
4.81501
4.88895
4.96191
5.03413
5.10593
5.17622
5.24446
5.31051
5.37476
5.43791
5.50013
5.56103
5.62058
5.67997
5.74101
5.80499
5.86771
0.0987297
1.40863
2.00932
2.24958
2.32471
2.29662
2.16842
1.99616
1.97088
2.19562
2.70386
3.78409
5.72179
7.36563
7.50958
5.91127
4.73175
3.91468
3.36555
3.05813
2.9841
3.11401
3.3667
3.59185
3.74023
3.80169
3.81566
3.82024
3.8363
3.87013
3.92608
3.99791
4.07985
4.16838
4.25774
4.34282
4.42713
4.51241
4.59629
4.67767
4.75678
4.83449
4.91184
4.98931
5.06688
5.14442
5.22201
5.29929
5.37503
5.44845
5.51963
5.58906
5.65735
5.72465
5.79069
5.85569
5.92073
5.98756
6.05668
6.12249
0.101384
1.48713
2.12601
2.38487
2.46581
2.43284
2.28719
2.10906
2.11642
2.36486
2.8622
4.088
6.54423
7.72952
6.23332
4.73083
3.79976
3.2361
2.9464
2.89743
3.05855
3.34499
3.61758
3.803
3.8966
3.90843
3.88229
3.85979
3.86222
3.8939
3.95334
4.03253
4.1227
4.2173
4.31019
4.39757
4.48268
4.56894
4.65575
4.74157
4.82574
4.90862
4.99105
5.07369
5.15682
5.24044
5.32427
5.4075
5.48902
5.56824
5.64524
5.72048
5.79446
5.8673
5.93897
6.00987
6.08101
6.15357
6.22744
6.29582
0.105095
1.56197
2.24234
2.51993
2.60607
2.56946
2.41376
2.23575
2.27518
2.5679
3.08856
4.38334
6.58562
6.92583
4.96213
3.81019
3.17026
2.86788
2.82525
2.99963
3.31101
3.62439
3.83015
3.9436
3.97099
3.93109
3.86502
3.8142
3.80053
3.82682
3.88696
3.97043
4.06653
4.16689
4.26509
4.35789
4.44752
4.53749
4.62858
4.71984
4.8104
4.90018
4.98969
5.07948
5.16984
5.26067
5.35146
5.44128
5.52918
5.61471
5.69797
5.7794
5.85941
5.93815
6.01576
6.09275
6.17001
6.24829
6.32669
6.39727
0.11128
1.6307
2.35777
2.65428
2.74407
2.70435
2.54676
2.37652
2.44588
2.79622
3.3841
4.60684
6.42744
5.49635
4.05731
3.27359
2.89696
2.80549
2.95165
3.25588
3.59243
3.82456
3.94889
3.9893
3.95484
3.86666
3.76347
3.68515
3.65382
3.67148
3.72919
3.81434
3.91488
4.02131
4.12693
4.22837
4.32655
4.42416
4.5225
4.62134
4.72009
4.81852
4.91687
5.01546
5.11437
5.21333
5.31167
5.40852
5.50311
5.5952
5.68497
5.77279
5.85902
5.94388
6.0276
6.11073
6.19399
6.27775
6.36049
6.43309
0.117287
1.69177
2.47153
2.78826
2.87941
2.83498
2.68137
2.52697
2.62393
3.01898
3.68343
4.81863
6.26979
4.609
3.6081
3.08814
2.86768
2.91689
3.18132
3.51978
3.78488
3.93146
3.97624
3.94515
3.85247
3.71951
3.58202
3.47743
3.42741
3.43375
3.48635
3.57139
3.67579
3.78913
3.90416
4.01691
4.12699
4.23586
4.34469
4.45373
4.56273
4.67152
4.78012
4.88859
4.99679
5.10428
5.21039
5.31438
5.41578
5.51452
5.61086
5.70515
5.79772
5.88882
5.97875
6.06802
6.15718
6.24628
6.3332
6.40768
0.121433
1.75474
2.5836
2.92407
3.01438
2.96047
2.81221
2.67925
2.80124
3.23202
3.88327
5.28455
5.63024
4.16748
3.43869
3.02675
2.903
3.07301
3.40351
3.7133
3.88504
3.94829
3.92001
3.82234
3.67386
3.49767
3.32712
3.19679
3.12737
3.12083
3.16694
3.25125
3.35972
3.48096
3.60689
3.73275
3.8569
3.9796
4.10156
4.2231
4.34415
4.4646
4.58433
4.7032
4.8209
4.93695
5.05077
5.16189
5.27012
5.37555
5.4785
5.57934
5.67835
5.77581
5.87204
5.96749
6.06257
6.15706
6.24819
6.32452
0.122328
1.81823
2.69534
3.06653
3.155
3.08475
2.93841
2.82802
2.9669
3.44246
4.20428
5.40021
4.89841
3.94422
3.30271
2.94482
2.94353
3.23304
3.58813
3.81962
3.90478
3.88642
3.78831
3.62903
3.42785
3.20931
3.00567
2.84933
2.76016
2.74054
2.78036
2.86443
2.9776
3.10742
3.24497
3.38469
3.52386
3.66173
3.79836
3.93381
4.06803
4.20085
4.33205
4.46136
4.58846
4.71292
4.83439
4.95266
5.06778
5.18
5.2897
5.39721
5.50283
5.60685
5.70958
5.81144
5.91268
6.0128
6.10837
6.18668
0.126697
1.86552
2.81056
3.22229
3.31055
3.21768
3.07005
2.98192
3.13124
3.6062
4.37497
5.53437
4.70272
3.74035
3.1179
2.85865
3.01624
3.3941
3.71851
3.85109
3.85163
3.75641
3.59109
3.37336
3.12185
2.86153
2.62426
2.44138
2.33276
2.30122
2.33618
2.4211
2.53947
2.67792
2.82691
2.98019
3.13424
3.28743
3.43908
3.58887
3.73654
3.88177
4.02431
4.16387
4.30017
4.43297
4.56213
4.6877
4.80994
4.9292
5.04589
5.16038
5.27295
5.3839
5.49355
5.60225
5.71017
5.81644
5.91684
5.99736
0.140254
1.97737
2.95756
3.40285
3.4874
3.37432
3.22705
3.16311
3.33057
3.8094
4.6314
5.59424
4.37288
3.48918
2.93603
2.82277
3.13313
3.54686
3.78091
3.81752
3.73418
3.56612
3.33677
3.06295
2.76263
2.46084
2.18945
1.98002
1.85327
1.81211
1.84424
1.9309
2.05433
2.20063
2.35992
2.52557
2.6934
2.861
3.027
3.19059
3.35119
3.50839
3.66188
3.8114
3.95679
4.09799
4.23506
4.36828
4.49803
4.62477
4.74893
4.87091
4.991
5.10951
5.22677
5.34307
5.45841
5.57153
5.67728
5.76026
0.165789
2.21269
3.18477
3.62336
3.69598
3.5722
3.43181
3.39595
3.59999
4.09084
4.88892
5.32875
4.11237
3.26665
2.80157
2.85619
3.27209
3.66138
3.77977
3.72283
3.55974
3.32283
3.03259
2.70468
2.35671
2.01394
1.70882
1.47434
1.3328
1.28566
1.31695
1.40532
1.53244
1.68454
1.85189
2.02761
2.20704
2.38711
2.56579
2.74179
2.91424
3.08259
3.24647
3.40568
3.56016
3.70998
3.85539
3.99678
4.13465
4.26951
4.40185
4.53208
4.66054
4.78754
4.91339
5.0383
5.16203
5.28278
5.39435
5.47996
0.198657
2.59875
3.51169
3.89496
3.95279
3.82759
3.70354
3.69702
3.94949
4.49821
5.42244
5.00903
3.86655
3.07235
2.72402
2.9435
3.40736
3.70595
3.71665
3.57261
3.33538
3.03344
2.68504
2.30489
1.91065
1.52831
1.19249
0.939015
0.7916
0.745395
0.777592
0.86524
0.991669
1.1447
1.31525
1.49656
1.68358
1.87259
2.06106
2.24718
2.42978
2.6081
2.78169
2.95034
3.11398
3.27279
3.42709
3.57734
3.7241
3.86794
4.0094
4.14892
4.28687
4.42357
4.55923
4.69392
4.82703
4.95609
5.07372
5.16191
0.236382
3.00692
3.91293
4.22869
4.26726
4.14777
4.05231
4.0759
4.38496
4.97519
5.83151
4.74692
3.63433
2.90677
2.70405
3.05138
3.51298
3.68884
3.59943
3.37508
3.06822
2.7044
2.30024
1.86992
1.43152
1.01501
0.660483
0.411677
0.287099
0.258613
0.290904
0.366462
0.477015
0.61591
0.776627
0.952688
1.13882
1.33011
1.52327
1.71564
1.90568
2.09218
2.27444
2.45208
2.62494
2.79311
2.95689
3.11678
3.27335
3.4272
3.57893
3.729
3.87778
4.02551
4.17228
4.31784
4.46109
4.59869
4.72214
4.81249
0.267953
3.38817
4.35112
4.60584
4.63013
4.54196
4.4746
4.53683
4.90966
5.64201
6.06013
4.46141
3.41402
2.77689
2.73233
3.14633
3.5647
3.61087
3.43441
3.13655
2.76428
2.34147
1.8839
1.40661
0.934008
0.503879
0.184478
0.0482184
0.0242095
0.0239335
0.0331663
0.0576301
0.106999
0.188575
0.303068
0.445535
0.609007
0.78662
0.972998
1.16366
1.35598
1.5472
1.73608
1.92169
2.10342
2.28114
2.45495
2.62524
2.79258
2.95759
3.12083
3.28275
3.44365
3.60363
3.76249
3.91954
4.07299
4.21859
4.34681
4.43835
0.238511
3.4485
4.64938
4.96287
4.99395
4.92838
4.95902
5.07881
5.54018
6.36724
5.61444
4.2052
3.22398
2.68469
2.78095
3.21791
3.54183
3.4846
3.22846
2.86292
2.42915
1.95023
1.44355
0.932903
0.452372
0.0980204
0.0143579
0.0346974
0.0383722
0.0364694
0.0311496
0.0224469
0.0161881
0.0203089
0.042857
0.0955706
0.18537
0.309527
0.460124
0.628863
0.80907
0.995927
1.18584
1.37654
1.56562
1.75241
1.93636
2.11761
2.29653
2.47364
2.64938
2.82409
2.99788
3.17056
3.34155
3.5096
3.67211
3.82389
3.95471
4.04581
0.21831
3.30865
4.81666
5.27561
5.37594
5.34288
5.42014
5.64171
6.17922
6.79998
5.30623
3.98125
3.04225
2.61652
2.81436
3.27795
3.46465
3.31464
2.98805
2.55978
2.06802
1.53768
0.9972
0.479857
0.0896793
0.0181403
0.0418102
0.0423432
0.0419778
0.0416646
0.0413675
0.0408528
0.0394323
0.0352402
0.025875
0.0172893
0.0208835
0.0455395
0.103165
0.19951
0.33046
0.487436
0.661966
0.847191
1.03788
1.23064
1.42334
1.61515
1.80558
1.99479
2.18298
2.37013
2.55607
2.74023
2.92158
3.09823
3.26682
3.4213
3.55117
3.63918
0.215221
3.12946
4.84066
5.55107
5.75927
5.775
5.91338
6.22061
6.79577
6.59559
4.96952
3.72492
2.83816
2.55305
2.82034
3.28093
3.34362
3.11101
2.71942
2.23246
1.68671
1.12018
0.569184
0.127054
0.0140195
0.0416349
0.0418959
0.0414398
0.0411002
0.0408781
0.0407448
0.0406682
0.0406456
0.0406479
0.0404826
0.0395106
0.0357983
0.0266988
0.0188571
0.0252412
0.0571247
0.128009
0.242269
0.392509
0.566887
0.755035
0.949998
1.14783
1.3466
1.54518
1.74323
1.93977
2.1344
2.32599
2.51316
2.69343
2.86279
3.0145
3.13797
3.21835
0.216696
3.10869
4.78311
5.71248
6.05301
6.15511
6.39459
6.77557
7.15748
6.06276
4.59559
3.39307
2.6019
2.47948
2.82154
3.2303
3.17992
2.87782
2.42748
1.88546
1.29868
0.715251
0.212132
0.0112692
0.040024
0.0416254
0.0410719
0.0406436
0.0403262
0.0401065
0.0399784
0.0399319
0.0399613
0.0400466
0.0401681
0.0403267
0.040471
0.0403628
0.0391399
0.0343951
0.0255115
0.0242041
0.0463853
0.110148
0.22457
0.379779
0.559631
0.752119
0.950405
1.15077
1.3511
1.54989
1.74587
1.93747
2.12294
2.29913
2.46157
2.60276
2.71146
2.77462
0.217226
3.11897
4.74162
5.76306
6.22066
6.42769
6.754
7.1256
6.95309
5.51085
4.11572
2.97346
2.35256
2.39956
2.85669
3.12894
2.98787
2.62106
2.11631
1.52686
0.91636
0.354359
0.0294395
0.0328167
0.0413691
0.0408628
0.0403811
0.0400013
0.0397111
0.0395061
0.0393871
0.0393441
0.0393649
0.039434
0.0395492
0.039712
0.0399204
0.0401716
0.0404306
0.0404945
0.0395632
0.0355567
0.0290806
0.0331633
0.0676737
0.151907
0.285627
0.451857
0.634909
0.825325
1.01779
1.20901
1.39669
1.57873
1.75271
1.9153
2.06128
2.18189
2.26311
2.28598
0.211492
3.13876
4.79664
5.75856
6.27434
6.58664
6.90372
7.04579
6.30923
4.83961
3.5106
2.49768
2.12734
2.34435
2.87055
2.99795
2.76971
2.34426
1.78885
1.16716
0.557378
0.100296
0.0153747
0.0409074
0.0406943
0.0401684
0.0397629
0.0394384
0.0391928
0.0390185
0.0389101
0.0388627
0.0388739
0.0389356
0.0390405
0.0391818
0.0393615
0.0395879
0.0398681
0.0401976
0.0404866
0.0402992
0.0382397
0.0333005
0.0336697
0.0575957
0.125334
0.242092
0.393056
0.561551
0.736689
0.912038
1.08346
1.24782
1.40201
1.54204
1.66171
1.75031
1.7881
1.73338
0.203482
3.13675
4.90817
5.75495
6.27698
6.60684
6.74978
6.62495
5.4239
4.04646
2.82246
2.04215
1.9646
2.35344
2.84436
2.82931
2.52918
2.04978
1.45146
0.816
0.253908
0.0125717
0.0377189
0.0405438
0.040046
0.039597
0.0392283
0.0389479
0.0387423
0.0385971
0.0385028
0.038459
0.0384662
0.0385201
0.038614
0.0387412
0.0389016
0.0390974
0.039338
0.0396392
0.0400031
0.0403734
0.0404322
0.0390485
0.0349861
0.0342655
0.0530077
0.109667
0.211095
0.344925
0.494703
0.648721
0.799563
0.942078
1.07184
1.1837
1.27009
1.31768
1.30052
1.15776
0.208034
3.03673
4.91697
5.73263
6.18434
6.41272
6.38333
5.81944
4.4698
3.18005
2.13872
1.69926
1.89103
2.42952
2.76343
2.6367
2.26814
1.73923
1.11201
0.488801
0.0630472
0.0213671
0.040275
0.0399186
0.0394733
0.0390935
0.0387765
0.0385353
0.038359
0.038233
0.0381506
0.0381128
0.0381182
0.0381638
0.0382459
0.0383609
0.0385083
0.0386862
0.0388998
0.0391601
0.0394783
0.0398677
0.0402934
0.0404919
0.0395027
0.0359854
0.0343017
0.0482396
0.0935404
0.177362
0.290092
0.416169
0.5432
0.662525
0.767286
0.850536
0.902894
0.908711
0.838472
0.631147
0.226959
3.15279
4.80877
5.59005
5.94244
6.04581
5.85742
4.77024
3.48379
2.32617
1.57745
1.52153
1.91232
2.51107
2.64194
2.41643
1.98805
1.41446
0.778027
0.21578
0.00941859
0.0381294
0.039753
0.0393338
0.0389586
0.0386401
0.0383801
0.0381772
0.038028
0.0379192
0.0378474
0.0378154
0.0378199
0.0378579
0.0379276
0.0380277
0.0381595
0.0383229
0.03852
0.0387543
0.0390332
0.0393726
0.0397861
0.0402536
0.0405789
0.0399715
0.0370405
0.0343114
0.0426967
0.074794
0.137308
0.223847
0.320548
0.414468
0.495249
0.553568
0.578759
0.555394
0.458302
0.25294
0.235565
3.2225
4.66305
5.32493
5.60052
5.59843
4.98836
3.71314
2.51577
1.58338
1.23924
1.48888
2.01557
2.5091
2.4797
2.17308
1.69014
1.08439
0.46384
0.0506278
0.0235132
0.0394749
0.0391661
0.0388076
0.0384982
0.0382346
0.038018
0.0378494
0.0377271
0.0376387
0.0375811
0.0375563
0.0375617
0.0375959
0.0376568
0.0377428
0.037856
0.0379997
0.0381767
0.0383899
0.0386432
0.0389431
0.0393025
0.0397382
0.0402479
0.0407013
0.0405232
0.0384488
0.0350782
0.0376265
0.0554523
0.0937628
0.149225
0.210902
0.266083
0.303082
0.310883
0.27831
0.196766
0.0794279
0.241665
3.19379
4.40286
4.93403
5.17298
4.97868
3.85882
2.64619
1.62923
1.06603
1.13833
1.55559
2.16561
2.44012
2.28453
1.90657
1.37439
0.756188
0.200222
0.00842445
0.0378086
0.0390339
0.0386709
0.0383559
0.0380935
0.0378738
0.0376932
0.0375528
0.0374502
0.0373783
0.0373339
0.0373182
0.0373289
0.0373645
0.0374224
0.0375002
0.0375994
0.0377235
0.0378758
0.0380616
0.038286
0.0385535
0.0388699
0.0392479
0.0397059
0.0402502
0.0408168
0.0410757
0.0401302
0.037314
0.0355538
0.0408299
0.056437
0.0804531
0.105696
0.122337
0.12125
0.0974423
0.0570088
0.0265193
0.231473
2.96763
3.97622
4.3704
4.50296
3.86602
2.65986
1.62349
0.957036
0.859431
1.18502
1.68715
2.25875
2.31035
2.05246
1.61583
1.04675
0.444919
0.0439691
0.0247717
0.0388763
0.0385786
0.0382538
0.0379757
0.0377447
0.0375552
0.0374025
0.0372849
0.0371988
0.0371396
0.0371053
0.0370971
0.0371125
0.03715
0.0372079
0.0372833
0.0373766
0.0374891
0.037622
0.0377805
0.0379715
0.0382002
0.038473
0.0388002
0.0391923
0.0396623
0.0402244
0.0408676
0.041461
0.0415782
0.0405127
0.0383283
0.0370065
0.0385405
0.0422623
0.0450695
0.0437666
0.0385008
0.0349541
0.0373573
0.211081
2.56204
3.42994
3.61735
3.44771
2.44858
1.49506
0.835292
0.653646
0.893744
1.29949
1.86199
2.24193
2.13045
1.79032
1.30267
0.718517
0.18426
0.007947
0.0376602
0.0385337
0.0381718
0.0378751
0.0376296
0.0374279
0.0372634
0.0371321
0.0370334
0.0369643
0.0369199
0.0368973
0.0368963
0.0369148
0.0369519
0.0370074
0.0370799
0.0371696
0.0372767
0.0373999
0.0375418
0.0377064
0.0378983
0.0381252
0.0383978
0.0387257
0.0391171
0.0395841
0.0401435
0.0408062
0.0415504
0.0422704
0.0427164
0.0426683
0.0422517
0.0419581
0.0421578
0.0427852
0.0434175
0.0430053
0.0403407
0.204622
2.03932
2.6397
2.69509
1.99193
1.20464
0.66008
0.494266
0.68039
1.00812
1.45246
2.03184
2.13042
1.90811
1.50224
0.972152
0.407599
0.0363201
0.0265449
0.0384596
0.0381263
0.0377945
0.037526
0.0373069
0.0371315
0.0369909
0.0368795
0.0367967
0.0367408
0.0367086
0.0366972
0.0367044
0.0367277
0.0367664
0.0368202
0.0368884
0.0369721
0.0370722
0.0371881
0.0373207
0.0374712
0.0376402
0.0378322
0.0380558
0.0383204
0.038635
0.03901
0.0394566
0.0399864
0.0406132
0.0413472
0.0421946
0.0431254
0.0440804
0.045026
0.0459035
0.0464698
0.0461606
0.0442168
0.0403402
0.214626
1.41222
1.49041
1.36725
0.807224
0.453773
0.370027
0.539744
0.808204
1.14472
1.63683
2.02292
1.95855
1.65515
1.19514
0.644077
0.154476
0.00807434
0.0376518
0.0381571
0.0377672
0.0374608
0.0372185
0.0370217
0.0368649
0.0367425
0.0366494
0.0365821
0.0365375
0.0365129
0.036507
0.0365182
0.0365449
0.0365862
0.0366406
0.0367068
0.0367854
0.0368775
0.0369833
0.0371044
0.0372421
0.0373964
0.0375677
0.0377594
0.0379763
0.0382253
0.0385163
0.0388598
0.0392649
0.0397391
0.0402926
0.0409343
0.0416714
0.0425084
0.0434065
0.0442384
0.0447206
0.0443567
0.0425858
0.0393035
0.271941
0.989569
0.722101
0.444954
0.293422
0.303431
0.470262
0.687347
0.934482
1.30086
1.80775
1.92015
1.7394
1.37482
0.873991
0.342075
0.025831
0.0286363
0.0382057
0.0378462
0.0374792
0.037189
0.0369614
0.0367806
0.0366383
0.0365278
0.0364451
0.0363878
0.0363524
0.0363358
0.0363355
0.0363495
0.0363768
0.0364171
0.03647
0.0365345
0.0366102
0.036697
0.0367946
0.0369035
0.0370254
0.0371619
0.0373139
0.0374826
0.037669
0.0378746
0.0381036
0.0383633
0.0386623
0.0390084
0.039407
0.0398638
0.0403849
0.0409666
0.0415922
0.0422009
0.0426215
0.0424887
0.0412651
0.03865
0.187702
0.294099
0.225257
0.232461
0.32127
0.47441
0.630007
0.801848
1.07184
1.48143
1.80563
1.745
1.47555
1.06933
0.559195
0.115857
0.00876566
0.0370011
0.0378971
0.0375104
0.0371818
0.0369191
0.0367109
0.0365467
0.0364203
0.0363251
0.0362557
0.0362081
0.0361796
0.0361686
0.0361731
0.0361911
0.0362207
0.0362611
0.0363118
0.0363726
0.0364438
0.0365254
0.0366171
0.0367182
0.0368288
0.0369492
0.0370807
0.0372251
0.0373839
0.0375575
0.037746
0.0379504
0.038174
0.0384218
0.0386997
0.039013
0.0393627
0.0397489
0.0401654
0.0405826
0.0409058
0.0408906
0.0400862
0.0380699
0.0366965
0.040526
0.0447504
0.0497651
0.0558828
0.0634029
0.0726854
0.0841529
0.0982908
0.115639
0.13679
0.162502
0.193963
0.233308
0.284449
0.353703
0.447258
0.55722
0.620652
0.45906
0.0364897
0.0398881
0.0436749
0.04826
0.0539686
0.061117
0.0700924
0.0813676
0.0955199
0.113239
0.135322
0.162756
0.19699
0.240484
0.297715
0.376216
0.484156
0.613991
0.699031
0.58716
0.0362801
0.0392244
0.0425433
0.0466491
0.0518706
0.0585292
0.0670199
0.0778326
0.0915954
0.109109
0.131349
0.159522
0.195287
0.241247
0.301866
0.384339
0.495738
0.627625
0.725352
0.649064
0.0360758
0.038561
0.0414003
0.0449964
0.0496739
0.0557509
0.0636124
0.073731
0.0867267
0.103437
0.124937
0.152585
0.188164
0.234228
0.294738
0.375522
0.481609
0.605979
0.709574
0.713022
0.0358837
0.0379227
0.0402904
0.043369
0.0474713
0.0529056
0.0600371
0.0692962
0.0812395
0.0966457
0.116573
0.142402
0.175926
0.219528
0.276503
0.351173
0.446916
0.559053
0.664369
0.721369
0.0357096
0.0373311
0.0392528
0.0418282
0.0453519
0.0501174
0.0564659
0.0647774
0.0755133
0.0893155
0.107093
0.13009
0.159957
0.198818
0.249354
0.314706
0.397206
0.494487
0.594491
0.674693
0.0355576
0.0368025
0.0383179
0.0404234
0.0433912
0.0474962
0.0530549
0.0604016
0.0699038
0.0820358
0.0974674
0.117157
0.142435
0.175051
0.217134
0.271011
0.338458
0.418778
0.506319
0.589817
0.0354302
0.0363473
0.0375056
0.0391883
0.0416445
0.0451284
0.0499307
0.0563493
0.0646826
0.0752628
0.0885142
0.10504
0.125723
0.15179
0.184778
0.226368
0.277964
0.339795
0.409725
0.482749
0.0353285
0.0359707
0.0368236
0.0381373
0.0401417
0.0430697
0.0471829
0.0527489
0.0600235
0.0692529
0.0806907
0.0946461
0.111563
0.132089
0.157086
0.187541
0.224375
0.268087
0.318236
0.373057
0.0352527
0.0356717
0.0362675
0.037267
0.0388879
0.0413427
0.044863
0.0496852
0.0560337
0.0641124
0.0741011
0.086166
0.100491
0.117306
0.136876
0.159466
0.185318
0.214663
0.247607
0.28381
0.0352031
0.0354411
0.0358173
0.0365608
0.0378766
0.039951
0.0429867
0.0471907
0.0527521
0.059837
0.068591
0.0791493
0.0916468
0.106195
0.122741
0.140926
0.16018
0.180084
0.200167
0.217605
0.035099
0.0352367
0.0353487
0.0357346
0.0365525
0.037947
0.0400659
0.0430325
0.0469176
0.051743
0.0574757
0.0640311
0.0713143
0.0787112
0.0844045
0.0852295
0.0785491
0.07107
0.0697644
0.0788822
0.014208
0.0217865
0.0161142
0.0132149
0.0116383
0.0107903
0.0104474
0.0106312
0.0115689
0.0136179
0.017466
0.024007
0.0339085
0.0481527
0.0674774
0.092437
0.12265
0.156925
0.192532
0.232239
0.0236695
0.0173918
0.0259662
0.0347195
0.0444199
0.0550946
0.06661
0.0789767
0.0923937
0.107066
0.123092
0.140148
0.152959
0.17272
0.208222
0.253757
0.303394
0.347329
0.370295
0.429499
0.0142083
0.0276419
0.0392188
0.0541155
0.0698449
0.0861213
0.103152
0.12095
0.139537
0.158706
0.1775
0.19455
0.214739
0.241475
0.258548
0.273053
0.283274
0.282463
0.287111
0.319111
0.0114949
0.0164245
0.0179444
0.0207944
0.025537
0.0314622
0.0384255
0.0462666
0.0548121
0.0638992
0.0737097
0.0863565
0.109722
0.140575
0.158157
0.161716
0.153338
0.135323
0.116939
0.109492
0.00942694
0.0122536
0.0193355
0.0231772
0.0230954
0.0238232
0.0253967
0.0274013
0.0295461
0.0316973
0.0340039
0.0372344
0.042776
0.0505423
0.0569883
0.0578476
0.0525418
0.0433474
0.0339718
0.0263786
0.00945041
0.0115358
0.0190863
0.0291072
0.0297667
0.0282894
0.0271198
0.0264533
0.026149
0.0260488
0.0260425
0.0260527
0.025871
0.0252913
0.0247748
0.0243841
0.0242172
0.0249497
0.0272335
0.030715
0.0100897
0.0117752
0.0186565
0.0310704
0.0340519
0.0338977
0.0334214
0.0329742
0.0326041
0.0323473
0.0322315
0.0322697
0.0324522
0.0327919
0.0334529
0.0346145
0.0362124
0.0379362
0.0394342
0.0405251
0.0110761
0.0120597
0.0192103
0.0318753
0.0348175
0.0350289
0.0350721
0.0351565
0.0352743
0.0354336
0.0356575
0.0359773
0.0364242
0.03701
0.0377029
0.0384271
0.0390876
0.0396139
0.0399893
0.0402356
0.0115846
0.0124817
0.0214018
0.0330693
0.0350473
0.0351497
0.0352215
0.0353424
0.0354939
0.0356752
0.0358964
0.0361727
0.0365179
0.0369327
0.0373935
0.0378557
0.0382717
0.0386095
0.0388606
0.039031
0.0100303
0.0133691
0.0253848
0.0343756
0.0352117
0.0352011
0.0352417
0.0353259
0.0354369
0.0355731
0.0357388
0.0359405
0.0361834
0.0364651
0.0367721
0.0370806
0.0373643
0.0376029
0.0377867
0.037915
0.0105529
0.0157087
0.0306778
0.0352182
0.0352823
0.0352287
0.0352418
0.0352882
0.0353558
0.0354423
0.0355489
0.0356778
0.0358302
0.0360039
0.0361913
0.0363798
0.0365551
0.0367054
0.0368238
0.036908
0.0139712
0.023084
0.0347544
0.0353646
0.0352472
0.035209
0.0352093
0.0352276
0.0352575
0.0352975
0.0353473
0.0354075
0.0354782
0.0355582
0.035644
0.0357304
0.0358114
0.0358818
0.0359381
0.035979
0.0612309
0.0793612
0.088899
0.0975758
0.10536
0.110495
0.113305
0.114271
0.113795
0.11279
0.11181
0.11055
0.109313
0.108484
0.10874
0.26983
0.310666
0.483856
0.647769
0.741596
0.783371
0.800374
0.800959
0.790192
0.771378
0.746888
0.718995
0.689465
0.659278
0.628162
0.502914
0.32958
0.365911
0.473393
0.577625
0.635175
0.654606
0.654797
0.646301