/*--------------------------------*- C++ -*----------------------------------*\
| =========                 |                                                 |
| \\      /  F ield         | OpenFOAM: The Open Source CFD Toolbox           |
|  \\    /   O peration     | Version:  v1912                                 |
|   \\  /    A nd           | Website:  www.openfoam.com                      |
|    \\/     M anipulation  |                                                 |
\*---------------------------------------------------------------------------*/
FoamFile
{
    version     2.0;
    format      ascii;
    class       volScalarField;
    location    "40";
    object      p;
}
// * * * * * * * * * * * * * * * * * * * * * * * * * * * * * * * * * * * * * //

dimensions      [1 -1 -2 0 0 0 0];


internalField   nonuniform List<scalar> 
20320
(
419468
429722
429748
429800
429872
429959
430062
430176
430300
430430
430564
430697
430828
430952
431067
431171
431261
431335
431390
431423
399546
409458
409492
409546
409619
409708
409811
409926
410050
410181
410315
410448
410579
410703
410818
410921
411008
411078
411129
411160
380221
389822
389858
389912
389985
390074
390178
390293
390417
390547
390681
390814
390943
391066
391180
391281
391367
391435
391485
391516
361497
370799
370834
370888
370960
371048
371151
371265
371389
371518
371650
371782
371910
372031
372142
372242
372326
372394
372445
372479
343360
352369
352404
352457
352528
352615
352716
352829
352950
353078
353208
353338
353463
353582
353691
353788
353871
353939
353990
354028
325796
334521
334554
334606
334675
334760
334859
334969
335088
335212
335340
335467
335589
335705
335811
335905
335986
336052
336103
336144
308794
317238
317270
317320
317387
317469
317564
317670
317785
317905
318029
318151
318270
318381
318483
318574
318651
318714
318764
318807
292339
300511
300541
300588
300652
300729
300819
300920
301029
301143
301260
301377
301489
301595
301691
301775
301848
301907
301956
301999
276422
284325
284353
284397
284456
284528
284611
284704
284805
284911
285018
285125
285229
285325
285413
285489
285553
285607
285652
285695
261029
268671
268696
268735
268788
268852
268927
269010
269099
269193
269288
269381
269471
269554
269628
269692
269745
269789
269828
269868
246151
253535
253557
253591
253636
253690
253754
253824
253898
253975
254052
254127
254197
254260
254314
254359
254395
254425
254454
254487
231779
238910
238927
238954
238990
239033
239082
239135
239191
239246
239299
239347
239389
239423
239448
239464
239473
239480
239494
239515
217900
224783
224796
224815
224840
224869
224901
224933
224965
224992
225013
225026
225029
225022
225003
224975
224943
224914
224901
224902
204505
211145
211152
211162
211174
211187
211199
211207
211209
211202
211182
211149
211099
211033
210950
210857
210760
210673
210616
210579
191585
197987
197987
197988
197986
197981
197970
197950
197918
197869
197800
197707
197587
197440
197266
197073
196874
196692
196558
196455
179131
185298
185292
185282
185266
185242
185206
185155
185084
184987
184859
184693
184484
184229
183928
183586
183225
182881
182608
182382
167130
173069
173057
173036
173005
172961
172899
172815
172702
172553
172358
172107
171790
171397
170921
170365
169748
169122
168586
168110
155573
161288
161270
161239
161193
161129
161041
160924
160769
160565
160298
159954
159514
158955
158257
157402
156391
155276
154208
153184
144447
149946
149921
149880
149821
149738
149626
149477
149281
149023
148687
148248
147677
146935
145975
144739
143167
141232
139050
136643
133740
139029
138999
138949
138877
138777
138644
138466
138233
137927
137526
137000
136305
135384
134155
132497
130231
127094
122731
116501
134301
136805
136325
135856
135271
134564
133818
132704
129597
126900
125600
124358
123739
120146
104872
100210
98485.1
98505.5
98647
98779.8
99145.2
99648.2
99933.6
122002
191333
148144
109644
81571.3
62342
49635
41570.7
36531
33591.3
31804
30937.8
30656.6
30099.1
29914.4
30186.3
30326.8
29757
29655.5
30187.8
30208.4
30103
29979.1
29856.5
29755.4
29691
29660
29653
29659.5
29673.9
29696.2
29723.7
29744.4
29743.9
29713.4
29656.3
29594.1
128834
131608
131132
130741
130416
129975
129378
128580
127008
125478
123955
122296
120748
118530
104390
98520.7
97918.4
97813.7
97795.5
97860.3
97997.5
98214.4
98367.1
107780
154033
126870
97131.4
72662.1
55058.4
43233.5
35610.6
30915.3
28230.5
26744.7
25821.5
25328.6
25206.2
25337.5
25198.4
25176.9
25329.2
25679
25540.1
25353.6
25178.6
25005.8
24847.5
24720.8
24639.2
24597.1
24583.7
24586.7
24598.5
24617.9
24644.6
24670.8
24683.6
24670.1
24621.4
24547.6
123325
126215
126064
125577
125407
125254
124847
124085
122814
121297
119219
116911
114304
112765
105269
98593.2
97928.9
97852.3
97793.6
97830.7
97944
98117
98110.4
118415
125921
107741
83901.2
62709.9
46901.9
36190.3
29315.6
25083.7
22641.3
21322
20569.1
20150.3
20059.3
20150.7
20110.3
20017.8
20198.5
20459.3
20468.7
20312.4
20121.7
19925.2
19737.2
19582.8
19485.6
19433.7
19415.9
19416.9
19426.9
19446.2
19476.6
19513
19540.4
19542.3
19500.4
19415.7
117944
120637
121051
121282
120849
120180
119818
119320
118288
116822
114859
112523
109071
105548
101633
97664.9
97334.3
97736.6
97759
97794.9
97875.8
97990.3
100059
101378
100353
87312.8
68306.4
50522
36983.8
27870.8
22121.5
18634.7
16654.2
15607.7
15068.4
14812.1
14779.7
14875.1
14910.6
14896.4
14998.9
15161.6
15188.1
15072.2
14895.6
14697.9
14487
14302.8
14196.5
14141
14125.6
14128
14137.7
14159.6
14198.1
14250
14292.9
14306
14266.2
14186.3
112702
115038
115478
115992
116093
116156
115839
115049
113761
112590
110781
107899
104089
100253
96180.5
95351
96122.8
97715.3
97721.1
97772
97815.4
95234.8
86749.3
81317.5
76901.3
65877.5
50504.5
36068.1
25218.9
18204.6
13989.4
11530.2
10211.9
9575.33
9316.37
9255
9322.68
9467.77
9578.18
9618.76
9676.71
9755.34
9768.62
9677.75
9527.02
9346.1
9114.42
8886.92
8781.5
8728.45
8723.27
8730.03
8738.08
8763.77
8815.46
8891.69
8953.06
8973.63
8926.33
8877.78
107942
110410
110755
110665
110721
110889
110866
110322
109275
108070
106510
103481
99699.2
95843.3
90805.1
92719.5
95155.2
96937.9
97633.7
97739.3
92809
80545.2
70493.4
62475.9
54943
44134.5
30924.4
19345.7
11163.8
6771
4676.07
3598.36
3198.53
3139.48
3265.96
3456.07
3665.33
3898.24
4122.15
4234.47
4254.87
4238.07
4222.92
4149.17
4040.99
3909.8
3636.27
3301.57
3234.78
3192.21
3222.59
3235.54
3228.71
3250.97
3317.28
3438.86
3525.17
3544.33
3418.88
3462.89
102420
105348
105445
105821
105650
105379
105599
105471
104949
104156
102366
98987.7
95649.4
91950.5
91241.8
91598
92839.6
95927.8
97518.7
91051.9
77412.6
65699.3
54464.4
44153.6
34065.1
21847.7
8862.39
1553.83
249.056
-26.773
-38.755
-43.3967
-46.4169
-48.8605
-48.1739
-34.1508
-2.59064
41.1491
89.2789
131.189
174.621
183.061
166.062
132.196
74.2696
31.1622
0.789715
-12.7286
-17.8716
-20.9603
-22.146
-21.726
-18.8526
-14.8356
-8.41864
2.03826
16.5739
28.814
34.675
53.3493
96459
99502.6
99709.4
100178
100383
100229
100171
100482
100157
99447.6
97664.7
94793.7
90892.3
88948.4
90438.2
91431.5
92399.4
94544.1
89261.4
75679.6
63469
50882.7
38361.6
26127
13151.4
1681.65
-5.68134
-15.589
-27.186
-33.0069
-42.5788
-47.4649
-50.9151
-54.1015
-57.5374
-56.0986
-54.3187
-53.4661
-52.6516
-51.6219
-50.4791
-49.2859
-48.1746
-47.1949
-46.2315
-45.2747
-44.09
-43.0144
-42.6149
-42.6826
-43.0989
-43.6833
-44.0997
-44.3646
-44.5744
-44.6758
-44.494
-43.9722
-43.2228
-42.7166
90692
93621
94313.1
94606
94838.3
95357.9
95150.5
95342.9
95248.5
94493.3
92934.4
90281.4
85541.7
89934.1
89931.7
90969.8
91845.5
85928.5
74448.8
62510
49505
35953.1
22148.1
7616.49
252.474
-17.0115
-25.015
-31.9655
-40.9157
-46.0494
-51.8423
-55.651
-58.2422
-60.2665
-62.2341
-62.3977
-61.2122
-60.0844
-58.9446
-57.7546
-56.7096
-55.7739
-54.8188
-53.7935
-52.6755
-51.561
-50.4275
-49.4599
-49.0236
-49.0231
-49.351
-49.8241
-50.2041
-50.4325
-50.5454
-50.5236
-50.2678
-49.7421
-49.0108
-48.3588
84996.4
87653.4
88624.6
88881.9
89164
89751.4
90539.9
90508.9
90248.1
89466.7
88011.2
85425.2
84756.7
88233.6
89369
90505.5
84154.3
72841.2
62223.9
49439.8
35500.6
20857.4
5585.71
-12.9723
-35.7585
-35.9228
-42.1883
-47.8517
-53.5352
-57.5074
-61.126
-63.7384
-65.5028
-66.7618
-67.8841
-68.2223
-67.5691
-66.5531
-65.3959
-64.1901
-63.0795
-62.065
-61.0636
-60.0251
-58.9361
-57.858
-56.833
-55.9997
-55.5623
-55.5072
-55.7404
-56.1112
-56.4396
-56.6445
-56.7184
-56.6357
-56.3359
-55.7924
-55.0541
-54.2898
79284.9
81996.4
82810
83216.8
83668.6
84114.5
85105.7
85685.1
85251.3
84408.3
82729.5
80614.8
86095.1
87521.5
88836.5
86979.3
72830.7
62510
50352.8
36410
21365
5324.73
-13.188
-43.9104
-50.7086
-53.2832
-57.9372
-61.7699
-65.3416
-68.154
-70.3727
-71.9378
-72.9255
-73.5333
-74.01
-74.1798
-73.7536
-72.8976
-71.8097
-70.6315
-69.4951
-68.4342
-67.403
-66.3588
-65.2992
-64.2697
-63.3326
-62.5969
-62.1781
-62.0865
-62.2447
-62.5288
-62.7986
-62.9698
-63.007
-62.878
-62.5406
-61.9712
-61.2012
-60.3298
73780.5
76805
77029
77406.8
78002.6
78625.6
79268.8
80128.6
80278.6
79422.9
76853.7
78562.2
84471.9
86268.2
86960.8
74884
64403.4
52285.4
38479.6
23255.4
6738.92
2.70303
-49.5953
-57.0618
-64.0542
-67.7289
-71.0276
-73.7355
-76.0886
-77.9471
-79.227
-79.9949
-80.343
-80.4346
-80.4423
-80.3453
-79.9365
-79.185
-78.1886
-77.072
-75.9528
-74.8795
-73.8333
-72.7921
-71.7618
-70.7858
-69.9257
-69.2612
-68.8686
-68.7524
-68.8518
-69.0626
-69.2742
-69.4066
-69.4099
-69.2462
-68.8781
-68.2838
-67.4753
-66.503
68171.7
71588.7
71081
71450.1
72050.5
72814.5
73553.9
74650.3
75145.2
74548.8
71356.9
79462.7
83721.7
85626.5
78199.2
67265.5
55546.9
41718.2
26416.6
9591.18
101.008
-54.1443
-61.9082
-70.3325
-76.0591
-79.5673
-82.0854
-84.0877
-85.7268
-86.9071
-87.5521
-87.7537
-87.6371
-87.3503
-87.0213
-86.6776
-86.195
-85.4861
-84.5704
-83.5286
-82.4521
-81.3901
-80.3478
-79.3214
-78.3265
-77.4056
-76.6128
-76.0075
-75.6377
-75.5026
-75.5516
-75.6997
-75.8578
-75.9521
-75.9264
-75.7369
-75.3476
-74.7341
-73.892
-72.839
61190.8
65297.2
64910.2
65436
66044.8
66773.3
67850.6
68785.9
69563.8
69733.4
68016.4
75477.2
82464.5
82852.3
70513
59336.5
46039.8
30815.3
13912.6
410.551
-71.6581
-70.8949
-76.7631
-82.742
-87.0221
-89.7246
-91.6694
-93.2466
-94.4058
-95.0937
-95.3099
-95.1464
-94.733
-94.2004
-93.6505
-93.123
-92.5502
-91.8474
-90.9929
-90.0234
-89.0002
-87.9694
-86.9488
-85.9507
-84.9974
-84.1295
-83.3937
-82.8351
-82.4827
-82.3313
-82.3369
-82.4313
-82.5421
-82.6022
-82.5538
-82.3481
-81.9464
-81.3211
-80.4573
-79.3427
54180.8
57937
58544.7
59384.5
60001.7
60684.2
61678
62455.3
63415.3
64285.4
66988.2
66896.7
80009.7
70939
62587.9
50592.8
36174.7
19844.6
2433.22
-67.1851
-79.345
-84.9053
-89.7514
-94.018
-96.919
-98.8649
-100.36
-101.509
-102.268
-102.611
-102.558
-102.188
-101.616
-100.951
-100.278
-99.6377
-98.9966
-98.2895
-97.4797
-96.5739
-95.6084
-94.6219
-93.6383
-92.6799
-91.7728
-90.9545
-90.2666
-89.7425
-89.401
-89.2334
-89.2018
-89.2515
-89.322
-89.3539
-89.2888
-89.0759
-88.6723
-88.0465
-87.174
-86.0253
46646.6
51153.2
52484.7
53220.7
53848.1
54488.8
55266.9
56121.8
56711.3
57131.4
60508.6
58469.7
62972.4
68189.6
54515.9
41653
26502.3
8549.57
-11.2657
-87.2202
-91.333
-97.2189
-101.205
-104.164
-106.053
-107.358
-108.354
-109.086
-109.514
-109.615
-109.405
-108.942
-108.314
-107.607
-106.888
-106.198
-105.522
-104.816
-104.042
-103.192
-102.284
-101.35
-100.414
-99.5027
-98.6439
-97.8726
-97.2245
-96.7253
-96.3891
-96.2059
-96.1434
-96.1566
-96.1945
-96.2036
-96.1285
-95.917
-95.5227
-94.9084
-94.0419
-92.8791
40614.3
45065.3
46357.1
47039.4
47643.1
48180.2
48913.8
49703.4
49894.7
50272.9
49538.7
55533.3
59136
58397.7
46416.1
32979.5
17111.5
780.634
-95.0382
-96.1973
-102.987
-108.051
-111.446
-113.424
-114.537
-115.277
-115.816
-116.18
-116.34
-116.272
-115.98
-115.499
-114.882
-114.193
-113.486
-112.793
-112.114
-111.421
-110.682
-109.883
-109.032
-108.154
-107.271
-106.411
-105.601
-104.873
-104.259
-103.779
-103.445
-103.248
-103.161
-103.145
-103.157
-103.149
-103.071
-102.868
-102.493
-101.903
-101.057
-99.9037
36633.4
39527.5
41042.2
40849.5
40691.8
41661.4
42579.9
43323.5
43881.7
44182.4
44723.4
50690.2
53048.9
50076.2
38211.5
24729.9
7644.5
-32.7651
-102.534
-107.851
-113.627
-118.025
-120.655
-121.864
-122.425
-122.724
-122.895
-122.964
-122.917
-122.736
-122.411
-121.951
-121.384
-120.749
-120.086
-119.424
-118.767
-118.1
-117.398
-116.648
-115.854
-115.033
-114.207
-113.4
-112.638
-111.951
-111.365
-110.901
-110.569
-110.362
-110.255
-110.216
-110.206
-110.188
-110.113
-109.927
-109.58
-109.025
-108.214
-107.089
33744.8
36172.7
35071.5
33934.6
35372.9
35704.3
36454.5
37088
37366
36895.4
34975.8
47689.5
43117.6
40418
30136.8
16866.6
897.741
-112.821
-112.053
-118.506
-123.511
-127.1
-128.913
-129.616
-129.821
-129.816
-129.719
-129.573
-129.385
-129.137
-128.807
-128.387
-127.881
-127.314
-126.712
-126.098
-125.48
-124.849
-124.189
-123.489
-122.751
-121.987
-121.218
-120.465
-119.75
-119.101
-118.542
-118.094
-117.765
-117.549
-117.426
-117.368
-117.343
-117.319
-117.252
-117.09
-116.778
-116.268
-115.506
-114.427
27446.3
30794.7
28960.2
28624.2
31287.8
30489.4
30899.7
30657.2
30275.3
28217
29989.4
33249
40865.6
32015.8
22644.8
9278.04
-30.4411
-114.925
-122.418
-128.143
-132.528
-135.202
-136.437
-136.846
-136.846
-136.657
-136.393
-136.118
-135.849
-135.569
-135.25
-134.871
-134.427
-133.927
-133.389
-132.83
-132.259
-131.671
-131.056
-130.405
-129.722
-129.016
-128.304
-127.604
-126.936
-126.324
-125.791
-125.358
-125.033
-124.812
-124.676
-124.602
-124.566
-124.541
-124.487
-124.352
-124.083
-123.625
-122.922
-121.905
18069.7
23577
23473.6
24969
27455.3
26214.1
25925.8
24716.5
23875.8
22359.7
20144.2
29938.3
29891.4
24658.1
15895.9
2789.94
-112.15
-125.342
-131.778
-136.986
-140.554
-142.545
-143.451
-143.711
-143.616
-143.341
-143.001
-142.671
-142.374
-142.094
-141.797
-141.458
-141.066
-140.625
-140.145
-139.64
-139.117
-138.574
-138.004
-137.403
-136.773
-136.124
-135.467
-134.819
-134.198
-133.623
-133.117
-132.7
-132.38
-132.154
-132.008
-131.922
-131.879
-131.856
-131.817
-131.713
-131.489
-131.091
-130.456
-129.513
10637.6
14440.9
18596
18273.4
16691
18184.4
21174.8
19066.7
18109.7
15235.8
17736.4
21960
23031.5
18045.1
10017.1
233.615
-131.037
-134.515
-140.559
-144.951
-147.808
-149.39
-150.13
-150.345
-150.235
-149.946
-149.596
-149.272
-148.997
-148.742
-148.474
-148.172
-147.826
-147.433
-147.003
-146.545
-146.066
-145.566
-145.04
-144.486
-143.908
-143.313
-142.711
-142.114
-141.538
-141
-140.522
-140.122
-139.808
-139.58
-139.425
-139.331
-139.283
-139.263
-139.24
-139.167
-138.991
-138.655
-138.096
-137.238
10331.9
11278
14475.9
14542.4
10857.1
10577.7
12203.1
13982.2
12853.8
11659.1
13843.6
16053.6
16581.6
12484.2
5016.46
-97.4782
-137.512
-143.976
-148.643
-152.253
-154.586
-155.941
-156.63
-156.864
-156.788
-156.535
-156.242
-155.986
-155.755
-155.527
-155.284
-155.014
-154.705
-154.356
-153.971
-153.557
-153.119
-152.658
-152.173
-151.663
-151.133
-150.59
-150.04
-149.494
-148.963
-148.462
-148.013
-147.63
-147.325
-147.096
-146.936
-146.835
-146.783
-146.765
-146.756
-146.713
-146.583
-146.312
-145.834
-145.074
10265.5
10255.3
10624.8
11026.9
10240.9
9909.48
9958.41
10426.4
10618.7
11074.6
11103.3
12705.2
11567
8000.7
1436.75
-125.118
-148.153
-152.239
-156.231
-159.157
-161.131
-162.372
-163.072
-163.358
-163.349
-163.198
-163.017
-162.832
-162.643
-162.445
-162.229
-161.987
-161.71
-161.398
-161.05
-160.675
-160.277
-159.856
-159.411
-158.943
-158.458
-157.963
-157.462
-156.964
-156.478
-156.015
-155.593
-155.23
-154.935
-154.709
-154.545
-154.438
-154.381
-154.364
-154.365
-154.346
-154.258
-154.05
-153.661
-153.011
10076.3
10050.5
9913.2
10181
9915.93
9855.83
9913.95
10032.9
10363.6
10625.2
10176.4
8739.25
7854.2
4516.72
48.4314
-164.469
-156.372
-160.404
-163.469
-165.888
-167.627
-168.815
-169.549
-169.907
-170.006
-169.985
-169.903
-169.788
-169.648
-169.487
-169.304
-169.093
-168.848
-168.569
-168.257
-167.918
-167.555
-167.168
-166.757
-166.329
-165.888
-165.438
-164.984
-164.532
-164.088
-163.662
-163.27
-162.928
-162.645
-162.424
-162.259
-162.147
-162.083
-162.063
-162.067
-162.064
-162.01
-161.861
-161.565
-161.045
9739.12
9802.37
9707
9697.36
9693.29
9768.42
9809.87
9964.67
10111.8
10517
7334.32
6505.09
5180.2
1878.7
-135.834
-156.58
-165.278
-167.986
-170.556
-172.618
-174.201
-175.362
-176.137
-176.573
-176.797
-176.891
-176.902
-176.858
-176.773
-176.656
-176.51
-176.332
-176.12
-175.874
-175.597
-175.293
-174.963
-174.609
-174.234
-173.84
-173.433
-173.021
-172.609
-172.201
-171.799
-171.41
-171.048
-170.728
-170.461
-170.247
-170.081
-169.962
-169.891
-169.862
-169.863
-169.865
-169.833
-169.735
-169.534
-169.17
9666.68
9686.03
9661.34
9682.08
9692.06
9717.74
9761.46
9844.25
9952.4
9739.08
6043.76
5026.43
3287.57
294.849
-155.873
-173.001
-173.424
-175.591
-177.67
-179.464
-180.935
-182.079
-182.883
-183.403
-183.733
-183.928
-184.026
-184.052
-184.025
-183.955
-183.849
-183.707
-183.528
-183.316
-183.073
-182.802
-182.506
-182.186
-181.843
-181.482
-181.11
-180.733
-180.354
-179.978
-179.612
-179.258
-178.927
-178.633
-178.383
-178.177
-178.011
-177.886
-177.803
-177.763
-177.753
-177.749
-177.725
-177.662
-177.55
-177.376
9635.72
9671.82
9667.53
9626.69
9649.9
9678.37
9723.66
9779.46
9820.08
8655.47
4988.98
3959.57
1872.96
-295.931
-195.292
-179.103
-181.433
-183.157
-184.91
-186.5
-187.879
-189.001
-189.818
-190.41
-190.831
-191.114
-191.289
-191.383
-191.412
-191.391
-191.327
-191.221
-191.077
-190.898
-190.688
-190.451
-190.188
-189.9
-189.589
-189.261
-188.922
-188.577
-188.229
-187.883
-187.543
-187.216
-186.912
-186.642
-186.41
-186.213
-186.049
-185.917
-185.824
-185.769
-185.742
-185.722
-185.691
-185.64
-185.582
-185.615
9573.09
9593.85
9573.61
9573.05
9600.07
9630.24
9670.67
9699.82
9841.23
5679.76
4457.39
3114.57
740.115
-149.18
-182.882
-188.105
-189.292
-190.797
-192.323
-193.759
-195.061
-196.124
-196.961
-197.611
-198.102
-198.457
-198.702
-198.857
-198.942
-198.969
-198.946
-198.877
-198.768
-198.623
-198.447
-198.242
-198.011
-197.754
-197.474
-197.177
-196.869
-196.555
-196.237
-195.919
-195.605
-195.3
-195.017
-194.765
-194.548
-194.359
-194.196
-194.059
-193.955
-193.885
-193.837
-193.794
-193.742
-193.676
-193.598
-193.539
9540.99
9539.55
9489.08
9523.47
9551.37
9581
9598.52
9644.22
9141.76
4801.37
3987.08
2352.93
-48.4138
-185.928
-195.766
-196.299
-197.219
-198.56
-199.93
-201.253
-202.468
-203.483
-204.327
-205.015
-205.558
-205.971
-206.274
-206.485
-206.621
-206.694
-206.712
-206.681
-206.607
-206.495
-206.352
-206.179
-205.979
-205.751
-205.501
-205.234
-204.956
-204.67
-204.381
-204.089
-203.799
-203.516
-203.251
-203.014
-202.807
-202.624
-202.462
-202.32
-202.208
-202.122
-202.052
-201.982
-201.903
-201.805
-201.674
-201.474
9463.96
9463.48
9461.36
9483.3
9505.51
9532.14
9563.1
9645.75
6531.75
4591.31
3520.34
1545.2
-390.479
-212.2
-202.904
-204.18
-205.245
-206.487
-207.742
-208.978
-210.086
-211.066
-211.914
-212.626
-213.205
-213.663
-214.014
-214.274
-214.457
-214.573
-214.63
-214.635
-214.596
-214.517
-214.406
-214.265
-214.094
-213.895
-213.674
-213.435
-213.185
-212.927
-212.663
-212.397
-212.13
-211.869
-211.621
-211.398
-211.198
-211.019
-210.857
-210.712
-210.592
-210.493
-210.403
-210.309
-210.203
-210.075
-209.906
-209.667
9418.49
9423.82
9442.95
9449.48
9467.45
9494.03
9554.94
9253.53
5186.63
4413.05
2964.93
668.863
-135.103
-210.017
-211.645
-212.379
-213.412
-214.589
-215.765
-216.906
-217.945
-218.888
-219.727
-220.449
-221.052
-221.544
-221.934
-222.235
-222.459
-222.614
-222.707
-222.747
-222.741
-222.694
-222.614
-222.503
-222.361
-222.19
-221.996
-221.785
-221.562
-221.329
-221.091
-220.848
-220.604
-220.362
-220.132
-219.921
-219.73
-219.556
-219.394
-219.247
-219.121
-219.011
-218.906
-218.796
-218.675
-218.537
-218.374
-218.195
9382.56
9387.18
9376.88
9408.38
9432.39
9464.29
9534.22
6881.01
5051.97
4059.92
2248.87
-40.1278
-201.923
-221.025
-220.057
-220.643
-221.73
-222.869
-223.99
-225.033
-226.021
-226.939
-227.764
-228.486
-229.103
-229.619
-230.039
-230.375
-230.633
-230.822
-230.948
-231.02
-231.045
-231.029
-230.979
-230.897
-230.781
-230.637
-230.471
-230.286
-230.088
-229.88
-229.665
-229.445
-229.221
-228.998
-228.784
-228.587
-228.406
-228.239
-228.079
-227.931
-227.801
-227.685
-227.574
-227.458
-227.336
-227.212
-227.09
-226.988
9300.69
9307.36
9327.09
9364.56
9394.03
9425.95
9049.01
5682.33
4948.25
3507.75
1356.42
-285.133
-239.443
-226.601
-228.112
-229.071
-230.229
-231.339
-232.394
-233.382
-234.328
-235.214
-236.022
-236.74
-237.363
-237.894
-238.337
-238.699
-238.986
-239.203
-239.359
-239.461
-239.515
-239.528
-239.506
-239.45
-239.361
-239.243
-239.102
-238.942
-238.768
-238.583
-238.391
-238.192
-237.987
-237.782
-237.584
-237.401
-237.231
-237.071
-236.916
-236.771
-236.641
-236.524
-236.411
-236.297
-236.183
-236.074
-235.971
-235.88
9278.17
9283.23
9297.9
9323.94
9358.46
9422.6
6582.49
5637.24
4539.98
2744.68
378.269
-159.087
-232.265
-235.992
-236.707
-237.793
-238.932
-240.002
-240.983
-241.937
-242.853
-243.712
-244.5
-245.209
-245.833
-246.373
-246.832
-247.214
-247.523
-247.765
-247.947
-248.075
-248.156
-248.196
-248.2
-248.168
-248.103
-248.009
-247.893
-247.758
-247.606
-247.444
-247.272
-247.093
-246.907
-246.719
-246.537
-246.366
-246.207
-246.056
-245.908
-245.766
-245.64
-245.526
-245.415
-245.306
-245.199
-245.1
-245.01
-244.933
9264.83
9271.55
9274.84
9284.8
9338.82
8235.66
6210.59
5356.54
3833.24
1777.16
-200.204
-241.172
-244.234
-244.767
-245.606
-246.741
-247.833
-248.841
-249.787
-250.708
-251.595
-252.428
-253.197
-253.893
-254.514
-255.057
-255.525
-255.921
-256.248
-256.511
-256.716
-256.867
-256.972
-257.036
-257.063
-257.054
-257.012
-256.942
-256.849
-256.736
-256.606
-256.464
-256.313
-256.153
-255.985
-255.813
-255.646
-255.488
-255.34
-255.197
-255.056
-254.921
-254.8
-254.69
-254.584
-254.48
-254.38
-254.291
-254.214
-254.151
9247.88
9259.54
9261.01
9235.32
8985.34
6870.77
6013.75
4697.52
2927.5
711.638
-124
-256.082
-253.35
-253.855
-254.763
-255.879
-256.923
-257.87
-258.794
-259.693
-260.553
-261.361
-262.109
-262.791
-263.403
-263.946
-264.419
-264.825
-265.166
-265.446
-265.669
-265.841
-265.967
-266.053
-266.1
-266.111
-266.091
-266.043
-265.971
-265.879
-265.769
-265.647
-265.515
-265.374
-265.223
-265.067
-264.914
-264.768
-264.63
-264.497
-264.364
-264.237
-264.122
-264.017
-263.917
-263.818
-263.727
-263.647
-263.581
-263.527
9219.98
9242
9254.84
9193.16
7469.35
6581.24
5348.24
3815.04
1896.34
-44.6452
-245.645
-263.943
-262.999
-263.271
-264.19
-265.227
-266.205
-267.124
-268.024
-268.899
-269.732
-270.514
-271.239
-271.904
-272.505
-273.043
-273.518
-273.929
-274.281
-274.573
-274.812
-275.002
-275.147
-275.25
-275.317
-275.347
-275.347
-275.319
-275.267
-275.194
-275.103
-275
-274.886
-274.762
-274.627
-274.486
-274.347
-274.213
-274.084
-273.961
-273.838
-273.718
-273.611
-273.513
-273.418
-273.326
-273.242
-273.172
-273.114
-273.068
9179.83
9217.87
9205.21
8038.01
6977.15
5829.26
4497.41
2824.47
766.229
-105.867
-276.047
-272.844
-272.598
-273.046
-273.887
-274.817
-275.719
-276.611
-277.486
-278.331
-279.134
-279.888
-280.589
-281.234
-281.822
-282.352
-282.824
-283.238
-283.595
-283.898
-284.149
-284.353
-284.513
-284.633
-284.716
-284.764
-284.783
-284.773
-284.739
-284.684
-284.612
-284.526
-284.429
-284.32
-284.201
-284.074
-283.947
-283.823
-283.705
-283.592
-283.478
-283.368
-283.268
-283.176
-283.088
-283.003
-282.926
-282.864
-282.813
-282.773
6994.49
8787.02
8298.01
7411.94
6296.42
5114.11
3665.43
1775.46
-26.1281
-264.605
-282.659
-282.442
-282.532
-283.121
-283.842
-284.641
-285.488
-286.345
-287.188
-287.998
-288.766
-289.488
-290.162
-290.785
-291.357
-291.876
-292.342
-292.754
-293.113
-293.422
-293.683
-293.898
-294.07
-294.203
-294.301
-294.366
-294.401
-294.408
-294.391
-294.353
-294.297
-294.228
-294.146
-294.052
-293.947
-293.833
-293.718
-293.604
-293.497
-293.394
-293.29
-293.188
-293.094
-293.009
-292.93
-292.852
-292.782
-292.727
-292.682
-292.646
123442
128525
128491
128434
128351
128237
128084
127883
127619
127273
126820
126221
125425
124357
122901
120872
117951
113516
106128
92464.8
113266
118335
118296
118233
118141
118015
117847
117627
117339
116964
116472
115824
114961
113798
112204
109965
106700
101662
93322.4
78434.3
103117
108171
108129
108060
107961
107826
107647
107413
107109
106714
106200
105525
104632
103437
101814
99567.9
96380.5
91721.3
84717.5
73889.6
92998.7
98035.7
97991.4
97919.1
97815
97673.5
97486.8
97244.2
96930.9
96527.1
96005.1
95327.1
94440.3
93270
91710.4
89608.8
86742.9
82784.8
77261.6
69594.8
82911.1
87931.7
87885.8
87811
87703.7
87558.4
87367.7
87121.4
86805.7
86402.2
85886.1
85223.7
84369.7
83262.8
81820.4
79932.1
77451
74184.7
69898.9
64409.4
72855.6
77859.7
77813
77737
77628.3
77481.7
77290.2
77044.5
76732
76336.2
75835.6
75201.4
74396.6
73372.7
72068.3
70406.2
68292.9
65619.5
62274.5
58190.8
62832.6
67820.4
67773.6
67697.6
67589.1
67443.3
67253.8
67012.1
66707
66324.1
65845.1
65246.1
64497.3
63561.7
62394.2
60941.8
59145.4
56943.2
54280.8
51132.4
52841.8
57813.9
57767.8
57692.9
57586
57442.8
57257.4
57022.2
56727.3
56360.5
55906
55344.5
54652.3
53800.8
52757.3
51485.3
49947.3
48107.8
45939.4
43432.9
42882.6
47839.7
47795
47722.4
47618.4
47479.2
47299.4
47072.4
46789.5
46440.1
46011.1
45486.5
44847.2
44071.1
43133.4
42009.1
40674.6
39110.7
37303.8
35249.5
32953.4
37896.9
37854.9
37785.7
37685.7
37551.4
37378.4
37160.5
36890.2
36558.6
36154.5
35664.7
35073.2
34361.7
33510.5
32501.8
31323
29967.1
28429.6
26704.9
23050.9
27984.2
27946.9
27882.4
27787.1
27658.5
27492.7
27284.2
27026.5
26712
26331.6
25874.3
25326.1
24669.8
23886.5
22962.3
21896.1
20699.6
19375.8
17911.1
13165.9
18100.2
18071.9
18012.7
17922
17799.4
17641.1
17442
17196.2
16898
16540.4
16115
15609.9
15005.8
14276.5
13413.3
12435.4
11374.2
10242.3
9012.94
3257.09
8246.65
8230.67
8176.13
8090.74
7974.99
7824.94
7634.57
7399.16
7114.81
6776.72
6380.45
5923.55
5377.08
4669.85
3820.06
2941.28
2155.85
1499.06
985.295
-429.762
227.856
224.149
197.113
154.431
99.4817
35.4162
-35.8742
-111.143
-188.451
-266.065
-341.362
-412.741
-427.563
-426.854
-427.014
-426.715
-425.306
-421.212
-421.762
-439.152
-433.947
-433.97
-433.963
-433.945
-433.924
-433.905
-433.889
-433.88
-433.886
-433.917
-433.964
-433.94
-434.354
-434.578
-434.604
-434.48
-434.214
-433.857
-433.553
-448.817
-443.809
-443.814
-443.812
-443.808
-443.803
-443.801
-443.8
-443.8
-443.803
-443.805
-443.799
-443.783
-443.786
-443.808
-443.814
-443.797
-443.757
-443.7
-443.651
-458.607
-453.668
-453.659
-453.654
-453.65
-453.646
-453.644
-453.642
-453.64
-453.638
-453.633
-453.621
-453.602
-453.582
-453.572
-453.568
-453.565
-453.555
-453.535
-453.509
-468.426
-463.504
-463.496
-463.49
-463.485
-463.481
-463.478
-463.476
-463.473
-463.469
-463.462
-463.453
-463.439
-463.426
-463.415
-463.408
-463.402
-463.394
-463.38
-463.364
-478.251
-473.333
-473.327
-473.322
-473.318
-473.314
-473.311
-473.308
-473.305
-473.301
-473.296
-473.289
-473.28
-473.27
-473.262
-473.256
-473.25
-473.243
-473.234
-473.222
-488.076
-483.16
-483.155
-483.151
-483.148
-483.145
-483.143
-483.14
-483.138
-483.135
-483.131
-483.126
-483.121
-483.115
-483.11
-483.105
-483.101
-483.097
-483.091
-483.084
-497.902
-492.985
-492.981
-492.979
-492.977
-492.975
-492.973
-492.972
-492.971
-492.969
-492.967
-492.965
-492.962
-492.96
-492.958
-492.956
-492.955
-492.953
-492.952
-492.95
-507.722
-502.808
-502.806
-502.805
-502.804
-502.804
-502.804
-502.804
-502.804
-502.804
-502.804
-502.804
-502.804
-502.805
-502.806
-502.807
-502.809
-502.812
-502.815
-502.817
-517.528
-512.625
-512.628
-512.63
-512.631
-512.633
-512.634
-512.635
-512.637
-512.639
-512.641
-512.644
-512.646
-512.65
-512.654
-512.659
-512.665
-512.671
-512.679
-512.686
-527.315
-522.439
-522.449
-522.454
-522.458
-522.461
-522.464
-522.467
-522.47
-522.474
-522.478
-522.483
-522.488
-522.495
-522.502
-522.511
-522.52
-522.531
-522.543
-522.556
40077.5
39350.3
38449.3
38816.1
42318.7
48095.1
55093
62093.5
67975.2
71896.3
73309.2
71931.2
67421.4
58837.3
43091.9
48988.1
33343.3
28660.7
28659.2
31652.1
36818.4
43257.4
49780.6
55284
58927.6
60183
58780
54486.6
46924.4
35827.5
58022.7
39122.8
28252.9
24437.1
25388.4
29379.7
34854.9
40493.6
45186.6
48169.5
49031.1
47624.2
43933.8
38057
30422.2
59943.3
47743.3
37600.5
31306
28934.7
29629.8
32261.8
35433.1
38103.3
39617.8
39634.2
38038.4
34865.4
30292.8
24718
57645
49636.3
42255.6
36601.2
33090.4
31564.1
31506.1
32107.9
32648.5
32627.4
31734.3
29826.4
26900.8
23091
18680.5
53283.8
47530.3
41960.6
37190
33542.6
31051.1
29486.3
28457.9
27541.3
26386.7
24751.4
22506.9
19634.9
16216.3
12416.1
47435.1
43089.5
38719.2
34678.2
31193.2
28346.7
26044.3
24101.1
22280.4
20363.1
18184.8
15644.8
12699
9373.13
5803.66
40533.5
37117.6
33584
30132.5
26924.6
24021.6
21405.2
18993.3
16663.2
14277.9
11705.1
8855.97
5735.16
2499.74
335.728
32895.3
30114.2
27178.8
24206.8
21292.3
18492.7
15818.3
13225.5
10616.3
7881.31
4987.74
2118.76
194.215
-395.235
-366.741
24737.5
22403.3
19915.4
17342.6
14734.3
12121
9479.92
6763.87
3971.72
1499.61
-123.488
-390.57
-379.999
-383.966
-382.888
16250
14274.5
12145.6
9860.74
7453.96
4924.09
2478.48
779.035
-399.906
-391.743
-390.207
-393.665
-393.027
-392.764
-392.622
7567.34
5762.6
3863.2
2072.23
764.007
-349.689
-417.956
-397.505
-402.833
-404.296
-403.224
-403.081
-402.94
-402.8
-402.675
322.717
-305.165
-428.613
-414.037
-410.35
-413.122
-415.068
-413.7
-413.4
-413.343
-413.207
-413.081
-412.959
-412.844
-412.739
-422.248
-423.574
-424.955
-424.545
-423.632
-423.57
-423.572
-423.475
-423.376
-423.281
-423.177
-423.069
-422.962
-422.866
-422.782
-433.531
-433.68
-433.707
-433.683
-433.589
-433.531
-433.463
-433.388
-433.304
-433.217
-433.13
-433.043
-432.959
-432.881
-432.813
-443.623
-443.599
-443.558
-443.518
-443.468
-443.416
-443.357
-443.294
-443.227
-443.156
-443.085
-443.016
-442.95
-442.889
-442.836
-453.484
-453.456
-453.424
-453.389
-453.349
-453.306
-453.258
-453.207
-453.153
-453.097
-453.042
-452.988
-452.937
-452.892
-452.852
-463.344
-463.321
-463.296
-463.267
-463.235
-463.201