/*--------------------------------*- C++ -*----------------------------------*\
| =========                 |                                                 |
| \\      /  F ield         | OpenFOAM: The Open Source CFD Toolbox           |
|  \\    /   O peration     | Version:  v1912                                 |
|   \\  /    A nd           | Website:  www.openfoam.com                      |
|    \\/     M anipulation  |                                                 |
\*---------------------------------------------------------------------------*/
FoamFile
{
    version     2.0;
    format      ascii;
    class       volScalarField;
    location    "40";
    object      p_rgh;
}
// * * * * * * * * * * * * * * * * * * * * * * * * * * * * * * * * * * * * * //

dimensions      [1 -1 -2 0 0 0 0];


internalField   nonuniform List<scalar> 
20320
(
434736
434811
434838
434889
434961
435049
435151
435266
435389
435520
435653
435787
435917
436041
436157
436260
436350
436424
436480
436512
434623
434721
434756
434810
434882
434971
435075
435190
435314
435445
435578
435712
435842
435967
436082
436184
436272
436342
436392
436423
434399
434538
434573
434628
434700
434790
434893
435008
435132
435263
435396
435529
435659
435782
435895
435996
436082
436151
436200
436231
434090
434269
434304
434358
434430
434518
434621
434735
434859
434988
435120
435252
435380
435501
435612
435712
435796
435865
435915
435950
433709
433923
433957
434010
434081
434168
434269
434382
434504
434631
434761
434891
435017
435135
435244
435341
435424
435492
435543
435581
433266
433509
433542
433594
433663
433748
433847
433957
434076
434201
434328
434455
434578
434693
434799
434893
434974
435040
435091
435132
432770
433037
433069
433119
433186
433268
433363
433469
433584
433705
433828
433950
434069
434181
434283
434373
434450
434513
434564
434606
432231
432518
432548
432596
432659
432736
432827
432927
433036
433151
433268
433384
433496
433602
433698
433783
433855
433914
433963
434006
431659
431960
431989
432032
432091
432163
432246
432339
432440
432546
432653
432760
432864
432960
433048
433124
433189
433242
433287
433330
431062
431374
431399
431438
431491
431555
431630
431713
431802
431896
431991
432084
432174
432257
432331
432395
432448
432492
432531
432571
430450
430767
430788
430822
430867
430922
430985
431055
431130
431207
431284
431358
431428
431491
431545
431590
431626
431656
431685
431719
429831
430148
430166
430193
430228
430272
430321
430374
430429
430485
430538
430586
430628
430662
430687
430702
430712
430719
430732
430754
429214
429527
429540
429559
429584
429613
429645
429677
429709
429736
429757
429770
429773
429766
429747
429719
429687
429658
429645
429646
428606
428911
428918
428929
428941
428954
428966
428974
428976
428968
428949
428916
428866
428799
428717
428623
428526
428440
428382
428346
428015
428309
428309
428310
428309
428303
428292
428272
428240
428191
428122
428029
427909
427762
427589
427395
427196
427014
426880
426777
427447
427726
427720
427710
427694
427670
427634
427583
427511
427415
427286
427121
426912
426657
426355
426014
425653
425308
425036
424810
426907
427168
427156
427136
427105
427060
426999
426915
426802
426652
426457
426207
425890
425497
425021
424465
423847
423222
422686
422210
426400
426642
426623
426592
426547
426483
426395
426278
426122
425918
425652
425308
424867
424309
423610
422755
421745
420630
419562
418538
425929
426150
426125
426084
426025
425942
425830
425681
425485
425227
424891
424452
423881
423139
422179
420943
419371
417436
415254
412847
425495
425695
425664
425615
425543
425443
425309
425132
424899
424593
424192
423665
422971
422050
420821
419163
416897
413760
409397
403166
138036
138066
137586
137130
136545
135838
135092
133978
130079
127382
126002
124737
124649
121021
105247
100597
99007.2
99020.7
99283.4
99477.4
99946
100453
100625
122770
192607
149418
110918
82845.5
63616.1
50909.2
42844.8
37745.1
34800
33051.2
32212
31930.7
31160.1
30997.4
31459.6
31331.5
30552.1
30459.8
31461.9
31482.5
31377.1
31253.2
31130.6
31029.6
30965.1
30934.1
30927.1
30933.7
30948
30970.3
30997.8
31018.5
31018
30987.5
30930.5
30868.2
137819
137773
137523
137133
136453
135096
134499
133934
133265
129960
129142
127481
126253
120571
107104
98710.5
97924.8
97820.1
97801.9
97866.7
98003.9
98220.8
98373.5
109736
160425
133262
103523
79053.7
61450
49625
42002.3
37306.9
34622.1
33136.3
32213.2
31720.2
31597.8
31729.2
31589.9
31568.5
31720.8
32070.7
31931.7
31745.2
31570.3
31397.5
31239.1
31112.4
31030.8
30988.7
30975.3
30978.4
30990.1
31009.6
31036.2
31062.4
31075.2
31061.7
31013.1
30939.2
137565
137815
136216
136206
136984
136855
136448
135686
134415
132898
130820
128075
125661
123099
107878
99337.1
98199.2
97915
97805.2
97842.6
97955.7
98128.6
98122
129644
137522
119342
95502.1
74310.8
58502.8
47791.3
40916.5
36684.7
34242.2
32922.9
32170
31751.2
31660.2
31751.6
31711.3
31618.7
31799.4
32060.2
32069.6
31913.3
31722.7
31526.1
31338.1
31183.8
31086.5
31034.6
31016.9
31017.8
31027.8
31047.2
31077.5
31113.9
31141.3
31143.2
31101.3
31016.6
137535
137541
137954
133669
133415
135724
136599
136157
135191
133188
130100
127040
125974
122451
118537
113971
106317
97753.5
97776.5
97812.8
97892.7
98007.2
114462
118282
117256
104216
85210
67425.6
53887.4
44774.4
39025.1
35538.3
33557.8
32511.3
31972
31715.7
31683.3
31778.7
31814.2
31800
31902.5
32065.2
32091.7
31975.8
31799.2
31601.5
31390.6
31206.4
31100.1
31044.6
31029.1
31031.6
31041.3
31063.2
31101.7
31153.6
31196.5
31209.5
31169.9
31089.9
137426
133821
137560
138294
138341
134256
132987
136412
135950
134581
130803
130168
126390
121673
117713
117652
116414
98552.7
97743.6
97794.3
97837.7
112675
109051
103619
99202.6
88178.8
72805.8
58369.4
47520.3
40505.9
36290.7
33831.5
32513.3
31876.6
31617.6
31556.3
31623.9
31769
31879.4
31920
31978
32056.6
32069.9
31979.1
31828.3
31647.4
31415.7
31188.2
31082.8
31029.8
31024.6
31031.3
31039.3
31065
31116.7
31193
31254.3
31274.9
31227.6
31179
133046
130065
131847
133834
138133
138684
138661
138118
135981
134045
130078
129723
124195
122682
112450
108908
121541
105071
97661.4
97767.1
116468
108341
98289.2
90271.8
82738.9
71930.4
58720.3
47141.5
38959.7
34566.9
32471.9
31390.5
30984.3
30934.5
31061.8
31251.9
31461.2
31694.1
31918
32030.3
32050.7
32033.9
32018.8
31945
31836.8
31705.7
31432.1
31097.4
31030.6
30988.1
31018.4
31031.4
31024.6
31046.8
31113.1
31234.7
31321
31340.2
31214.7
31258.7
138482
138737
138833
139210
135951
138751
138988
138853
138164
130826
132960
132356
124102
125148
97055.8
91631.4
92872.9
95961.2
97552.1
121361
110801
99088.2
87853.4
77542.5
67454.1
55236.7
41894.2
24787.4
9314.17
6.61593
-5.36607
-10.0077
-13.0279
-15.4716
52.8283
396.052
1135.37
2161.17
3114.03
3950.94
5354.14
6174.18
6079.82
5057.33
3165.32
1837.49
965.311
546.434
423.397
360.846
357.629
393.036
469.142
553.544
680.26
905.122
1221.08
1495.29
1584.96
1914.05
136678
135969
136898
138250
139465
131315
137899
139540
139240
138530
136669
133852
127150
123704
90477.3
91470.7
92438.5
94583.2
126088
114762
102551
89965
77443.9
65209.3
52233.7
22321
33.4009
23.4933
11.8962
6.07534
-3.49655
-8.38261
-11.8329
-15.0192
-18.4551
-17.0163
-15.2364
-14.3838
-13.5693
-12.5396
-11.3968
-10.2036
-9.09233
-8.11264
-7.14926
-6.19246
-5.00774
-3.93216
-3.53263
-3.60033
-4.01658
-4.60099
-5.01747
-5.28229
-5.49207
-5.59357
-5.41173
-4.88994
-4.1405
-3.63431
129887
138318
132661
139484
139716
140236
131385
139934
140126
139203
137772
135065
130419
89979
89979.1
91014.7
91890.4
128340
119327
107388
94382.8
80830.9
67026
52494.3
3378.33
27.8664
19.8629
12.9123
3.96213
-1.17159
-6.96444
-10.7732
-13.3644
-15.3887
-17.3563
-17.5199
-16.3344
-15.2066
-14.0668
-12.8768
-11.8318
-10.8961
-9.94104
-8.91575
-7.79769
-6.68317
-5.54962
-4.58207
-4.14578
-4.14526
-4.47315
-4.94633
-5.32629
-5.55466
-5.66761
-5.64583
-5.38998
-4.86427
-4.13306
-3.48105
119873
137738
139402
139651
139623
140529
134765
127051
141025
140244
138652
136202
125754
88284.4
89420.3
90556.2
129090
123618
113001
100217
86277.8
71634.6
55719.2
37.8048
15.0186
14.8544
8.58881
2.92544
-2.75799
-6.73031
-10.3488
-12.9612
-14.7256
-15.9846
-17.107
-17.4451
-16.7919
-15.776
-14.6187
-13.4129
-12.3024
-11.2879
-10.2864
-9.24786
-8.15896
-7.08089
-6.05581
-5.22254
-4.78516
-4.73
-4.96322
-5.33407
-5.66238
-5.86735
-5.9412
-5.85853
-5.55879
-5.01518
-4.27695
-3.51268
118467
124250
139592
138192
135358
138070
141701
141948
142034
139926
139146
137397
89918.1
87578.3
88893.4
127200
129613
119292
107135
93192.4
78147.3
61607.7
43.5942
12.8719
6.07373
3.49904
-1.1549
-4.98753
-8.55917
-11.3718
-13.5904
-15.1554
-16.1432
-16.7509
-17.2277
-17.3975
-16.9713
-16.1153
-15.0273
-13.8491
-12.7127
-11.6519
-10.6207
-9.57643
-8.51691
-7.48728
-6.55023
-5.81456
-5.39585
-5.30418
-5.46236
-5.74654
-6.01629
-6.18749
-6.22462
-6.0957
-5.75831
-5.18886
-4.41891
-3.54751
113165
110893
139922
140302
140898
137667
142164
140876
137151
141538
139749
130755
84534.8
86331.2
97293.5
137779
127299
115181
101375
86150.6
69634.1
65.5982
13.2999
5.8334
-1.15899
-4.83361
-8.13236
-10.8403
-13.1934
-15.052
-16.3318
-17.0997
-17.4478
-17.5393
-17.5471
-17.4501
-17.0414
-16.2899
-15.2934
-14.1768
-13.0576
-11.9843
-10.9381
-9.89698
-8.86664
-7.8906
-7.03052
-6.36598
-5.97337
-5.8572
-5.95656
-6.16742
-6.37907
-6.51141
-6.51473
-6.35103
-5.98286
-5.38864
-4.58008
-3.60781
131250
113384
140129
140353
141168
141412
135654
138700
144263
143667
140475
97852.7
83790.8
85695.6
145556
136383
124665
110836
95534.3
78708.9
4410.22
14.9734
7.20949
-1.21477
-6.94144
-10.4496
-12.9676
-14.97
-16.609
-17.7894
-18.4343
-18.6359
-18.5194
-18.2326
-17.9036
-17.5599
-17.0773
-16.3684
-15.4527
-14.4109
-13.3344
-12.2725
-11.2301
-10.2037
-9.20882
-8.28793
-7.49508
-6.88981
-6.52004
-6.38484
-6.43388
-6.58199
-6.74015
-6.83438
-6.80865
-6.6192
-6.22991
-5.61634
-4.77431
-3.72123
132156
138181
140362
137788
140415
142053
138225
144238
145016
144376
142788
98143.9
82540
108401
145965
134788
121492
106267
89364.3
17459.8
3.79376
4.5568
-1.31133
-7.2902
-11.5703
-14.2729
-16.2177
-17.7948
-18.954
-19.6419
-19.8581
-19.6947
-19.2812
-18.7486
-18.1987
-17.6713
-17.0984
-16.3957
-15.5412
-14.5716
-13.5485
-12.5176
-11.4971
-10.4989
-9.54569
-8.67772
-7.94196
-7.38336
-7.03103
-6.87956
-6.88518
-6.97955
-7.09029
-7.15047
-7.10207
-6.89638
-6.49463
-5.86935
-5.00559
-3.89089
123490
139836
135397
139947
141814
141752
143200
143454
145315
145244
148850
90935.4
80091.6
146471
144487
132492
118074
101744
60455.1
14.7143
2.55434
-3.00588
-7.85202
-12.1186
-15.0196
-16.9656
-18.4604
-19.6093
-20.3684
-20.7112
-20.6584
-20.2887
-19.7164
-19.0519
-18.3789
-17.7383
-17.0972
-16.3902
-15.5803
-14.6744
-13.709
-12.7225
-11.7389
-10.7805
-9.87342
-9.05502
-8.36724
-7.84307
-7.50161
-7.33402
-7.30242
-7.352
-7.42263
-7.45446
-7.3894
-7.17653
-6.77295
-6.14703
-5.27456
-4.12588
130289
127294
120691
141683
142311
142851
142132
132266
145174
141452
146579
58558.2
63060.9
156652
142979
130116
114965
97012.3
77.197
1.24246
-2.87033
-8.75627
-12.742
-15.7015
-17.5906
-18.8957
-19.8913
-20.623
-21.0514
-21.1526
-20.942
-20.4795
-19.8513
-19.1439
-18.4257
-17.7353
-17.0592
-16.353
-15.5794
-14.7291
-13.8218
-12.8871
-11.9511
-11.0401
-10.1813
-9.40993
-8.76184
-8.26258
-7.92649
-7.74332
-7.68073
-7.69399
-7.7319
-7.74089
-7.66587
-7.45434
-7.06006
-6.44576
-5.57929
-4.41643
85194.9
128087
127470
142171
142787
142825
143874
133978
127864
132617
107484
56092.4
93135.2
153541
141560
128123
112255
29052.2
0.105442
-1.05365
-7.84355
-12.9071
-16.3025
-18.2801
-19.3936
-20.1336
-20.672
-21.0365
-21.1966
-21.1284
-20.8365
-20.3551
-19.7388
-19.0497
-18.3422
-17.6498
-16.9707
-16.2774
-15.5385
-14.7391
-13.8888
-13.0103
-12.1276
-11.2677
-10.4577
-9.72986
-9.11502
-8.63521
-8.3016
-8.10457
-8.01728
-8.00163
-8.01306
-8.00538
-7.92713
-7.72472
-7.34981
-6.75959
-5.91361
-4.76
76763.2
89027.4
140967
142794
77977
143606
144524
126820
127384
146127
145389
50792.2
131227
152021
140156
126674
109589
69.1793
-0.589286
-5.90632
-11.6825
-16.0811
-18.7105
-19.9199
-20.481
-20.7797
-20.9507
-21.0195
-20.9724
-20.7914
-20.4668
-20.0072
-19.4395
-18.8045
-18.1419
-17.4796
-16.8226
-16.1555
-15.454
-14.7037
-13.9099
-13.0889
-12.2623
-11.4554
-10.6937
-10.0063
-9.42051
-8.95673
-8.62499
-8.41727
-8.31058
-8.27127
-8.26207
-8.24358
-8.16827
-7.98261
-7.63577
-7.08078
-6.27011
-5.14435
65901.1
77659.4
143939
102168
66233.2
144572
145257
144997
146232
145763
116473
47798.4
149545
149285
139004
125734
45862.6
-3.95403
-3.18606
-9.63892
-14.6439
-18.2324
-20.0454
-20.7489
-20.9537
-20.9489
-20.8522
-20.7059
-20.5173
-20.2693
-19.94
-19.5192
-19.0136
-18.4467
-17.8446
-17.2306
-16.6124
-15.982
-15.322
-14.6214
-13.8834
-13.1202
-12.3506
-11.5972
-10.883
-10.2336
-9.67477
-9.22625
-8.89743
-8.68161
-8.55894
-8.50071
-8.47572
-8.45172
-8.38521
-8.22248
-7.91116
-7.40101
-6.6384
-5.55929
141476
137574
116674
63937.9
64145.5
146403
146812
146571
146189
144131
51052.6
33364.9
156779
147930
138559
125192
2347.22
0.989052
-6.504
-12.2293
-16.6143
-19.2886
-20.5228
-20.9327
-20.9317
-20.7427
-20.4796
-20.2039
-19.935
-19.6554
-19.3366
-18.9575
-18.513
-18.0132
-17.4747
-16.9162
-16.3449
-15.7573
-15.142
-14.4916
-13.8084
-13.1025
-12.3901
-11.6899
-11.0223
-10.4101
-9.87773
-9.44458
-9.11967
-8.89776
-8.7619
-8.6884
-8.65233
-8.62719
-8.57353
-8.43857
-8.16893
-7.71164
-7.00818
-5.99087
139146
106448
138406
77475.3
135060
149031
122648
147804
146963
145447
20267.3
68282.2
152979
147745
138983
122034
10.9374
-2.25424
-8.69026
-13.8982
-17.4666
-19.4579
-20.3634
-20.6233
-20.5284
-20.2536
-19.9138
-19.5832
-19.2868
-19.0067
-18.7096
-18.3702
-17.9788
-17.5375
-17.0577
-16.5529
-16.0292
-15.4864
-14.9166
-14.3156
-13.6858
-13.0363
-12.3801
-11.7322
-11.1105
-10.5353
-10.0299
-9.61272
-9.2929
-9.06677
-8.9202
-8.83487
-8.79148
-8.76815
-8.72975
-8.62553
-8.40182
-8.00348
-7.36815
-6.42528
21825.8
109180
90645
111038
131900
120888
114251
149456
148499
108137
17866.8
121425
153421
148434
140406
39182.4
-0.648046
-4.12585
-10.1705
-14.5622
-17.4185
-19.0006
-19.7411
-19.9556
-19.846
-19.5572
-19.2075
-18.8825
-18.6079
-18.3534
-18.0851
-17.7831
-17.4366
-17.044
-16.6141
-16.156
-15.6767
-15.1766
-14.6506
-14.097
-13.5186
-12.9238
-12.3219
-11.7252
-11.1491
-10.6111
-10.1332
-9.73274
-9.41938
-9.19098
-9.03627
-8.94201
-8.89369
-8.87354
-8.85084
-8.77797
-8.60189
-8.26647
-7.70667
-6.84952
10518.1
11459.2
24052.9
66048.7
23499.8
10716.1
122003
151804
148520
11796.9
13981.4
152005
154404
150306
142838
2402.58
0.310335
-6.15391
-10.821
-14.431
-16.7643
-18.1188
-18.8075
-19.0421
-18.9657
-18.7125
-18.4198
-18.1643
-17.9331
-17.7054
-17.4624
-17.1916
-16.8825
-16.5337
-16.1492
-15.7349
-15.2967
-14.8359
-14.3505
-13.8411
-13.3114
-12.7682
-12.2184
-11.672
-11.141
-10.6404
-10.1905
-9.80775
-9.50251
-9.27411
-9.11377
-9.01267
-8.96044
-8.94284
-8.93407
-8.89051
-8.76087
-8.48985
-8.01211
-7.25186
10600.9
10446.5
77981.9
91541.6
32677.5
10055.5
10137.1
18151.3
10764.2
11220
11248.7
158093
156955
153389
146825
20.27
-2.76532
-6.85046
-10.8433
-13.7684
-15.7435
-16.9839
-17.6834
-17.97
-17.9613
-17.8096
-17.6285
-17.444
-17.255
-17.0566
-16.8405
-16.5984
-16.3223
-16.0097
-15.6623
-15.2866
-14.8886
-14.4679
-14.0224
-13.5547
-13.0697
-12.5744
-12.074
-11.5764
-11.0897
-10.6265
-10.2052
-9.84155
-9.54657
-9.32055
-9.15685
-9.05009
-8.99332
-8.97603
-8.97709
-8.95762
-8.86983
-8.66215
-8.27241
-7.62263
11425.8
14814.5
11962.8
28705.7
27315.8
10011.3
10067
12017.5
10528.4
10778.3
95762.9
161829
160944
157607
72981
-11.3791
-3.28209
-7.31375
-10.3791
-12.7983
-14.5375
-15.7255
-16.4589
-16.817
-16.9158
-16.8949
-16.8133
-16.6979
-16.5579
-16.3971
-16.2141
-16.003
-15.7585
-15.4791
-15.1671
-14.8283
-14.4654
-14.0776
-13.6673
-13.2394
-12.7978
-12.3478
-11.8938
-11.4422
-10.9985
-10.5725
-10.1805
-9.8378
-9.55553
-9.3343
-9.169
-9.05665
-8.99352
-8.97282
-8.97759
-8.974
-8.91986
-8.77124
-8.475
-7.95464
12092.8
14884
10972.5
9858.29
9951.09
9931.05
10844.3
11757.9
10321.4
10677.9
157715
167435
166110
162808
16559.1
4.34954
-4.34813
-7.0567
-9.62608
-11.6883
-13.2718
-14.4328
-15.2076
-15.6432
-15.8673
-15.9609
-15.9725
-15.9279
-15.8431
-15.7263
-15.5802
-15.4025
-15.1905
-14.9447
-14.6674
-14.3631
-14.0336
-13.6798
-13.3044
-12.9103
-12.5031
-12.0914
-11.6797
-11.2714
-10.8692
-10.4801
-10.1183
-9.79872
-9.53158
-9.31715
-9.15134
-9.03268
-8.9609
-8.93241
-8.93335
-8.93518
-8.90326
-8.80516
-8.60484
-8.24063
10021.8
9950.32
9950.1
9859.76
10006.8
9886.65
10061.9
10082.1
10121.3
9907.99
174953
173936
172197
169204
13.0367
-4.0915
-4.5146
-6.68142
-8.75992
-10.5548
-12.025
-13.1696
-13.9732
-14.493
-14.8229
-15.0188
-15.1168
-15.1429
-15.1152
-15.0456
-14.9397
-14.7971
-14.6188
-14.4064
-14.1629
-13.8924
-13.5964
-13.276
-12.9333
-12.5725
-12.2006
-11.8235
-11.4441
-11.0686
-10.7021
-10.3483
-10.0176
-9.72307
-9.473
-9.267
-9.10142
-8.976
-8.89378
-8.85354
-8.84318
-8.83916
-8.81541
-8.75274
-8.64048
-8.46643
9860.74
9848.98
10628.7
9873.65
9827.12
9898.08
9949.21
9956.74
9997.85
117810
182022
180993
178906
138732
-18.2588
-2.06926
-4.39981
-6.12322
-7.87692
-9.46682
-10.8462
-11.9676
-12.7848
-13.377
-13.7973
-14.0804
-14.2561
-14.3493
-14.3789
-14.3578
-14.2934
-14.1874
-14.0436
-13.8647
-13.655
-13.4177
-13.1545
-12.8663
-12.5554
-12.2273
-11.8884
-11.5433
-11.1957
-10.8501
-10.5102
-10.1828
-9.87918
-9.60911
-9.37659
-9.17987
-9.01531
-8.88359
-8.79046
-8.73589
-8.70823
-8.68823
-8.65745
-8.60689
-8.54834
-8.58208
9808.46
14037.1
11197.9
9758.35
9785.81
9820.82
9860.88
9948.97
10026.5
188141
189760
188417
186043
41121.2
2.42104
-2.80255
-3.98973
-5.49387
-7.02076
-8.45664
-9.75855
-10.8213
-11.6582
-12.3084
-12.7997
-13.1548
-13.3992
-13.5545
-13.6391
-13.6661
-13.6432
-13.5747
-13.4657
-13.3206
-13.1444
-12.9396
-12.7085
-12.4512
-12.1711
-11.8744
-11.5664
-11.2519
-10.9343
-10.6163
-10.3019
-9.99735
-9.71408
-9.46283
-9.24484
-9.05642
-8.89318
-8.75618
-8.65276
-8.58276
-8.53415
-8.4909
-8.43956
-8.37328
-8.2953
-8.23597
9786.9
13938.6
9702.51
9717.19
9745.09
9784.41
9987.15
9846.18
39018.8
198522
197707
196073
193672
606.738
-2.04552
-2.57896
-3.49872
-4.83939
-6.20946
-7.53329
-8.74745
-9.76311
-10.6066
-11.2951
-11.8376
-12.2508
-12.5534
-12.7648
-12.9007
-12.9741
-12.9918
-12.9606
-12.8864
-12.7752
-12.6316
-12.4589
-12.2588
-12.0312
-11.7809
-11.514
-11.2354
-10.9501
-10.6604
-10.3688
-10.0788
-9.7961
-9.53129
-9.29428
-9.08646
-8.90393
-8.7415
-8.60017
-8.48752
-8.40221
-8.33171
-8.2621
-8.18275
-8.08457
-7.9537
-7.75426
11481.2
10553.6
9663.65
9685.59
9707.8
9886.13
9950.68
9848.04
186025
206880
205809
203833
189036
-9.91143
-0.615716
-1.89196
-2.95719
-4.19894
-5.45366
-6.6894
-7.79723
-8.77736
-9.62617
-10.3378
-10.917
-11.3748
-11.726
-11.9862
-12.169
-12.2851
-12.342
-12.3468
-12.3072
-12.2291
-12.1174
-11.9763
-11.8057
-11.6068
-11.3854
-11.147
-10.8966
-10.6385
-10.3751
-10.1086
-9.84217
-9.58052
-9.33324
-9.10938
-8.90978
-8.73117
-8.56892
-8.4242
-8.30377
-8.20476
-8.11449
-8.02073
-7.91479
-7.78708
-7.61821
-7.37851
10505.2
9799.07
9839.13
9660.5
9678.46
9842.6
9767.09
15544.3
216197
215424
213976
211680
54396.4
0.994165
-0.634516
-1.36788
-2.40118
-3.57816
-4.75456
-5.89555
-6.93385
-7.8774
-8.7165
-9.438
-10.0415
-10.5327
-10.9232
-11.2245
-11.4485
-11.6033
-11.6965
-11.736
-11.7297
-11.6834
-11.6032
-11.4923
-11.3499
-11.1789
-10.9853
-10.7745
-10.5508
-10.3182
-10.0798
-9.83722
-9.59294
-9.35123
-9.12093
-8.91013
-8.71951
-8.5454
-8.38332
-8.23598
-8.10972
-8.00031
-7.89569
-7.7855
-7.66387
-7.52607
-7.36278
-7.18385
12108.5
12058.8
9596.77
9628.27
9652.28
9693.77
9754.11
198576
224941
223949
222138
219849
100.999
-1.13656
-0.167725
-0.753595
-1.84071
-2.98051
-4.10138
-5.14365
-6.13229
-7.05003
-7.87497
-8.59723
-9.21443
-9.72954
-10.1504
-10.4857
-10.7442
-10.9327
-11.0591
-11.1311
-11.1559
-11.1402
-11.0903
-11.0078
-10.8924
-10.7485
-10.5818
-10.3972
-10.1988
-9.99064
-9.77597
-9.5558
-9.33213
-9.10916
-8.89539
-8.69801
-8.51734
-8.34965
-8.19025
-8.04214
-7.91219
-7.79651
-7.68465
-7.5687
-7.44678
-7.32271
-7.20122
-7.09934
10342.6
9538.05
9556.13
9593.7
9630.23
9655.53
34511.8
234609
233875
232434
230283
183408
-10.5166
2.32558
0.81422
-0.144657
-1.30237
-2.41255
-3.46775
-4.45593
-5.40123
-6.28793
-7.09536
-7.81321
-8.43665
-8.96795
-9.41084
-9.77291
-10.0594
-10.2769
-10.433
-10.5344
-10.5883
-10.6016
-10.5798
-10.5239
-10.4343
-10.3163
-10.1754
-10.0159
-9.84169
-9.65693
-9.46453
-9.26524
-9.06097
-8.85571
-8.658
-8.47424
-8.30432
-8.1444
-7.98965
-7.84415
-7.71479
-7.59763
-7.48446
-7.37036
-7.25616
-7.14765
-7.04428
-6.95327
9520.96
9521.36
9536.11
9570.28
9599.5
9660.72
231878
243763
242666
240871
238505
30993.2
5.86176
2.13449
1.41913
0.333689
-0.806009
-1.87547
-2.8568
-3.81086
-4.72668
-5.58567
-6.37398
-7.08261
-7.70712
-8.24701
-8.7058
-9.08742
-9.39628
-9.63851
-9.82073
-9.94864
-10.0293
-10.0693
-10.0733
-10.0418
-9.97646
-9.88319
-9.76692
-9.63139
-9.48002
-9.3174
-9.14597
-8.9666
-8.781
-8.59259
-8.41039
-8.24013
-8.08107
-7.92975
-7.78129
-7.64009
-7.5139
-7.39934
-7.28903
-7.17941
-7.07223
-6.97335
-6.88324
-6.80656
9517.07
9519.04
9523.1
9536.65
9586.31
148125
253702
252848
251325
249269
247291
6.31911
3.25705
2.72489
1.88515
0.750551
-0.341696
-1.34939
-2.29598
-3.21676
-4.10361
-4.9369
-5.70583
-6.40189
-7.02243
-7.56578
-8.03405
-8.42984
-8.75689
-9.01995
-9.22436
-9.37607
-9.48079
-9.54483
-9.57206
-9.56273
-9.52018
-9.45042
-9.35738
-9.24418
-9.11423
-8.97262
-8.82125
-8.66118
-8.49359
-8.32136
-8.15412
-7.99678
-7.84826
-7.70586
-7.56486
-7.42984
-7.30887
-7.19859
-7.0924
-6.98812
-6.8886
-6.79988
-6.72257
-6.65911
9509.73
9516.68
9518.24
9493.27
28310
263894
263037
261721
259951
257735
77793.1
0.941834
3.67313
3.16799
2.26035
1.14459
0.100471
-0.846426
-1.77055
-2.66971
-3.52961
-4.33785
-5.08552
-5.76755
-6.37985
-6.92228
-7.39556
-7.80144
-8.14245
-8.42221
-8.64573
-8.81773
-8.94381
-9.02926
-9.07698
-9.08817
-9.06751
-9.01962
-8.94778
-8.85521
-8.74557
-8.62401
-8.49182
-8.35018
-8.1997
-8.0432
-7.89034
-7.74504
-7.60656
-7.47339
-7.34093
-7.21342
-7.09885
-6.99416
-6.89328
-6.79505
-6.7033
-6.62401
-6.5572
-6.50382
9491.62
9518.61
9539.54
9461.53
274197
273309
272076
270542
268624
266683
21.0821
2.78484
3.72872
3.45647
2.53726
1.50045
0.522198
-0.397048
-1.29615
-2.17109
-3.00425
-3.78645
-4.51166
-5.17619
-5.77782
-6.31562
-6.79008
-7.20204
-7.553
-7.84586
-8.08497
-8.27443
-8.41928
-8.52308
-8.58922
-8.61992
-8.6197
-8.59175
-8.53933
-8.46614
-8.37583
-8.27305
-8.15888
-8.03443
-7.90002
-7.75877
-7.61949
-7.48531
-7.35677
-7.23328
-7.11012
-6.99106
-6.88362
-6.78518
-6.69033
-6.59852
-6.51448
-6.44415
-6.3863
-6.34034
9461.63
9501.11
9481.81
282335
283582
282434
281103
279430
277371
100368
0.557929
3.76103
4.00728
3.55942
2.71869
1.78804
0.885733
-0.00541353
-0.88064
-1.72612
-2.52917
-3.28304
-3.98369
-4.62882
-5.21683
-5.74687
-6.21864
-6.6329
-6.98953
-7.29231
-7.54352
-7.74775
-7.90793
-8.02746
-8.11047
-8.15913
-8.17743
-8.16783
-8.1337
-8.07872
-8.00632
-7.92086
-7.82345
-7.7149
-7.59549
-7.46864
-7.34187
-7.21826
-7.10005
-6.98679
-6.87326
-6.76276
-6.66244
-6.57068
-6.4828
-6.39794
-6.3212
-6.25874
-6.2082
-6.16788
69158.9
50071.8
294957
294071
292956
291774
290325
288435
286633
22.0541
4.00046
4.21727
4.12762
3.5387
2.81747
2.01831
1.17112
0.314134
-0.528366
-1.33844
-2.10645
-2.82864
-3.5022
-4.12576
-4.69738
-5.21636
-5.68232
-6.09458
-6.45398
-6.76285
-7.02306
-7.23836
-7.41041
-7.54387
-7.64184
-7.70649
-7.74144
-7.74862
-7.73164
-7.69346
-7.63758
-7.5682
-7.48627
-7.39244
-7.28708
-7.17362
-7.05835
-6.94502
-6.8376
-6.73493
-6.63088
-6.52842
-6.43473
-6.34997
-6.27008
-6.19272
-6.12288
-6.06733
-6.02266
-5.98634
425100
425278
425243
425186
425103
424989
424837
424635
424371
424026
423572
422973
422178
421110
419653
417625
414703
410269
402881
389217
424733
424897
424858
424795
424703
424577
424410
424190
423902
423526
423035
422386
421523
420361
418767
416527
413262
408224
399885
384997
424395
424543
424501
424433
424334
424199
424020
423786
423482
423087
422572
421897
421005
419810
418187
415940
412753
408094
401090
390262
424086
424218
424174
424102
423997
423856
423669
423427
423113
422710
422188
421510
420623
419453
417893
415791
412925
408967
403444
395777
423809
423924
423878
423803
423696
423551
423360
423114
422798
422395
421879
421216
420362
419255
417813
415925
413443
410177
405891
400402
423563
423662
423615
423539
423431
423284
423093
422847
422534
422139
421638
421004
420199
419175
417871
416209
414095
411422
408077
403993
423350
423433
423386
423310
423202
423056
422866
422625
422319
421937
421458
420859
420110
419174
418007
416554
414758
412556
409893
406745
423169
423236
423190
423115
423008
422865
422680
422445
422150
421783
421329
420767
420075
419223
418180
416908
415370
413530
411362
408855
423020
423072
423028
422955
422851
422712
422532
422305
422022
421673
421244
420719
420080
419304
418366
417242
415907
414343
412536
410482
422901
422939
422897
422828
422728
422594
422421
422203
421933
421601
421197
420707
420116
419404
418553
417544
416365
415010
413472
411747
422808
422837
422799
422735
422640
422511
422345
422137
421879
421565
421184
420727
420179
419522
418739
417815
416749
415552
414228
412764
422733
422763
422734
422675
422585
422462
422304
422104
421859
421561
421203
420777
420272
419668
418939
418076
417098
416037
414905
413675
422635
422719
422703
422649
422563
422447
422297
422107
421872
421587
421249
420853
420396
419850
418931
413311
396712
366826
322487
248409
-0.57466
114025
113562
108920
101575
92061.6
80948.4
68520.1
55371.1
41830.3
28197.9
14924.8
1338.23
-3.28018
-2.57145
-2.7316
-2.43277
-1.02313
3.07082
2.52098
-0.154819
0.145298
0.122886
0.129125
0.147846
0.168358
0.187329
0.203547
0.212649
0.206886
0.175405
0.128705
0.152796
-0.261763
-0.485094
-0.511777
-0.387854
-0.12138
0.235099
0.539188
-0.00906725
0.093281
0.0881814
0.0901268
0.094894
0.0991716
0.101836
0.102907
0.102153
0.0998448
0.0979855
0.103407
0.119435
0.116433
0.0945886
0.0885171
0.105391
0.145858
0.202255
0.251037
0.0105382
0.0440823
0.0531198
0.0582136
0.0628584
0.0665417
0.068991
0.0705836
0.0720048
0.0744619
0.079942
0.0912089
0.110929
0.130641
0.140192
0.144224
0.1479
0.157617
0.177897
0.203997
0.00116166
0.0187609
0.0268278
0.0323713
0.0372444
0.0412638
0.0443511
0.0469262
0.0497185
0.0537106
0.0600518
0.0698258
0.0831538
0.0969931
0.107478
0.114567
0.120572
0.128968
0.142005
0.158944
-0.0133802
-0.000404724
0.00554143
0.0103946
0.0146899
0.0183813
0.0214719
0.0242669
0.0272993
0.0312138
0.0366301
0.0439147
0.0527988
0.0620561
0.0701384
0.0767309
0.0827233
0.089675
0.0987853
0.110281
-0.0288574
-0.0176639
-0.012719
-0.00880762
-0.00544453
-0.00255638
-8.73478e-05
0.00218302
0.00459499
0.00753413
0.0113292
0.0161111
0.0216611
0.0273874
0.032636
0.0371763
0.0413276
0.0457833
0.0512394
0.0581065
-0.0442165
-0.0329548
-0.0288832
-0.0262257
-0.0241151
-0.0223999
-0.020978
-0.0197037
-0.0183992
-0.0168647
-0.014938
-0.0125723
-0.00990986
-0.00728091
-0.00504662
-0.00337684
-0.00214428
-0.000974562
0.000578631
0.0028534
-0.0542678
-0.0454735
-0.0430491
-0.0422156
-0.0417347
-0.0414877
-0.0414009
-0.0414241
-0.0415177
-0.0416209
-0.0416811
-0.0417063
-0.0418027
-0.0421818
-0.0430925
-0.0446799
-0.0468852
-0.0494714
-0.0521464
-0.0546791
-0.0508575
-0.0529596
-0.055024
-0.0570195
-0.0586101
-0.0600462
-0.0614572
-0.0629504
-0.0646115
-0.066484
-0.0685997
-0.0710148
-0.0738318
-0.0772133
-0.0813541
-0.0863848
-0.0922876
-0.098924
-0.106119
-0.113721
-0.0273005
-0.056814
-0.0664524
-0.071801
-0.0754703
-0.0784892
-0.0813365
-0.0842994
-0.0875563
-0.0912267
-0.0954143
-0.100216
-0.10574
-0.112131
-0.11955
-0.128116
-0.137858
-0.148731
-0.160669
-0.173589
336830
336103
335202
335569
339071
344848
351845
358846
364728
368649
370062
368684
364174
355590
339844
355551
339906
335223
335222
338215
343381
349820
356343
361847
365490
366745
365342
361049
353487
342390
374395
355495
344625
340810
341761
345752
351227
356866
361559
364542
365404
363997
360306
354429
346795
386126
373926
363783
357488
355117
355812
358444
361616
364286
365800
365817
364221
361048
356475
350900
393637
385629
378248
372594
369083
367557
367499
368100
368641
368620
367727
365819
362893
359084
354673
399086
393333
387763
382993
379345
376854
375289
374260
373344
372189
370554
368309
365437
362019
358219
403048
398702
394332
390291
386806
383959
381657
379714
377893
375976
373797
371257
368312
364986
361416
405956
402540
399006
395555
392347
389444
386828
384416
382086
379700
377128
374278
371158
359801
158078
408128
405347
402411
399439
396525
393725
391051
388458
385849
383114
380220
357404
136891
-20.0023
8.49161
409780
407446
404958
402385
399777
397164
394522
391806
389014
332306
60181.5
-5.52752
5.04305
1.07689
2.15446
411102
409127
406998
404713
402306
399777
384738
233238
-5.05374
3.10923
4.64508
1.18764
1.82573
2.08823
2.23057
412230
410425
407417
366134
224254
10785.2
-13.293
7.15768
1.82949
0.366866
1.43866
1.58178
1.72215
1.86244
1.98707
139660
22333.6
-14.1408
0.435211
4.12254
1.3503
-0.595498
0.772198
1.07263
1.1294
1.26519
1.39127
1.51344
1.62812
1.73361
2.03482
0.708191
-0.672358
-0.262912
0.650362
0.712621
0.710244
0.807093
0.906378
1.00186
1.10508
1.21335
1.32028
1.41619
1.50067
0.561485
0.41238
0.385654
0.40927
0.50315
0.561299
0.629806
0.704521
0.788016
0.875232
0.962316
1.04915
1.13394
1.21154
1.2792
0.279274
0.303732
0.344022
0.384512
0.434647
0.486932
0.545908
0.608469
0.67557
0.746321
0.81747
0.886787
0.952974
1.01367
1.06633
0.228648
0.256347
0.288894
0.323917
0.363155
0.406725
0.454561
0.505886
0.559599
0.615071
0.670848
0.724846
0.77531
0.820888
0.860033
0.178253
0.201105
0.22694
0.255675
0.287012
0.321148
0.35816
0.397755
0.438994
0.480945
0.522619
0.562636
0.599508
0.631987
0.659085
0.124208
0.141397
0.160771
0.182213
0.20546
0.230376
0.256952
0.285101
0.314347
0.343866
0.372722
0.400001
0.424743
0.445893
0.462597
0.0667289
0.0777319
0.0903023
0.104191
0.119146
0.134976
0.151524
0.168754
0.186498
0.20419
0.22122
0.236964
0.250701
0.26179
0.269388
0.00609995
0.0106299
0.0160962
0.0222604