/*--------------------------------*- C++ -*----------------------------------*\
| =========                 |                                                 |
| \\      /  F ield         | OpenFOAM: The Open Source CFD Toolbox           |
|  \\    /   O peration     | Version:  v1912                                 |
|   \\  /    A nd           | Website:  www.openfoam.com                      |
|    \\/     M anipulation  |                                                 |
\*---------------------------------------------------------------------------*/
FoamFile
{
    version     2.0;
    format      ascii;
    class       surfaceScalarField;
    location    "40";
    object      phi;
}
// * * * * * * * * * * * * * * * * * * * * * * * * * * * * * * * * * * * * * //

dimensions      [0 3 -1 0 0 0 0];
oriented        oriented;


internalField   nonuniform List<scalar> 
40282
(
0.00279823
0.00264924
1.9193
-1.92593
1.92036
0.00557025
-1.91129
1.89912
0.012176
-1.88392
1.86583
0.0180917
-1.8448
1.82095
0.0238536
-1.79428
1.76492
0.0293579
-1.73289
1.69826
0.034626
-1.66109
1.62147
0.0396184
-1.57944
1.53505
0.0443936
-1.48836
1.43943
0.0489334
-1.38836
1.33515
0.0532086
-1.27998
1.22284
0.0571409
-1.16395
1.10315
0.0607955
-1.04075
0.976643
0.0641107
-0.911198
0.844128
0.0670708
-0.775774
0.705559
0.0702154
-0.634023
0.560536
0.0734871
-0.485513
0.407916
0.0775969
-0.328002
0.244362
0.0836407
-0.157141
0.0642427
0.092898
-0.00422439
0.00560167
1.85441
-1.84995
1.84299
-0.0140931
0.0210459
-1.83332
1.82087
-0.0256196
0.038062
-1.80566
1.78769
-0.0369152
0.0548895
-1.76699
1.7436
-0.0479693
0.0713571
-1.71757
1.68893
-0.0587651
0.0874024
-1.65773
1.62401
-0.0692264
0.102946
-1.58783
1.54921
-0.0792933
0.117904
-1.50823
1.46492
-0.0889094
0.132216
-1.41935
1.37156
-0.0980379
0.145823
-1.32162
1.2696
-0.106658
0.158685
-1.21553
1.15948
-0.11471
0.17076
-1.10149
1.04165
-0.122139
0.181981
-0.979986
0.916576
-0.128876
0.192286
-0.851442
0.784691
-0.134822
0.201573
-0.716366
0.646597
-0.139988
0.209757
-0.575421
0.503042
-0.144453
0.216832
-0.429574
0.355362
-0.148849
0.223062
-0.28055
0.205665
-0.154552
0.229437
-0.130705
0.0616741
-0.16807
0.237101
-0.00701289
0.00835932
1.78796
-1.78377
1.77696
-0.0281783
0.0349903
-1.76749
1.75539
-0.0506885
0.062792
-1.74066
1.72331
-0.0729322
0.0902796
-1.70336
1.68083
-0.0947584
0.117287
-1.65575
1.62814
-0.116044
0.143653
-1.59804
1.56549
-0.136679
0.16923
-1.53053
1.4932
-0.156538
0.193865
-1.45357
1.41168
-0.175532
0.217415
-1.36762
1.32144
-0.193592
0.239771
-1.27321
1.22301
-0.210655
0.260858
-1.1709
1.11696
-0.226691
0.280634
-1.06124
1.00382
-0.241667
0.299091
-0.944737
0.884059
-0.255517
0.316194
-0.821832
0.758109
-0.26809
0.331814
-0.692935
0.626369
-0.2791
0.345666
-0.558472
0.489341
-0.288233
0.357364
-0.419116
0.348029
-0.295479
0.366566
-0.276386
0.204698
-0.301609
0.373297
-0.133678
0.0653382
-0.309206
0.377546
-0.00964432
0.010921
1.72393
-1.72007
1.71365
-0.0417092
0.048131
-1.70467
1.69314
-0.0748272
0.086356
-1.67908
1.6625
-0.107568
0.124149
-1.64341
1.62185
-0.13976
0.161324
-1.59782
1.57136
-0.171213
0.197674
-1.54249
1.51125
-0.201747
0.232991
-1.47766
1.44178
-0.231182
0.267069
-1.40363
1.36327
-0.259338
0.299698
-1.32075
1.27613
-0.286059
0.33068
-1.22947
1.18086
-0.311215
0.35983
-1.13037
1.07808
-0.33473
0.387014
-1.0241
0.968515
-0.356587
0.412174
-0.911414
0.852883
-0.376797
0.435328
-0.792996
0.731815
-0.395305
0.456486
-0.669392
0.605774
-0.411865
0.475484
-0.541004
0.47513
-0.425893
0.491766
-0.408201
0.340287
-0.43653
0.504444
-0.271515
0.202149
-0.443398
0.512764
-0.132545
0.0642489
-0.447325
0.515621
-0.0121412
0.0133478
1.66219
-1.65854
1.65245
-0.0545032
0.0605904
-1.64394
1.63301
-0.0978006
0.108735
-1.61966
1.60392
-0.140619
0.156364
-1.58579
1.56528
-0.182757
0.20326
-1.54243
1.51723
-0.223989
0.249181
-1.48973
1.45994
-0.264085
0.293879
-1.42788
1.3936
-0.302811
0.337092
-1.35713
1.3185
-0.339931
0.378558
-1.27776
1.23496
-0.37521
0.418011
-1.19015
1.14339
-0.408416
0.455176
-1.09475
1.0443
-0.439352
0.489803
-0.992121
0.938319
-0.467894
0.521697
-0.882989
0.826239
-0.494022
0.550772
-0.768175
0.708895
-0.517773
0.577052
-0.648486
0.587014
-0.539073
0.600546
-0.524526
0.461056
-0.557433
0.620903
-0.396627
0.331261
-0.571755
0.63712
-0.264998
0.197932
-0.580692
0.647758
-0.130124
0.0632682
-0.58382
0.650675
-0.014495
0.0156229
1.60278
-1.59918
1.59346
-0.0666078
0.0723271
-1.58546
1.57518
-0.119546
0.129825
-1.56262
1.5478
-0.171939
0.186761
-1.53072
1.51138
-0.22356
0.242897
-1.4898
1.46599
-0.274151
0.297963
-1.43996
1.41173
-0.323442
0.351673
-1.38132
1.34875
-0.371148
0.403717
-1.31405
1.27724
-0.416982
0.453784
-1.23838
1.19748
-0.460642
0.501541
-1.15459
1.10977
-0.501818
0.546638
-1.06307
1.01455
-0.540207
0.588728
-0.964277
0.912336
-0.575548
0.627489
-0.858815
0.803816
-0.607677
0.662676
-0.747447
0.689824
-0.63657
0.694193
-0.631058
0.571249
-0.662273
0.722082
-0.51048
0.44881
-0.684546
0.746216
-0.386278
0.322901
-0.702373
0.76575
-0.258681
0.193611
-0.713872
0.778943
-0.127528
0.0625776
-0.717526
0.782477
-0.0166881
0.0177275
1.54517
-1.54215
1.53684
-0.0779492
0.0832588
-1.5294
1.51985
-0.139936
0.14949
-1.50817
1.49437
-0.201351
0.215154
-1.47844
1.46039
-0.261955
0.280009
-1.44021
1.4179
-0.321466
0.343768
-1.39348
1.36695
-0.37958
0.406114
-1.33831
1.30758
-0.435971
0.466702
-1.27477
1.2399
-0.490298
0.525167
-1.203
1.16408
-0.542199
0.581115
-1.12319
1.08035
-0.591285
0.634119
-1.03562
0.989047
-0.63716
0.683738
-0.940681
0.890593
-0.679446
0.729534
-0.838859
0.78557
-0.717815
0.771105
-0.730826
0.674741
-0.752087
0.808172
-0.617436
0.559033
-0.782264
0.840666
-0.499646
0.43937
-0.808281
0.868556
-0.378279
0.316421
-0.829342
0.8912
-0.253808
0.190401
-0.843371
0.906778
-0.125801
0.0629967
-0.848316
0.91112
-0.018701
0.0196413
1.48999
-1.48723
1.48238
-0.0884391
0.0932908
-1.47558
1.46684
-0.158819
0.167565
-1.45614
1.44347
-0.228647
0.241316
-1.42882
1.41219
-0.297688
0.314318
-1.39357
1.37293
-0.36565
0.386283
-1.35029
1.32561
-0.432208
0.456879
-1.29892
1.27018
-0.496999
0.52573
-1.23942
1.20663
-0.559636
0.592425
-1.17182
1.13501
-0.619692
0.65651
-1.0962
1.05542
-0.6767
0.717473
-1.01272
0.968109
-0.730169
0.774776
-0.921649
0.873389
-0.779604
0.827864
-0.823394
0.77174
-0.824527
0.876181
-0.718517
0.663831
-0.86456
0.919246
-0.607802
0.550563
-0.89955
0.956789
-0.492247
0.43298
-0.929471
0.988738
-0.372874
0.312016
-0.953752
1.01461
-0.250449
0.188139
-0.970327
1.03264
-0.124355
0.0637137
-0.976944
1.03759
-0.0205116
0.0213409
1.43668
-1.43403
1.42969
-0.0979775
0.102315
-1.42361
1.41577
-0.176023
0.183861
-1.40616
1.39477
-0.253588
0.264985
-1.38156
1.36652
-0.330466
0.345503
-1.34963
1.33086
-0.406373
0.425144
-1.31019
1.28758
-0.480978
0.503579
-1.26303
1.23651
-0.553893
0.580414
-1.208
1.17749
-0.624687
0.6552
-1.14496
1.11041
-0.692874
0.727422
-1.07385
1.03526
-0.757901
0.796484
-0.994677
0.952113
-0.819176
0.86174
-0.907598
0.861172
-0.876079
0.922505
-0.812886
0.762803
-0.927977
0.97806
-0.711001
0.657577
-0.974281
1.02771
-0.602647
0.546347
-1.01461
1.07091
-0.488828
0.430243
-1.04883
1.10741
-0.370743
0.310461
-1.07649
1.13678
-0.249483
0.187806
-1.09564
1.15731
-0.124219
0.0656609
-1.10422
1.16278
-0.022096
0.0228018
1.38541
-1.38311
1.37934
-0.10645
0.110216
-1.37405
1.36722
-0.191344
0.198173
-1.35883
1.34885
-0.275891
0.285873
-1.33725
1.32398
-0.359938
0.373201
-1.30902
1.29233
-0.443234
0.459929
-1.27386
1.25356
-0.525456
0.545751
-1.2314
1.20734
-0.606208
0.630273
-1.18133
1.15333
-0.685029
0.713023
-1.12332
1.09126
-0.761373
0.793432
-1.05713
1.02091
-0.834603
0.87082
-0.982601
0.942191
-0.904013
0.944423
-0.899695
0.855132
-0.968846
1.01341
-0.808536
0.759954
-1.0283
1.07688
-0.70945
0.657109
-1.08155
1.13389
-0.603042
0.547386
-1.12793
1.18359
-0.490307
0.431994
-1.16709
1.22541
-0.372647
0.312476
-1.19861
1.25878
-0.25166
0.190304
-1.22064
1.282
-0.126391
0.0700855
-1.2314
1.28771
-0.0234295
0.0239996
1.33583
-1.3339
1.33077
-0.113737
0.116871
-1.32636
1.32064
-0.204572
0.210283
-1.3136
1.30519
-0.295259
0.303669
-1.29537
1.28408
-0.385728
0.397013
-1.27128
1.25691
-0.475783
0.490158
-1.2409
1.22319
-0.565141
0.582849
-1.20372
1.18242
-0.653417
0.674718
-1.15922
1.13407
-0.740135
0.765291
-1.10689
1.07763
-0.824703
0.853961
-1.04624
1.01267
-0.906401
0.939972
-0.976878
0.938841
-0.984406
1.02244
-0.898538
0.855963
-1.05781
1.10038
-0.811124
0.764044
-1.1256
1.17268
-0.714768
0.663363
-1.18672
1.23812
-0.609926
0.554591
-1.24013
1.29547
-0.497531
0.438963
-1.28515
1.34372
-0.379141
0.318362
-1.32122
1.38199
-0.256928
0.195137
-1.34663
1.40842
-0.129773
0.0757187
-1.35993
1.41399
-0.0244885
0.0249123
1.28812
-1.28641
1.28396
-0.119719
0.122165
-1.28051
1.27602
-0.21549
0.219981
-1.27045
1.26376
-0.311377
0.318065
-1.2559
1.24679
-0.407423
0.416528
-1.23638
1.22458
-0.50352
0.515318
-1.21132
1.19651
-0.59945
0.614261
-1.18006
1.16188
-0.694873
0.713053
-1.14187
1.11995
-0.789323
0.811249
-1.09601
1.06995
-0.882187
0.908238
-1.04171
1.01117
-0.972677
1.00321
-0.978283
0.942964
-1.05986
1.09518
-0.905158
0.86482
-1.14265
1.18299
-0.821923
0.776455
-1.21984
1.2653
-0.728426
0.677877
-1.29005
1.3406
-0.624882
0.569562
-1.35185
1.40717
-0.512093
0.452718
-1.40406
1.46343
-0.391748
0.32959
-1.44582
1.50798
-0.266706
0.203685
-1.47547
1.53849
-0.135503
0.0838173
-1.492
1.54368
-0.0252535
0.0255234
1.24227
-1.24099
1.23928
-0.124287
0.126
-1.23685
1.23366
-0.2239
0.227085
-1.22968
1.22484
-0.323948
0.328781
-1.2191
1.21236
-0.424619
0.431357
-1.20455
1.19558
-0.525926
0.534896
-1.18535
1.17375
-0.627751
0.639346
-1.16068
1.14601
-0.729836
0.744505
-1.12962
1.11138
-0.831768
0.850008
-1.09116
1.06883
-0.932953
0.955287
-1.04425
1.01729
-1.03257
1.05953
-0.987823
0.955731
-1.12959
1.16168
-0.920901
0.883233
-1.22279
1.26045
-0.842641
0.799061
-1.31071
1.35429
-0.75245
0.702799
-1.39166
1.44131
-0.650142
0.594567
-1.46368
1.51926
-0.536241
0.475424
-1.52496
1.58577
-0.412492
0.347992
-1.57406
1.63856
-0.282618
0.217422
-1.60921
1.67441
-0.144863
0.095911
-1.63
1.67895
-0.0257109
0.025823
1.19772
-1.19708
1.19613
-0.127358
0.128308
-1.19476
1.19295
-0.22964
0.23146
-1.19063
1.18775
-0.332719
0.335596
-1.18424
1.18003
-0.436951
0.441165
-1.17502
1.1691
-0.542503
0.548416
-1.16218
1.15411
-0.649395
0.657457
-1.14479
1.13405
-0.7575
0.76824
-1.12174
1.10772
-0.866511
0.880538
-1.0918
1.07381
-0.975911
0.993899
-1.05357
1.0309
-1.08491
1.10758
-1.0056
0.97749
-1.19245
1.22056
-0.946389
0.912116
-1.29721
1.33148
-0.874505
0.833406
-1.39752
1.43862
-0.788692
0.740267
-1.49133
1.53976
-0.688084
0.632162
-1.57611
1.63204
-0.572617
0.509697
-1.64916
1.71208
-0.443828
0.375711
-1.70815
1.77626
-0.306352
0.237461
-1.75093
1.81982
-0.158431
0.112299
-1.77781
1.82395
-0.0258556
0.0258111
1.15502
-1.15485
1.15467
-0.128882
0.12906
-1.15438
1.15395
-0.232607
0.233038
-1.15333
1.15246
-0.337507
0.338377
-1.15127
1.14968
-0.444129
0.445719
-1.1476
1.14491
-0.552813
0.555499
-1.14151
1.13725
-0.663761
0.668019
-1.13199
1.12558
-0.777024
0.783437
-1.11783
1.10857
-0.892469
0.901734
-1.09758
1.08465
-1.00974
1.02266
-1.06956
1.05205
-1.12817
1.14567
-1.03188
1.00879
-1.24679
1.26989
-0.982485
0.952705
-1.36427
1.39405
-0.919168
0.881599
-1.47886
1.51643
-0.839737
0.793345
-1.58819
1.63458
-0.742228
0.686263
-1.68914
1.74511
-0.625442
0.559931
-1.77788
1.84339
-0.490155
0.416975
-1.85065
1.92383
-0.341812
0.267301
-1.9044
1.97891
-0.179716
0.136634
-1.94015
1.98323
-0.0256927
0.0254982
1.1138
-1.1139
1.11447
-0.128853
0.128277
-1.11524
1.11618
-0.232775
0.231839
-1.11724
1.11837
-0.33824
0.337112
-1.1195
1.12056
-0.445987
0.44493
-1.12145
1.12208
-0.55655
0.555921
-1.12233
1.12206
-0.67034
0.670606
-1.12113
1.11938
-0.787634
0.78939
-1.11661
1.11263
-0.908543
0.912526
-1.1072
1.1001
-1.03296
1.04007
-1.09103
1.07972
-1.16049
1.1718
-1.06585
1.04907
-1.29038
1.30716
-1.02901
1.0053
-1.42153
1.44525
-0.977493
0.945168
-1.55229
1.58462
-0.907867
0.865133
-1.68026
1.72299
-0.816524
0.761648
-1.80182
1.8567
-0.700222
0.632162
-1.91191
1.97997
-0.557728
0.477831
-2.00467
2.08456
-0.394315
0.311006
-2.07502
2.15833
-0.211771
0.171406
-2.12463
2.165
-0.0252377
0.0249051
1.07406
-1.07476
1.07605
-0.12732
0.126032
-1.07783
1.08006
-0.230213
0.227978
-1.08272
1.08577
-0.334973
0.331928
-1.08914
1.09278
-0.442525
0.438888
-1.0966
1.10052
-0.553594
0.549674
-1.10443
1.10822
-0.668812
0.665025
-1.11174
1.11484
-0.78872
0.785617
-1.11735
1.11905
-0.913728
0.912022
-1.11973
1.11913
-1.04408
1.04468
-1.11696
1.1129
-1.17976
1.18382
-1.1066
1.09764
-1.32047
1.32942
-1.08559
1.06995
-1.46558
1.48123
-1.05015
1.02558
-1.61398
1.63855
-0.995543
0.959298
-1.76368
1.79993
-0.916032
0.864909
-1.91119
1.96232
-0.805128
0.736039
-2.05054
2.11963
-0.657357
0.569652
-2.17325
2.26095
-0.474903
0.378329
-2.2704
2.36697
-0.262574
0.224808
-2.34432
2.38209
-0.0245164
0.024062
1.03559
-1.03669
1.03862
-0.124383
0.12245
-1.04131
1.04473
-0.225082
0.221664
-1.04886
1.05367
-0.327903
0.323091
-1.05912
1.06517
-0.43393
0.427883
-1.07175
1.0788
-0.544059
0.537006
-1.08625
1.09398
-0.659134
0.651399
-1.1019
1.10987
-0.779967
0.771998
-1.11774
1.12533
-0.907295
0.899702
-1.13244
1.13884
-1.04177
1.03537
-1.14426
1.14837
-1.18389
1.17977
-1.15083
1.15122
-1.33397
1.33358
-1.14907
1.14381
-1.49218
1.49744
-1.1348
1.12128
-1.65841
1.67193
-1.10236
1.077
-1.83197
1.85733
-1.04396
1.00183
-2.01069
2.05283
-0.949006
0.883804
-2.18923
2.25443
-0.804663
0.710777
-2.35731
2.4512
-0.602984
0.486816
-2.49995
2.61612
-0.346727
0.302998
-2.6189
2.66263
-0.0235629
0.0230061
0.998593
-1.00022
1.00271
-0.120187
0.117696
-1.00618
1.01063
-0.217636
0.213186
-1.01605
1.02242
-0.317369
0.311002
-1.02971
1.03791
-0.420591
0.412392
-1.04698
1.05688
-0.52833
0.51843
-1.06756
1.07897
-0.641607
0.630204
-1.09102
1.10363
-0.761475
0.748865
-1.11669
1.13008
-0.888986
0.8756
-1.14364
1.15718
-1.02521
1.01166
-1.1705
1.18334
-1.17118
1.15834
-1.1954
1.20632
-1.32793
1.31701
-1.21568
1.22296
-1.49665
1.48937
-1.22756
1.2287
-1.67868
1.67753
-1.22547
1.21668
-1.87551
1.8843
-1.20086
1.17613
-2.08815
2.11288
-1.14012
1.08989
-2.31526
2.36549
-1.02191
0.932406
-2.5496
2.63911
-0.818252
0.680734
-2.77294
2.91045
-0.511589
0.43969
-2.9825
3.0544
-0.0224167
0.0217787
0.963056
-0.964777
0.967725
-0.114915
0.111967
-0.971849
0.977152
-0.208197
0.202894
-0.983634
0.991298
-0.303823
0.296159
-1.00014
1.01016
-0.403072
0.393055
-1.02134
1.03368
-0.507048
0.494704
-1.04717
1.06179
-0.616889
0.602273
-1.0775
1.09428
-0.733829
0.717055
-1.11206
1.1308
-0.859168
0.840434
-1.1504
1.17077
-0.994319
0.973949
-1.19178
1.21328
-1.1408
1.11929
-1.23509
1.25698
-1.3003
1.27842
-1.27867
1.29983
-1.47497
1.45382
-1.32003
1.33874
-1.66769
1.64898
-1.35528
1.36875
-1.88255
1.86908
-1.37792
1.38112
-2.12519
2.12199
-1.37603
1.35937
-2.40236
2.41902
-1.32654
1.27118
-2.71983
2.77519
-1.18506
1.05615
-3.07845
3.20735
-0.884562
0.801353
-3.4973
3.58051
0.134933
-0.273636
0.138703
-0.228205
0.294778
-0.0665724
-0.336346
0.36222
-0.0258739
-0.38086
0.4022
-0.0213403
-0.423613
0.429423
-0.0058099
-0.42119
0.411024
0.0101663
-0.398905
0.370897
0.0280076
-0.323652
0.202469
0.121184
-0.0900553
-0.00723143
0.0972867
0.141294
-0.172438
0.0311435
0.0735576
0.000665839
-0.0742235
-0.122221
0.234516
-0.112295
-0.252317
0.174046
0.0782712
0.16083
-1.07379
0.912961
1.76653
-2.16647
0.399941
2.44087
-2.62655
0.185682
2.47905
-2.30155
-0.177501
2.08743
-2.02382
-0.0636026
1.86564
-1.69758
-0.168066
1.57004
-1.39226
-0.177773
1.25574
-1.11815
-0.137591
0.986627
-0.86353
-0.123098
0.732782
-0.503677
-0.229107
-0.0679967
1.27985
-1.21185
-2.96359
4.13528
-1.17169
-4.86023
5.35228
-0.492045
-5.70881
5.97404
-0.265231
-6.17678
6.33464
-0.157861
-6.4579
6.5535
-0.0955978
-6.62687
6.68272
-0.0558575
-6.72582
6.76073
-0.0349099
-6.78881
6.80829
-0.0194808
-6.81804
6.81756
0.000487177
-6.80669
6.79004
0.0166461
-6.77222
6.75755
0.0146673
-6.75096
6.75308
-0.00211182
-6.75446
6.74454
0.00992406
-6.72089
6.68985
0.0310428
-6.66584
6.65914
0.00670256
-6.66947
6.68252
-0.0130462
-6.68446
6.66803
0.0164313
-6.62838
6.5728
0.0555821
-6.52274
6.4833
0.0394399
-6.45097
6.42416
0.0268157
-6.40187
6.38353
0.0183387
-6.36843
6.35587
0.0125566
-6.3452
6.33592
0.00927639
-6.3277
6.3203
0.00740011
-6.3136
6.30745
0.00614687
-6.30183
6.2966
0.00523288
-6.29176
6.28717
0.00458865
-6.28285
6.27869
0.00415867
-6.27478
6.27104
0.00373737
-6.26758
6.26434
0.00323666
-6.2613
6.25842
0.0028796
-6.25542
6.2524
0.00302465
-6.24882
6.24499
0.00382552
-6.24032
6.23546
0.00485612
-6.22991
6.22474
0.00516664
-6.21927
6.21469
0.00458511
0.379839
-0.456904
0.0770647
-0.181918
0.238787
0.121081
-0.177949
-0.281769
0.309543
0.0505909
-0.0783648
-0.325978
0.336067
0.0339518
-0.044041
-0.345638
0.357723
0.0204377
-0.0325228
-0.368136
0.37354
-0.0125202
0.00711645
-0.376219
0.382318
-0.0351969
0.0290983
-0.395577
0.433642
-0.120736
0.0826712
-0.46667
0.469418
-0.143416
0.140669
-0.473748
0.505318
-0.0113752
-0.020195
-0.516024
0.571509
0.182517
-0.238002
-0.641253
0.709364
0.178417
-0.246528
-0.792894
0.899587
-0.0411573
-0.0655361
-1.06231
1.31696
-0.99152
0.736869
-1.30445
1.13753
-0.580487
0.747407
-1.17579
1.65846
-0.929877
0.447202
-1.64838
0.843963
-0.141064
0.945483
0.194929
-0.79203
0.181021
0.416081
1.21946
-1.47191
0.277207
-0.0247656
1.50877
-1.42894
0.352365
-0.432192
1.24872
-1.05594
0.292224
-0.485
0.844876
-0.638437
0.264422
-0.470861
0.448367
1.83979
0.601559
-2.88971
-3.34379
3.92017
3.40084
-3.97722
-4.34458
4.80014
1.88276
-2.33832
-5.23841
5.61228
0.924386
-1.29826
-5.91853
6.16726
0.524115
-0.772837
-6.36802
6.52921
0.318976
-0.480164
-6.65776
6.7597
0.196053
-0.297987
-6.83974
6.90175
0.116898
-0.178915
-6.94895
6.98371
0.0700135
-0.104772
-7.00843
7.02552
0.0368914
-0.0539794
-7.03662
7.04315
0.0032654
-0.00980031
-7.04553
7.04455
-0.0212903
0.0222689
-7.04059
7.03407
-0.0212641
0.027789
-7.02518
7.01427
-0.0084787
0.0193938
-7.00211
6.99102
-0.0220695
0.0331555
-6.98188
6.97333
-0.0410185
0.0495612
-6.96281
6.94997
-0.0156341
0.0284761
-6.9363
6.92154
9.03701e-05
0.0146715
-6.90537
6.89022
-0.0348928
0.0500389
-6.87566
6.86015
-0.0773535
0.0928633
-6.84049
6.81779
-0.0689356
0.091627
-6.79499
6.77365
-0.0518807
0.0732221
-6.75443
6.73748
-0.0368173
0.0537619
-6.72273
6.70986
-0.0259431
0.038818
-6.69854
6.68851
-0.0194356
0.0294683
-6.67956
6.67158
-0.0154401
0.0234121
-6.6645
6.65821
-0.0126005
0.0188829
-6.65264
6.64772
-0.0104803
0.0154062
-6.6433
6.63932
-0.00900192
0.0129856
-6.63563
6.63216
-0.00807392
0.0115454
-6.62883
6.62566
-0.0072872
0.010456
-6.62263
6.61975
-0.00640305
0.0092799
-6.61701
6.61435
-0.00577534
0.00844057
-6.61169
6.60882
-0.00611904
0.00899067
-6.60567
6.60195
-0.00777053
0.0114921
-6.5977
6.59272
-0.0099708
0.0149566
-6.58736
6.58163
-0.010843
0.0165725
-6.57623
6.57112
-0.00962944
0.0147413
0.509343
-0.544052
0.0347093
-0.0973393
0.140559
0.231412
-0.274631
-0.189258
0.23615
0.115148
-0.162039
-0.270113
0.28994
0.0560225
-0.0758493
-0.302912
0.317094
0.0460197
-0.0602019
-0.332822
0.345335
0.00265228
-0.0151651
-0.357062
0.371958
-0.0166686
0.00177266
-0.393461
0.430042
-0.0431291
0.00654799
-0.480651
0.534784
-0.0973625
0.0432296
-0.563916
0.578572
0.0318002
-0.0464558
-0.57453
0.589102
0.265393
-0.279964
-0.628558
0.684766
0.309121
-0.36533
-0.755721
0.848646
0.166399
-0.259324
-0.980892
1.19872
-0.421699
0.20387
-1.4852
1.65829
-0.713044
0.539956
-1.65563
1.60779
-0.483439
0.531285
-1.63839
1.67626
-1.04164
1.00377
-1.58812
1.19613
-1.1923
1.58429
-0.43039
-0.0524503
-0.412124
0.894964
0.160804
-0.00554813
0.520771
-0.676026
-0.336931
0.822162
0.811487
-1.29672
-1.50367
2.55792
1.17338
-2.22762
-4.30718
5.16718
3.64061
-4.50061
-5.05872
5.03005
4.02536
-3.99669
-5.13636
5.34971
2.63867
-2.85201
-5.6083
5.86694
1.60745
-1.86609
-6.10439
6.31265
1.00058
-1.20884
-6.48857
6.63376
0.633657
-0.778848
-6.75133
6.8447
0.39612
-0.489488
-6.91762
6.97357
0.238313
-0.294268
-7.01539
7.0457
0.137574
-0.167889
-7.06684
7.08108
0.0698151
-0.0840496
-7.09036
7.09614
0.0161381
-0.0219136
-7.09929
7.10005
-0.0219506
0.0211942
-7.09818
7.09338
-0.0332103
0.0380156
-7.08549
7.07512
-0.0303092
0.0406805
-7.06393
7.05363
-0.0438787
0.0541751
-7.04491
7.03682
-0.0577854
0.0658756
-7.02742
7.01521
-0.0407009
0.0529042
-7.00038
6.98465
-0.0308769
0.0466045
-6.96979
6.9571
-0.0639359
0.0766186
-6.94671
6.93728
-0.104814
0.114242
-6.92681
6.91461
-0.108309
0.12051
-6.90145
6.88824
-0.0902945
0.103502
-6.87562
6.86397
-0.068113
0.0797664
-6.85343
6.84391
-0.0501715
0.0596951
-6.83521
6.8272
-0.0386198
0.0466324
-6.81986
6.81327
-0.0307555
0.037347
-6.80746
6.80242
-0.0245876
0.0296294
-6.79809
6.79442
-0.0197325
0.0233988
-6.79133
6.78867
-0.0163186
0.0189754
-6.78629
6.78408
-0.0143968
0.0166117
-6.78192
6.77979
-0.0131048
0.0152297
-6.77768
6.77561
-0.0117442
0.0138149
-6.77359
6.77159
-0.0107661
0.0127646
-6.76954
6.76732
-0.0115299
0.0137524
-6.76477
6.7617
-0.0148736
0.0179452
-6.75799
6.75351
-0.0196613
0.024141
-6.7484
6.74286
-0.0221615
0.0277003
-6.73756
6.73276
-0.0196724
0.0244746
0.564835
-0.57151
0.00667567
-0.0377392
0.0581526
0.305368
-0.325781
-0.0904584
0.132491
0.2089
-0.250932
-0.178468
0.21741
0.105973
-0.144915
-0.246393
0.272525
0.0788775
-0.105009
-0.2932
0.308565
0.0281993
-0.043564
-0.322903
0.339272
0.0135368
-0.0299062
-0.359108
0.386994
0.0259216
-0.053807
-0.42701
0.473773
0.00937437
-0.0561374
-0.516591
0.548816
0.06953
-0.101755
-0.563056
0.575613
0.290539
-0.303095
-0.602319
0.644709
0.413897
-0.456287
-0.699393
0.772782
0.3418
-0.415189
-0.872946
1.00663
-0.0423442
-0.0913352
-1.15504
1.26661
-0.409946
0.298378
-1.336
1.38423
-0.507419
0.459187
-1.43529
1.47562
-0.956054
0.91572
-1.47309
1.46845
-1.77976
1.7844
-1.24506
1.16679
-1.20452
1.28279
-1.35394
1.80356
0.945249
-1.39487
-2.48527
3.41675
1.97343
-2.90492
-4.79647
5.6525
3.76891
-4.62495
-5.60654
5.58818
4.40833
-4.38996
-5.55949
5.55834
3.97441
-3.97326
-5.62421
5.75727
3.01187
-3.14493
-5.93036
6.11856
2.08195
-2.27015
-6.30196
6.46935
1.39387
-1.56126
-6.6139
6.73486
0.911187
-1.03215
-6.8326
6.90966
0.574533
-0.651584
-6.96858
7.01307
0.344337
-0.388825
-7.04576
7.06913
0.194493
-0.217866
-7.08517
7.09587
0.0962361
-0.106931
-7.1029
7.10755
0.0269062
-0.0315611
-7.11049
7.11182
-0.0202824
0.0189496
-7.11121
7.10826
-0.04206
0.0450142
-7.10282
7.09536
-0.0497598
0.0572252
-7.08698
7.07884
-0.0635176
0.0716577
-7.07146
7.06429
-0.0736375
0.0808116
-7.05622
7.04637
-0.0640845
0.0739329
-7.03488
7.02288
-0.0606339
0.0726418
-7.01186
7.0029
-0.0874878
0.0964493
-6.99629
6.99125
-0.121326
0.126369
-6.98659
6.98148
-0.128818
0.13393
-6.97585
6.96988
-0.112843
0.118814
-6.96394
6.95826
-0.0883132
0.0939935
-6.95299
6.948
-0.0669291
0.0719217
-6.94308
6.93801
-0.0531421
0.0582076
-6.93298
6.92832
-0.0429195
0.0475837
-6.92424
6.92076
-0.0338403
0.0373163
-6.9179
6.91564
-0.0263103
0.028571
-6.91395
6.91271
-0.0208795
0.022121
-6.91172
6.91079
-0.0181474
0.0190714
-6.90981
6.90872
-0.0168001
0.0178956
-6.9075
6.90619
-0.0154623
0.0167729
-6.90482
6.90343
-0.0144164
0.0158061
-6.902
6.9004
-0.0156239
0.0172189
-6.89851
6.89613
-0.0206344
0.0230111
-6.89309
6.8892
-0.0283044
0.0321979
-6.8844
6.87897
-0.0331182
0.0385462
-6.87365
6.86912
-0.0290737
0.0336066
0.559428
-0.518242
-0.0411861
0.0120529
0.000670466
0.338432
-0.351156
-0.0261509
0.0605853
0.287945
-0.322379
-0.102163
0.144253
0.187608
-0.229698
-0.179142
0.205285
0.131377
-0.15752
-0.227818
0.246856
0.0600237
-0.079062
-0.262946
0.2813
0.0466198
-0.064973
-0.304488
0.330553
0.0824628
-0.108528
-0.358956
0.393069
0.0954912
-0.129604
-0.42582
0.459386
0.136778
-0.170344
-0.487869
0.512271
0.321368
-0.345771
-0.539007
0.569461
0.491862
-0.522315
-0.608046
0.662061
0.478324
-0.53234
-0.737753
0.836634
0.203639
-0.30252
-0.943108
1.02729
-0.20155
0.117371
-1.08845
1.14193
-0.405639
0.352153
-1.19809
1.26171
-0.865301
0.801676
-1.32431
1.39185
-1.70398
1.63644
-1.51168
1.99289
-1.10666
0.62545
-2.77748
3.75192
2.078
-3.05244
-4.97142
5.66912
4.16281
-4.86051
-5.6857
5.72231
4.61143
-4.64804
-5.75126
5.77581
4.39313
-4.41768
-5.80053
5.84023
3.99189
-4.03159
-5.91404
6.02575
3.26184
-3.37355
-6.16418
6.31441
2.4349
-2.58512
-6.46089
6.59429
1.70948
-1.84288
-6.70784
6.80219
1.13878
-1.23314
-6.87765
6.93654
0.718618
-0.77751
-6.98121
7.01508
0.426981
-0.460856
-7.04082
7.06041
0.238278
-0.257866
-7.07509
7.08604
0.116849
-0.127791
-7.09444
7.10127
0.0366379
-0.0434654
-7.1069
7.11131
-0.0165417
0.0121345
-7.11414
7.11513
-0.0462769
0.0452901
-7.11413
7.11145
-0.0624378
0.0651199
-7.10764
7.1034
-0.077968
0.0822153
-7.09904
7.09452
-0.0867697
0.0912957
-7.08935
7.08321
-0.081909
0.0880506
-7.07619
7.06907
-0.0821007
0.0892212
-7.0628
7.0582
-0.103121
0.107728
-7.0555
7.05445
-0.129311
0.130364
-7.05433
7.0545
-0.136151
0.135989
-7.05451
7.05418
-0.121679
0.122015
-7.05358
7.05284
-0.096944
0.0976844
-7.05212
7.05127
-0.0746667
0.0755144
-7.04991
7.04761
-0.0617796
0.0640856
-7.04453
7.04142
-0.051344
0.0544534
-7.03873
7.03649
-0.0400762
0.0423188
-7.0347
7.03339
-0.030251
0.0315544
-7.03266
7.03241
-0.022779
0.0230281
-7.0324
7.0324
-0.0194638
0.0194627
-7.03225
7.03188
-0.0185712
0.0189409
-7.03126
7.03043
-0.0177944
0.0186342
-7.0294
7.02831
-0.0169875
0.0180862
-7.02717
7.02593
-0.0185735
0.0198128
-7.02445
7.0226
-0.0250645
0.0269076
-7.02021
7.01698
-0.0357304
0.0389602
-7.01261
7.00728
-0.0438901
0.0492212
-7.00179
6.99732
-0.0380438
0.0425214
0.444148
-0.35647
-0.0876781
0.0838504
-0.0648674
0.368943
-0.387926
0.0346372
0.00323654
0.35888
-0.396753
-0.042212
0.0844537
0.270193
-0.312434
-0.120494
0.147951
0.184484
-0.211941
-0.169588
0.187183
0.0990717
-0.116667
-0.201608
0.215331
0.0817345
-0.0954581
-0.230552
0.247544
0.129582
-0.146575
-0.26914
0.298491
0.160385
-0.189736
-0.327943
0.358288
0.201595
-0.23194
-0.388037
0.415045
0.372424
-0.399431
-0.43959
0.462222
0.54768
-0.570311
-0.486136
0.519399
0.575166
-0.608429
-0.570984
0.645171
0.389007
-0.463194
-0.735874
0.815674
-0.0399853
-0.0398146
-0.877406
0.915995
-0.304877
0.266288
-0.95045
0.998047
-0.7416
0.694003
-1.05755
1.1321
-1.5631
1.48855
-1.38603
2.97264
0.265087
-1.8517
-4.68124
5.50326
4.37947
-5.20149
-5.53964
5.61221
4.89339
-4.96596
-5.6809
5.74662
4.69822
-4.76394
-5.80889
5.86914
4.46112
-4.52138
-5.93063
6.00057
4.08747
-4.1574
-6.0872
6.19466
3.48092
-3.58838
-6.31614
6.4401
2.72017
-2.84414
-6.55584
6.65656
1.95882
-2.05954
-6.73833
6.80636
1.31346
-1.38149
-6.86365
6.91192
0.8286
-0.876868
-6.95174
6.98615
0.49237
-0.526781
-7.01655
7.04324
0.278944
-0.305637
-7.06645
7.08594
0.141666
-0.161155
-7.10238
7.11658
0.0533056
-0.0675123
-7.12877
7.13923
-0.00493839
-0.00552327
-7.14753
7.15372
-0.041707
0.0355148
-7.15777
7.15999
-0.0651493
0.0629309
-7.16085
7.16073
-0.0842469
0.0843698
-7.15984
7.1582
-0.0942545
0.0958945
-7.15577
7.15249
-0.0924665
0.0957448
-7.14861
7.14477
-0.0942909
0.0981323
-7.14183
7.14048
-0.110428
0.111775
-7.14091
7.14286
-0.129787
0.127845
-7.146
7.14978
-0.133821
0.13004
-7.15355
7.15688
-0.120282
0.116955
-7.15956
7.16165
-0.0967327
0.0946386
-7.16335
7.16486
-0.0748567
0.0733477
-7.16596
7.16576
-0.0652405
0.0654386
-7.16388
7.16163
-0.0570289
0.0592791
-7.15971
7.1581
-0.044146
0.0457596
-7.15673
7.15565
-0.0326359
0.0337104
-7.15505
7.15503
-0.023046
0.0230628
-7.1553
7.15562
-0.0192177
0.0189
-7.15581
7.15574
-0.0191083
0.0191733
-7.15539
7.15471
-0.019362
0.0200401
-7.15369
7.15244
-0.0191982
0.0204448
-7.15114
7.14975
-0.0210452
0.0224383
-7.14816
7.14637
-0.0286284
0.0304224
-7.14433
7.14186
-0.0417917
0.0442622
-7.13839
7.13364
-0.0543618
0.0591039
-7.12837
7.12373
-0.0470098
0.0516513
0.280592
-0.210035
-0.0705576
0.104934
-0.0954956
0.406475
-0.415913
0.0764373
-0.0507095
0.427382
-0.45311
0.0146026
0.0249083
0.354401
-0.393912
-0.064825
0.0973966
0.240756
-0.273327
-0.118486
0.129779
0.130615
-0.141908
-0.13455
0.137202
0.104229
-0.10688
-0.141176
0.14726
0.158144
-0.164228
-0.156139
0.170304
0.212358
-0.226523
-0.193783
0.219832
0.260524
-0.286573
-0.248495
0.276708
0.427077
-0.455289
-0.3015
0.322345
0.592011
-0.612856
-0.338326
0.355807
0.632461
-0.649942
-0.381469
0.423608
0.521342
-0.563481
-0.479348
0.497239
0.120347
-0.138238
-0.371723
0.253194
-0.247516
0.366044
-0.528093
0.59426
-0.66875
0.602583
-0.331245
0.346259
-1.57729
1.56228
-3.64037
5.26845
3.99687
-5.62494
-5.28134
5.37577
5.23414
-5.32857
-5.46702
5.55863
5.04604
-5.13765
-5.65169
5.74302
4.84258
-4.93391
-5.83152
5.91836
4.59443
-4.68127
-6.00244
6.08983
4.23721
-4.3246
-6.18372
6.28426
3.69272
-3.79326
-6.38656
6.47924
2.95322
-3.04591
-6.55422
6.62411
2.14253
-2.21242
-6.67261
6.73098
1.43899
-1.49736
-6.79468
6.86136
0.928701
-0.995385
-6.92299
6.97866
0.569409
-0.625082
-7.02742
7.06925
0.340284
-0.382116
-7.10565
7.13682
0.18697
-0.218143
-7.16284
7.18467
0.0859053
-0.107728
-7.20322
7.21886
0.0186743
-0.0343068
-7.23156
7.24108
-0.0272076
0.0176918
-7.24775
7.25233
-0.0590781
0.0544933
-7.25571
7.25836
-0.0828711
0.0802159
-7.26031
7.26116
-0.0962529
0.0954097
-7.26042
7.25793
-0.0983859
0.100869
-7.25417
7.25017
-0.101617
0.105618
-7.24746
7.24737
-0.11233
0.112422
-7.25
7.25449
-0.124687
0.120193
-7.26028
7.26677
-0.124939
0.11845
-7.2732
7.27884
-0.112437
0.106797
-7.28318
7.28597
-0.0920209
0.0892228
-7.28745
7.28802
-0.0719558
0.0713787
-7.28831
7.28847
-0.0652177
0.0650566
-7.28801
7.28669
-0.0611847
0.0624996
-7.28508
7.2836
-0.0472459
0.0487253
-7.28235
7.28128
-0.0347938
0.0358585
-7.2804
7.27979
-0.0232625
0.0238712
-7.27953
7.27955
-0.0186857
0.0186652
-7.2797
7.27979
-0.0191898
0.0190975
-7.27966
7.27921
-0.0206483
0.021103
-7.27832
7.27695
-0.0218039
0.0231776
-7.27517
7.27313
-0.0241009
0.0261428
-7.27092
7.26859
-0.0324278
0.0347565
-7.26627
7.2641
-0.0464647
0.0486383
-7.26212
7.26005
-0.0628922
0.0649614
-7.25766
7.25381
-0.0561744
0.0600266
0.144768
-0.0701776
-0.0745906
0.122658
-0.129128
0.417206
-0.410736
0.118098
-0.098573
0.475138
-0.494663
0.0707642
-0.0387357
0.429651
-0.46168
0.00588238
0.0256352
0.307938