/*--------------------------------*- C++ -*----------------------------------*\
| =========                 |                                                 |
| \\      /  F ield         | OpenFOAM: The Open Source CFD Toolbox           |
|  \\    /   O peration     | Version:  v1912                                 |
|   \\  /    A nd           | Website:  www.openfoam.com                      |
|    \\/     M anipulation  |                                                 |
\*---------------------------------------------------------------------------*/
FoamFile
{
    version     2.0;
    format      ascii;
    class       volVectorField;
    location    "40";
    object      U;
}
// * * * * * * * * * * * * * * * * * * * * * * * * * * * * * * * * * * * * * //

dimensions      [0 1 -1 0 0 0 0];


internalField   nonuniform List<vector> 
20320
(
(1.85495 0.00630478 0)
(1.85355 -0.00536532 0)
(1.8381 0.00435579 0)
(1.80868 0.0120547 0)
(1.7677 0.0193619 0)
(1.71632 0.0261603 0)
(1.65469 0.0325987 0)
(1.58308 0.0384621 0)
(1.50205 0.0442141 0)
(1.41201 0.0497871 0)
(1.31353 0.0549814 0)
(1.20711 0.059667 0)
(1.09347 0.0641755 0)
(0.973044 0.0683435 0)
(0.846703 0.0720799 0)
(0.714688 0.0764904 0)
(0.576559 0.0819933 0)
(0.431585 0.0903928 0)
(0.277003 0.103952 0)
(0.106444 0.121256 0)
(1.85507 0.0112541 0)
(1.8465 0.0356682 0)
(1.82714 0.0666758 0)
(1.79687 0.0978181 0)
(1.7556 0.128384 0)
(1.70358 0.158248 0)
(1.64121 0.187276 0)
(1.56889 0.2153 0)
(1.48697 0.242122 0)
(1.39586 0.267623 0)
(1.29602 0.291769 0)
(1.18792 0.314447 0)
(1.07199 0.335458 0)
(0.948708 0.354661 0)
(0.818486 0.371785 0)
(0.681889 0.386599 0)
(0.539619 0.399085 0)
(0.392714 0.410205 0)
(0.24284 0.423085 0)
(0.0926731 0.458181 0)
(1.85506 0.0170523 0)
(1.84655 0.0698408 0)
(1.82703 0.12544 0)
(1.79653 0.180529 0)
(1.7552 0.234727 0)
(1.70323 0.287676 0)
(1.64085 0.339068 0)
(1.56837 0.388579 0)
(1.48618 0.435925 0)
(1.3948 0.480916 0)
(1.29478 0.523415 0)
(1.18671 0.56334 0)
(1.07117 0.600647 0)
(0.948652 0.635208 0)
(0.819609 0.66671 0)
(0.684446 0.694515 0)
(0.543634 0.717699 0)
(0.397962 0.735591 0)
(0.249001 0.749475 0)
(0.101034 0.784477 0)
(1.85506 0.0228385 0)
(1.8468 0.099795 0)
(1.82763 0.17911 0)
(1.79746 0.257523 0)
(1.75645 0.334625 0)
(1.70481 0.409983 0)
(1.64275 0.483167 0)
(1.57054 0.553742 0)
(1.4885 0.621279 0)
(1.39704 0.68537 0)
(1.29669 0.745671 0)
(1.18806 0.801948 0)
(1.07194 0.854138 0)
(0.949106 0.902298 0)
(0.820297 0.946392 0)
(0.686043 0.985949 0)
(0.546723 1.01969 0)
(0.402691 1.04567 0)
(0.254369 1.06314 0)
(0.103817 1.09741 0)
(1.85506 0.0283053 0)
(1.84694 0.127835 0)
(1.82808 0.229457 0)
(1.79838 0.329977 0)
(1.75797 0.428924 0)
(1.70701 0.525784 0)
(1.64569 0.620021 0)
(1.57421 0.711081 0)
(1.49286 0.798412 0)
(1.40198 0.881451 0)
(1.30201 0.959635 0)
(1.19348 1.03246 0)
(1.07707 1.09958 0)
(0.953614 1.16087 0)
(0.82407 1.21644 0)
(0.689311 1.26622 0)
(0.549925 1.30928 0)
(0.406142 1.34321 0)
(0.257883 1.36571 0)
(0.105584 1.4017 0)
(1.85506 0.0334435 0)
(1.84714 0.154311 0)
(1.82875 0.277045 0)
(1.79978 0.398558 0)
(1.76028 0.518326 0)
(1.71038 0.635759 0)
(1.65018 0.750234 0)
(1.57984 0.861092 0)
(1.49957 0.967662 0)
(1.40964 1.06924 0)
(1.31041 1.16509 0)
(1.20234 1.25449 0)
(1.086 1.33679 0)
(0.962137 1.41153 0)
(0.831689 1.47859 0)
(0.695709 1.5381 0)
(0.55511 1.58966 0)
(0.41037 1.6312 0)
(0.26135 1.65954 0)
(0.106911 1.69822 0)
(1.85506 0.0382135 0)
(1.84744 0.179047 0)
(1.82972 0.321549 0)
(1.80176 0.462795 0)
(1.76356 0.602243 0)
(1.71517 0.739255 0)
(1.6566 0.873139 0)
(1.5879 1.00315 0)
(1.50919 1.12849 0)
(1.42064 1.24833 0)
(1.32251 1.36175 0)
(1.21517 1.46782 0)
(1.09909 1.56565 0)
(0.974923 1.65441 0)
(0.843529 1.7336 0)
(0.706004 1.80317 0)
(0.563498 1.86302 0)
(0.416846 1.91154 0)
(0.266153 1.9452 0)
(0.108884 1.98662 0)
(1.85506 0.0425709 0)
(1.84784 0.201838 0)
(1.83103 0.362615 0)
(1.80445 0.522207 0)
(1.76803 0.680094 0)
(1.72171 0.835625 0)
(1.66537 0.988067 0)
(1.59895 1.13659 0)
(1.52241 1.28032 0)
(1.4358 1.41826 0)
(1.33923 1.54932 0)
(1.23294 1.67237 0)
(1.11731 1.78623 0)
(0.992866 1.88976 0)
(0.860384 1.982 0)
(0.720929 2.06251 0)
(0.575798 2.13118 0)
(0.426154 2.18684 0)
(0.272463 2.22596 0)
(0.110312 2.26902 0)
(1.85506 0.0464655 0)
(1.84837 0.222455 0)
(1.83276 0.39984 0)
(1.808 0.576236 0)
(1.77393 0.751196 0)
(1.73035 0.924097 0)
(1.67701 1.0942 0)
(1.61365 1.26063 0)
(1.54007 1.42242 0)
(1.45612 1.57843 0)
(1.36173 1.7274 0)
(1.25696 1.86795 0)
(1.14204 1.99863 0)
(1.01738 2.11794 0)
(0.883625 2.22444 0)
(0.7418 2.31714 0)
(0.593306 2.3956 0)
(0.439636 2.45882 0)
(0.281679 2.50322 0)
(0.112248 2.5472 0)
(1.85506 0.0498437 0)
(1.84904 0.240639 0)
(1.83497 0.432771 0)
(1.81254 0.624248 0)
(1.7815 0.814756 0)
(1.74147 1.00375 0)
(1.69204 1.19054 0)
(1.63273 1.37423 0)
(1.56312 1.55379 0)
(1.48278 1.72797 0)
(1.39142 1.8953 0)
(1.28885 2.05416 0)
(1.17508 2.20277 0)
(1.05032 2.33925 0)
(0.915085 2.46164 0)
(0.770309 2.56825 0)
(0.617485 2.65808 0)
(0.458523 2.72998 0)
(0.294935 2.78029 0)
(0.116303 2.82389 0)
(1.85507 0.0526512 0)
(1.84988 0.256124 0)
(1.83771 0.460933 0)
(1.81819 0.665567 0)
(1.79093 0.86991 0)
(1.75541 1.07357 0)
(1.71097 1.27592 0)
(1.65692 1.47615 0)
(1.59252 1.67318 0)
(1.51706 1.86568 0)
(1.4299 2.05201 0)
(1.33052 2.23026 0)
(1.21861 2.39833 0)
(1.09409 2.55387 0)
(0.957235 2.69433 0)
(0.808822 2.81722 0)
(0.650363 2.92065 0)
(0.484166 3.00298 0)
(0.312434 3.0602 0)
(0.120491 3.1016 0)
(1.85507 0.0548379 0)
(1.85089 0.268649 0)
(1.84101 0.48385 0)
(1.82501 0.699497 0)
(1.80237 0.915742 0)
(1.77239 1.1324 0)
(1.73421 1.34902 0)
(1.68684 1.5649 0)
(1.62923 1.779 0)
(1.56027 1.98997 0)
(1.4789 2.19602 0)
(1.38416 2.39502 0)
(1.27526 2.58449 0)
(1.15168 2.76158 0)
(1.01332 2.92306 0)
(0.860642 3.06547 0)
(0.695092 3.18575 0)
(0.519392 3.2813 0)
(0.336572 3.34736 0)
(0.125688 3.38527 0)
(1.85507 0.0563636 0)
(1.85206 0.277985 0)
(1.84486 0.501099 0)
(1.83299 0.725397 0)
(1.81583 0.951367 0)
(1.79253 1.17911 0)
(1.76199 1.40842 0)
(1.72295 1.63879 0)
(1.67399 1.86934 0)
(1.61359 2.09878 0)
(1.54016 2.32528 0)
(1.45213 2.54654 0)
(1.34807 2.75974 0)
(1.2268 2.96154 0)
(1.08753 3.14794 0)
(0.9302 3.31431 0)
(0.755952 3.45598 0)
(0.567885 3.56874 0)
(0.370153 3.64636 0)
(0.133483 3.67993 0)
(1.85508 0.057203 0)
(1.85338 0.283962 0)
(1.8492 0.512348 0)
(1.84205 0.742736 0)
(1.83121 0.976004 0)
(1.8157 1.2126 0)
(1.79425 1.45267 0)
(1.76536 1.696 0)
(1.72724 1.94199 0)
(1.67791 2.18956 0)
(1.61519 2.437 0)
(1.53679 2.682 0)
(1.4404 2.92155 0)
(1.32383 3.15188 0)
(1.18524 3.36822 0)
(1.0235 3.56462 0)
(0.838983 3.73431 0)
(0.634826 3.87061 0)
(0.416483 3.96486 0)
(0.144212 3.99507 0)
(1.85508 0.0573504 0)
(1.85481 0.286492 0)
(1.85396 0.517405 0)
(1.85199 0.751162 0)
(1.8482 0.989067 0)
(1.84152 1.23197 0)
(1.83059 1.48043 0)
(1.81372 1.73467 0)
(1.78883 1.99451 0)
(1.75352 2.25927 0)
(1.70499 2.52759 0)
(1.64014 2.7974 0)
(1.55557 3.06582 0)
(1.44773 3.32895 0)
(1.31312 3.58144 0)
(1.14875 3.816 0)
(0.953234 4.02327 0)
(0.728931 4.1928 0)
(0.482748 4.31154 0)
(0.163501 4.3404 0)
(1.85508 0.056823 0)
(1.85632 0.285594 0)
(1.85897 0.516265 0)
(1.86253 0.750579 0)
(1.86633 0.99027 0)
(1.86934 1.23662 0)
(1.87019 1.49067 0)
(1.86711 1.75316 0)
(1.8579 2.02449 0)
(1.83982 2.30459 0)
(1.80958 2.59276 0)
(1.76329 2.88754 0)
(1.69638 3.18666 0)
(1.60359 3.48667 0)
(1.47909 3.78232 0)
(1.31684 4.06548 0)
(1.11187 4.32409 0)
(0.863565 4.54244 0)
(0.579087 4.69989 0)
(0.195273 4.73368 0)
(1.85509 0.0556613 0)
(1.85786 0.281401 0)
(1.86406 0.509129 0)
(1.87331 0.741187 0)
(1.88501 0.979712 0)
(1.89826 1.22641 0)
(1.91181 1.4828 0)
(1.92401 1.75024 0)
(1.93269 2.0298 0)
(1.93505 2.32223 0)
(1.92754 2.62777 0)
(1.90571 2.94604 0)
(1.86399 3.27602 0)
(1.79542 3.61565 0)
(1.69138 3.96108 0)
(1.54146 4.30491 0)
(1.33434 4.63368 0)
(1.06178 4.92581 0)
(0.726565 5.1485 0)
(0.249809 5.20671 0)
(1.85509 0.0539275 0)
(1.85935 0.274162 0)
(1.86906 0.49641 0)
(1.88392 0.723505 0)
(1.90352 0.957921 0)
(1.92717 1.20173 0)
(1.95389 1.45691 0)
(1.98232 1.7254 0)
(2.01057 2.00903 0)
(2.03611 2.30947 0)
(2.05554 2.6281 0)
(2.06437 2.96602 0)
(2.05662 3.3241 0)
(2.02424 3.70283 0)
(1.95621 4.10165 0)
(1.83729 4.51708 0)
(1.64705 4.93848 0)
(1.36183 5.34206 0)
(0.966323 5.68026 0)
(0.352566 5.81496 0)
(1.85509 0.0517 0)
(1.86076 0.264225 0)
(1.87376 0.478712 0)
(1.89396 0.698351 0)
(1.92115 0.92586 0)
(1.95492 1.16358 0)
(1.9947 1.41385 0)
(2.03956 1.67914 0)
(2.08818 1.96193 0)
(2.13865 2.2648 0)
(2.18825 2.59033 0)
(2.23315 2.94123 0)
(2.26802 3.32064 0)
(2.28516 3.73243 0)
(2.27313 4.18127 0)
(2.21409 4.6717 0)
(2.07944 5.20418 0)
(1.82429 5.76629 0)
(1.38907 6.31094 0)
(0.59979 6.64114 0)
(1.85509 0.0490688 0)
(1.86203 0.25201 0)
(1.87802 0.456784 0)
(1.90309 0.666787 0)
(1.93726 0.884872 0)
(1.98045 1.11352 0)
(2.03254 1.35529 0)
(2.09321 1.61301 0)
(2.16187 1.88967 0)
(2.23756 2.18856 0)
(2.3187 2.51326 0)
(2.40295 2.86784 0)
(2.48679 3.25747 0)
(2.56497 3.68928 0)
(2.62911 4.1736 0)
(2.66492 4.72547 0)
(2.64577 5.36475 0)
(2.51953 6.11324 0)
(2.17555 6.98492 0)
(1.32107 7.81606 0)
(0.572012 -0.421148 0)
(1.06276 -0.0921491 0)
(1.37536 -0.0341234 0)
(1.51989 -0.0330983 2.49433e-21)
(1.65902 -0.000178803 0)
(1.59795 0.0160445 0)
(1.49731 0.0486681 0)
(1.10673 0.272737 0)
(0.308641 0.123268 0)
(-0.827195 0.00734621 1.47856e-20)
(-0.202746 0.0743964 0)
(0.856507 -0.0635698 0)
(0.87285 0.17675 -4.65245e-21)
(-2.11747 1.41231 -4.38003e-20)
(-6.93064 0.107953 0)
(-9.81059 -1.47331 3.61628e-20)
(-9.05267 -1.00672 -7.07962e-21)
(-7.50619 -0.716539 2.61023e-21)
(-6.20106 -0.995883 0)
(-5.31091 -0.950889 1.02016e-21)
(-4.31744 -0.900782 -1.06791e-21)
(-3.24396 -1.16284 -2.07238e-21)
(-2.27843 -1.50281 -2.54786e-22)
(3.00543 -2.01093 2.49791e-19)
(14.1314 -2.00556 0)
(20.0967 -0.815233 -1.1533e-19)
(22.6996 -0.43857 0)
(24.2208 -0.2662 5.64475e-20)
(25.1388 -0.168631 7.53139e-20)
(25.6837 -0.105801 0)
(26.0054 -0.0826148 1.52895e-20)
(26.2131 -0.0601335 -1.01665e-20)
(26.2736 -0.010513 2.89841e-21)
(26.1828 0.0202997 -1.38064e-21)
(26.0465 0.00962406 0)
(26.0037 -0.0443497 0)
(26.0111 -0.0104243 -6.77006e-22)
(25.8085 0.0873877 0)
(25.6384 -0.0065132 -4.63913e-22)
(25.7278 -0.0967285 0)
(25.7312 0.0106409 0)
(25.4044 0.172925 -1.00532e-21)
(25.0222 0.0779192 0)
(24.7833 0.0306594 0)
(24.6138 0.0164984 -1.10754e-22)
(24.4986 0.00933861 -1.27778e-22)
(24.417 0.00588722 0)
(24.354 0.00426128 4.4432e-23)
(24.3029 0.00335869 -2.43121e-23)
(24.2599 0.00281135 8.50603e-24)
(24.2232 0.00251029 0)
(24.1905 0.00231771 6.97693e-24)
(24.1611 0.00205263 0)
(24.1354 0.00164086 -7.76335e-24)
(24.1131 0.00133817 0)
(24.0912 0.00171911 0)
(24.0651 0.00295149 4.50289e-26)
(24.0307 0.00429698 -3.26971e-26)
(23.99 0.00469885 0)
(23.95 0.00419784 0)
(0.573646 -0.849236 0)
(0.946971 -0.29839 0)
(1.19211 -0.125029 -2.83999e-21)
(1.29012 -0.0768098 0)
(1.35707 -0.0526666 0)
(1.39661 0.0216868 1.01044e-21)
(1.40761 0.0666295 -1.50925e-21)
(1.47125 0.205133 0)
(1.6494 0.336094 1.68388e-23)
(1.90742 -0.036517 5.46628e-21)
(2.21904 -0.452929 4.98438e-25)
(2.72405 -0.449461 1.50874e-20)
(3.20949 -0.0537988 -6.70855e-21)
(3.86949 1.81634 0)
(3.70371 1.52021 0)
(3.48205 0.953962 -1.66041e-19)
(5.89838 1.22669 0)
(-2.01653 -0.253887 0)
(-5.08594 -0.409225 -1.91412e-22)
(-5.35175 -0.782129 0)
(-4.21114 -0.609064 0)
(-2.56078 -0.366752 0)
(-3.82646 -2.99773 -1.56426e-18)
(17.3546 -7.46866 2.71269e-19)
(18.3807 -4.2709 2.72208e-20)
(21.2383 -2.23297 7.62576e-20)
(23.2735 -1.29554 0)
(24.6491 -0.795352 0)
(25.5358 -0.491105 3.20578e-20)
(26.0865 -0.294234 -1.69869e-23)
(26.4109 -0.174664 0)
(26.5772 -0.0928168 3.81967e-24)
(26.6424 -0.016041 -4.33105e-21)
(26.6469 0.0438245 0)
(26.6162 0.0486188 0)
(26.5558 0.0191177 -3.52688e-22)
(26.4588 0.0507591 0)
(26.3803 0.0914716 0)
(26.3131 0.0390893 0)
(26.2158 -0.00472332 1.61567e-22)
(26.0829 0.0799331 4.39761e-22)
(25.9574 0.176553 -2.94544e-22)
(25.8136 0.166498 -2.42193e-22)
(25.6473 0.127442 0)
(25.5076 0.091559 1.36869e-22)
(25.3999 0.06524 0)
(25.3167 0.0491536 -1.27107e-22)
(25.2505 0.0390114 4.5296e-23)
(25.198 0.0316475 2.45029e-23)
(25.1567 0.026085 -7.89176e-24)
(25.1239 0.0222207 -2.97454e-24)
(25.0964 0.0198569 -8.2775e-24)
(25.0717 0.0179517 2.30821e-23)
(25.0492 0.0158496 0)
(25.0288 0.0143685 0)
(25.0089 0.0152793 0)
(24.9851 0.0194499 0)
(24.9532 0.025092 3.62781e-24)
(24.9134 0.0275053 -1.24186e-23)
(24.8741 0.024433 0)
(0.587265 -1.04621 0)
(0.68592 -0.506664 -3.67746e-22)
(0.927299 -0.272326 0)
(1.11039 -0.12572 -2.44296e-21)
(1.19899 -0.103144 -6.11309e-22)
(1.27066 -0.0170187 -1.26002e-21)
(1.34305 0.0185908 0)
(1.49348 0.0470903 -3.37007e-21)
(1.83837 0.136357 0)
(2.18085 -0.0747163 0)
(2.35989 -0.541342 0)
(2.6993 -0.667047 0)
(3.12344 -0.422133 0)
(3.75628 0.567766 0)
(5.42627 1.20139 0)
(5.66784 1.04762 0)
(5.46518 2.0437 0)
(4.5758 2.79247 -2.50142e-20)
(-0.166193 1.31022 0)
(-0.101613 -1.15678 0)
(2.68769 -2.0249 0)
(8.26558 -3.28253 0)
(22.8208 -8.57895 0)
(21.1195 -7.99496 0)
(21.0239 -5.47138 0)
(22.3332 -3.464 0)
(23.7207 -2.20014 0)
(24.7962 -1.40494 0)
(25.5204 -0.88085 2.86557e-20)
(25.9656 -0.530233 0)
(26.2161 -0.304422 -1.19648e-20)
(26.3343 -0.153446 0)
(26.3752 -0.0380115 0)
(26.38 0.0427257 0)
(26.3603 0.0708929 0)
(26.3022 0.071195 0)
(26.2145 0.0977438 5.19865e-23)
(26.1454 0.122555 0)
(26.0813 0.0937777 0)
(25.9754 0.0779797 0)
(25.8555 0.140318 -2.92807e-22)
(25.767 0.217922 1.9148e-22)
(25.6892 0.228298 9.66436e-23)
(25.5983 0.19374 0)
(25.5122 0.147895 1.74458e-22)
(25.4397 0.109828 0)
(25.3788 0.0850918 0)
(25.3268 0.0679003 0)
(25.2856 0.0540629 0)
(25.2549 0.0430581 -1.45988e-23)
(25.2328 0.035298 0)
(25.2158 0.0310225 9.02298e-24)
(25.2002 0.028318 0)
(25.185 0.0255112 0)
(25.1703 0.0234635 9.22708e-24)
(25.1552 0.0251923 -9.02192e-24)
(25.1363 0.0326635 9.53067e-24)
(25.1089 0.0435052 2.09186e-24)
(25.0716 0.0494238 0)
(25.0338 0.0437873 3.75009e-24)
(0.563772 -1.12281 0)
(0.471076 -0.625761 0)
(0.621787 -0.456469 0)
(0.847274 -0.24595 0)
(1.03411 -0.181181 1.86169e-21)
(1.1339 -0.0693772 0)
(1.22392 -0.0402539 0)
(1.3869 -0.0762233 1.37043e-23)
(1.67259 -0.0678856 0)
(2.03213 -0.16547 -2.2913e-23)
(2.31136 -0.579836 -7.92884e-21)
(2.61477 -0.863168 0)
(2.9658 -0.751837 0)
(3.42158 -0.0569736 -7.66391e-24)
(4.20189 0.690503 2.71219e-24)
(4.60909 0.965788 3.27296e-23)
(4.69336 1.85705 5.81882e-21)
(4.10947 3.65139 0)
(3.22657 2.55543 5.27668e-21)
(6.32897 -2.21885 0)
(12.0696 -4.67835 -6.01431e-22)
(23.7768 -9.13009 1.30456e-22)
(23.1944 -8.6833 -1.1135e-23)
(22.6487 -7.83278 1.13104e-20)
(22.5333 -6.07872 -2.91531e-20)
(23.233 -4.3044 0)
(24.1524 -2.9238 0)
(24.9144 -1.92328 -1.03672e-22)
(25.4264 -1.21403 7.26167e-23)
(25.7232 -0.726287 0)
(25.8769 -0.408374 1.0483e-20)
(25.941 -0.20102 0)
(25.9574 -0.0577182 0)
(25.9567 0.0390279 0)
(25.9422 0.0865421 -1.88768e-21)
(25.8991 0.106459 0)
(25.8334 0.134069 0)
(25.7769 0.152794 8.85024e-23)
(25.7219 0.136853 -4.35736e-23)
(25.6401 0.132559 7.53664e-23)
(25.5525 0.18241 3.58608e-22)
(25.4957 0.245266 0)
(25.4614 0.26054 -1.14255e-22)
(25.4267 0.22999 0)
(25.3916 0.181134 -1.75182e-22)
(25.3599 0.138016 1.87277e-22)
(25.328 0.110519 0)
(25.2945 0.0896919 6.87936e-23)
(25.2673 0.0705167 0)
(25.2484 0.0544129 -1.66167e-23)
(25.2375 0.0426984 -1.60147e-24)
(25.231 0.0369683 -3.05288e-24)
(25.2243 0.0344251 7.19985e-24)
(25.2159 0.0319316 1.43557e-23)
(25.2063 0.0299081 0)
(25.1959 0.0325007 -1.21914e-23)
(25.182 0.0431833 -7.67656e-24)
(25.1599 0.0597962 -1.22022e-24)
(25.1255 0.0706798 0)
(25.0882 0.0618376 0)
(0.397903 -1.06995 -1.60516e-21)
(0.29893 -0.677245 7.59415e-22)
(0.436758 -0.59849 0)
(0.639664 -0.410092 6.98137e-22)
(0.82662 -0.283034 -1.52019e-22)
(0.916951 -0.137129 0)
(1.0242 -0.112788 0)
(1.21788 -0.191028 1.47892e-23)
(1.44315 -0.223299 -2.19935e-23)
(1.72019 -0.30328 3.68438e-21)
(2.06757 -0.657189 9.04392e-21)
(2.38747 -0.996549 -1.87902e-23)
(2.6573 -0.997764 -6.67534e-21)
(3.00024 -0.50207 0)
(3.43912 0.306263 5.67702e-24)
(3.7256 0.741195 6.84053e-21)
(3.80927 1.63806 0)
(3.74865 3.30178 3.19214e-20)
(5.14027 1.89372 3.55779e-20)
(13.2743 -4.82845 0)
(23.485 -9.5903 7.68703e-20)
(23.3945 -9.1142 -7.36506e-23)
(23.3953 -8.64396 0)
(23.2675 -7.86543 0)
(23.3189 -6.51377 2.80287e-20)
(23.8 -4.93466 1.96384e-22)
(24.4086 -3.49511 0)
(24.8825 -2.33464 0)
(25.1781 -1.47135 9.28136e-23)
(25.3334 -0.872052 0)
(25.4151 -0.486096 -1.73076e-20)
(25.457 -0.238541 -2.74441e-23)
(25.4778 -0.0770098 2.73708e-21)
(25.4938 0.0295398 -2.74618e-21)
(25.5011 0.0912578 1.19606e-21)
(25.4874 0.126626 2.98705e-22)
(25.455 0.158404 0)
(25.4218 0.175595 -2.39342e-25)
(25.3876 0.167704 0)
(25.3385 0.169213 -7.19798e-23)
(25.2887 0.207959 -9.40138e-23)
(25.2637 0.255763 -5.32848e-23)
(25.2631 0.268155 4.87904e-23)
(25.2693 0.240282 -1.25447e-22)
(25.2733 0.19194 1.55723e-22)
(25.275 0.148175 1.81332e-22)
(25.2691 0.124175 -4.7048e-22)
(25.2505 0.104193 3.00837e-25)
(25.2342 0.0811169 3.78439e-23)
(25.2238 0.06081 -1.49425e-23)
(25.2203 0.0450803 -2.27268e-24)
(25.2211 0.038344 0)
(25.2205 0.0369534 -6.09616e-24)
(25.2164 0.0358531 1.67538e-23)
(25.2095 0.034464 0)
(25.2015 0.03771 -1.69637e-23)
(25.1908 0.0510982 -1.04347e-23)
(25.1736 0.0735362 -6.09937e-26)
(25.1428 0.0916003 0)
(25.1051 0.0790898 -3.60152e-24)
(0.101432 -0.769094 -5.91049e-22)
(0.0892663 -0.739103 0)
(0.296904 -0.741575 -3.08878e-24)
(0.492708 -0.567327 0)
(0.659462 -0.38643 0)
(0.728895 -0.211779 8.06042e-22)
(0.812147 -0.174292 0)
(0.959478 -0.27177 1.40621e-21)
(1.14276 -0.344769 -2.58707e-21)
(1.38878 -0.421692 6.43961e-21)
(1.7312 -0.748459 -7.65274e-21)
(2.03017 -1.09507 -1.33157e-20)
(2.22451 -1.16013 2.42521e-20)
(2.4497 -0.841442 7.81588e-21)
(2.74353 -0.00238326 0)
(2.96472 0.561313 -1.86272e-20)
(2.90055 1.41321 0)
(2.77376 3.00224 0)
(7.0286 -1.769 -1.25892e-18)
(22.7977 -10.2747 0)
(22.8322 -9.67277 0)
(23.1231 -9.23683 -2.80867e-20)
(23.335 -8.76722 -5.07191e-20)
(23.4761 -8.04915 0)
(23.681 -6.90721 -2.97587e-20)
(24.0507 -5.4414 0)
(24.3957 -3.93077 3.61208e-20)
(24.5931 -2.6396 0)
(24.7228 -1.67873 3.84284e-20)
(24.8203 -1.00822 0)
(24.9192 -0.581602 -5.97685e-21)
(25.0108 -0.303855 3.36605e-21)
(25.0822 -0.122958 0)
(25.1407 -0.00250593 -8.59185e-22)
(25.183 0.0740249 3.47863e-22)
(25.2017 0.124779 -9.41134e-23)
(25.2008 0.164932 -2.33381e-24)
(25.1919 0.186278 -1.13896e-22)
(25.1764 0.184873 1.06388e-22)
(25.1498 0.189133 -4.00613e-25)
(25.1261 0.217613 0)
(25.1255 0.251491 -3.1996e-23)
(25.1489 0.25726 -4.5461e-23)
(25.1813 0.231326 0)
(25.2081 0.186703 4.89804e-25)
(25.2269 0.14476 -1.60566e-22)
(25.2371 0.12771 3.84888e-22)
(25.2277 0.113562 2.47499e-22)
(25.2172 0.0878634 -1.47845e-22)
(25.2104 0.0647806 -4.59273e-23)
(25.2084 0.0450726 1.48229e-23)
(25.2112 0.0372097 2.814e-23)
(25.2129 0.0373589 -2.40888e-23)
(25.2106 0.0384947 0)
(25.2038 0.0388003 -2.37055e-23)
(25.1947 0.042699 0)
(25.1835 0.0580101 -7.85149e-24)
(25.169 0.0845116 0)
(25.1447 0.111116 0)
(25.1094 0.0969493 0)
(0.0729464 -0.476921 2.05577e-21)
(0.0290331 -0.803726 0)
(0.187074 -0.857898 0)
(0.361084 -0.730448 3.18592e-22)
(0.520333 -0.499664 0)
(0.558861 -0.265203 0)
(0.564062 -0.20826 0)
(0.636028 -0.316338 0)
(0.74615 -0.42942 0)
(0.942731 -0.535769 0)
(1.26659 -0.863962 0)
(1.5566 -1.17132 -1.14096e-20)
(1.69386 -1.2495 0)
(1.78932 -1.06259 0)
(1.8893 -0.266653 -2.87357e-20)
(0.0679297 0.316049 0)
(1.6259 1.19616 4.73657e-22)
(-0.708064 3.37786 0)
(22.1631 -11.1601 -4.4691e-22)
(21.9262 -10.3125 0)
(22.3604 -9.89368 0)
(22.7919 -9.50099 -2.87555e-20)
(23.1734 -9.01623 -2.90868e-20)
(23.4755 -8.32316 2.93086e-20)
(23.7451 -7.27991 -3.31483e-20)
(23.9665 -5.84882 0)
(24.0102 -4.30358 1.65714e-22)
(23.9999 -2.93595 1.21792e-22)
(24.1219 -1.85025 0)
(24.3561 -1.10906 1.90153e-20)
(24.5639 -0.649846 0)
(24.7386 -0.350797 3.01088e-20)
(24.8711 -0.156217 -3.2486e-23)
(24.9701 -0.0285128 2.77087e-20)
(25.0389 0.0578523 0)
(25.0737 0.115842 -1.73337e-20)
(25.0891 0.160761 1.11015e-20)
(25.0991 0.186508 7.25055e-21)
(25.0948 0.190181 2.57418e-21)
(25.0691 0.196613 1.92432e-21)
(25.0486 0.218638 0)
(25.0642 0.243474 -1.02208e-21)
(25.1066 0.244596 -1.06738e-21)
(25.1562 0.220872 5.63189e-24)
(25.1932 0.181652 0)
(25.2098 0.142228 -2.20919e-21)
(25.2148 0.12723 2.73956e-21)
(25.2132 0.11827 -3.00603e-21)
(25.2058 0.0914214 0)
(25.2 0.0674284 -1.45034e-21)
(25.1963 0.0456097 0)
(25.1955 0.0367335 0)
(25.1967 0.037326 0)
(25.196 0.0395952 0)
(25.1901 0.0413124 0)
(25.178 0.0455688 0)
(25.1626 0.0616713 0)
(25.1464 0.0889569 1.1549e-22)
(25.133 0.120388 3.65916e-23)
(25.1177 0.107862 -3.0257e-23)
(-0.0586702 -0.212041 0)
(-0.0598367 -0.805492 7.35824e-24)
(0.0770266 -0.939203 -1.29529e-21)
(0.220755 -0.864612 -1.60817e-21)
(0.327444 -0.628119 0)
(0.372675 -0.314326 0)
(0.327456 -0.190717 0)
(0.304342 -0.315765 -1.72728e-21)
(0.358507 -0.462978 0)
(0.50558 -0.619918 0)
(0.764385 -0.945192 0)
(0.992205 -1.23978 -9.41654e-21)
(1.10568 -1.30206 0)
(1.20406 -1.16872 0)
(1.76787 -0.808198 2.62411e-19)
(-15.3769 5.38715 0)
(-11.5247 0.0809306 0)
(21.4904 -12.1608 0)
(20.8004 -11.0147 -3.31654e-20)
(21.3701 -10.6085 -2.93049e-20)
(21.9466 -10.2544 0)
(22.5029 -9.84933 -3.13733e-20)
(22.9708 -9.33691 -3.21763e-20)
(23.3139 -8.63031 -3.38755e-20)
(23.5022 -7.62691 -3.71376e-20)
(23.4334 -6.199 0)
(23.1851 -4.51544 0)
(22.8745 -2.94587 0)
(22.6857 -2.20285 0)
(22.6193 -1.21658 0)
(22.5714 -0.779139 0)
(22.5234 -0.473285 9.03595e-21)
(22.5307 -0.257634 0)
(22.5831 -0.150651 0)
(22.7472 -0.18502 -5.97697e-22)
(23.0225 -0.0784019 4.98131e-21)
(23.251 0.0832987 -7.84155e-24)
(23.3793 0.158725 0)
(23.4402 0.203175 0)
(23.4644 0.226148 0)
(23.4888 0.214429 0)
(23.5325 0.197427 0)
(23.5938 0.180688 0)
(23.6506 0.167188 0)
(23.6858 0.157702 0)
(23.6916 0.147893 0)
(23.6736 0.151749 0)
(23.6661 0.142764 0)
(23.6704 0.110281 0)
(23.6872 0.074151 3.28224e-22)
(23.7161 0.0419846 0)
(23.7518 0.0235964 0)
(23.79 0.0238661 0)
(23.8253 0.0314166 0)
(23.8548 0.0394468 7.95382e-23)
(23.8743 0.0509633 0)
(23.8833 0.0734532 0)
(23.886 0.103739 0)
(23.8955 0.130455 0)
(23.9179 0.123523 -1.2158e-24)
(-0.496712 0.18779 3.40286e-23)
(-0.112449 -0.743731 0)
(-0.0204815 -1.00832 -5.16062e-21)
(0.111899 -0.967591 0)
(0.142003 -0.726902 0)
(0.127703 -0.398226 0)
(0.094819 -0.145416 -1.99733e-21)
(-0.0146291 -0.257931 0)
(-0.0315665 -0.455816 -2.95138e-22)
(0.0429506 -0.660885 0)
(0.196137 -0.984074 -5.76158e-21)
(0.343222 -1.28691 1.09697e-20)
(0.439201 -1.3665 0)
(0.641879 -1.15439 0)
(-17.1656 8.2101 -4.04105e-18)
(-8.89862 2.13737 1.90071e-18)
(20.2268 -12.8648 4.77782e-19)
(19.6823 -11.8382 -5.47557e-20)
(20.2564 -11.3901 -2.65274e-20)
(20.9497 -11.0493 0)
(21.6468 -10.6853 3.20533e-20)
(22.2538 -10.2425 -3.38371e-20)
(22.6988 -9.67315 0)
(22.94 -8.95047 3.3798e-20)
(22.9276 -7.90875 0)
(22.2815 -5.79896 -8.89252e-20)
(21.2561 -4.30619 1.76031e-20)
(20.747 -2.97868 0)
(20.4821 -2.09529 0)
(20.3249 -1.27484 0)
(20.2994 -0.783027 1.09756e-20)
(20.247 -0.476889 6.90768e-21)
(20.2193 -0.274456 -9.46767e-21)
(20.2271 -0.177704 0)
(20.2379 -0.214429 2.07182e-21)
(20.2548 -0.162188 2.44823e-21)
(20.3609 -0.0169406 1.66726e-21)
(20.4922 0.087885 -2.99838e-21)
(20.5993 0.147239 1.70388e-21)
(20.6872 0.176629 1.67918e-21)
(20.767 0.18239 -6.88935e-22)
(20.8429 0.179477 -3.32815e-24)
(20.9167 0.172217 6.9627e-22)
(20.9815 0.162797 7.88431e-22)
(21.0343 0.152496 8.34725e-22)
(21.0753 0.142837 -8.29127e-22)
(21.1158 0.137816 0)
(21.1742 0.119198 -4.75859e-22)
(21.2408 0.0841957 -3.71503e-24)
(21.3105 0.0458578 0)
(21.3779 0.0140655 0)
(21.4391 -0.00261265 0)
(21.495 -0.00187944 0)
(21.5467 0.00687882 -1.55544e-22)
(21.5908 0.0180357 0)
(21.6236 0.0342058 0)
(21.6472 0.0589746 1.50807e-22)
(21.6691 0.0878574 1.23778e-22)
(21.6982 0.107247 7.05279e-23)
(21.7331 0.0964626 2.15625e-23)
(-0.608083 0.66608 0)
(-0.15726 -0.646753 0)
(-0.0663696 -1.05982 0)
(0.0200184 -1.04021 0)
(-0.00963667 -0.78232 0)
(-0.113901 -0.455197 0)
(-0.213183 -0.133334 0)
(-0.350753 -0.142067 0)
(-0.435247 -0.397338 0)
(-0.452147 -0.636686 0)
(-0.43391 -0.950952 0)
(-0.419023 -1.29543 0)
(-0.307967 -1.37453 0)
(-5.19763 4.19939 0)
(-14.2582 9.07885 0)
(18.7563 -13.8667 0)
(18.5668 -12.5503 0)
(19.12 -12.1925 0)
(19.8579 -11.8835 0)
(20.6819 -11.5581 0)
(21.4232 -11.1547 0)
(21.9684 -10.6275 0)
(22.2555 -10.0042 0)
(22.4381 -9.19586 0)
(20.6303 -7.32729 0)
(19.549 -5.71908 0)
(18.8285 -4.20071 1.90103e-20)
(18.3613 -2.95867 0)
(18.0828 -2.06762 0)
(17.9074 -1.33515 0)
(17.8718 -0.822017 0)
(17.8577 -0.497417 0)
(17.8592 -0.293111 0)
(17.8799 -0.190649 0)
(17.8863 -0.197017 0)
(17.8613 -0.181876 0)
(17.896 -0.0868226 0)
(17.9927 0.0111175 0)
(18.1084 0.0793104 0)
(18.2248 0.116702 0)
(18.3342 0.129034 0)
(18.4329 0.129801 0)
(18.5223 0.126841 0)
(18.6034 0.122797 0)
(18.6795 0.117208 0)
(18.7551 0.108896 0)
(18.8392 0.0967167 0)
(18.9374 0.0718946 0)
(19.0397 0.0359179 1.08145e-22)
(19.1383 -0.000607846 -1.52944e-22)
(19.2277 -0.0283738 0)
(19.3063 -0.0408232 0)
(19.3771 -0.0375906 0)
(19.4421 -0.0253518 0)
(19.4993 -0.00849182 -9.74618e-24)
(19.5468 0.0135607 -3.23911e-23)
(19.5875 0.0411138 7.92698e-23)
(19.6274 0.0686819 0)
(19.6708 0.0847477 7.39309e-23)
(19.713 0.0768621 0)
(-0.592903 0.951837 3.26455e-21)
(-0.244994 -0.499107 0)
(-0.0803538 -1.05935 8.5711e-22)
(-0.0623794 -1.08483 -2.69952e-21)
(-0.134029 -0.811443 0)
(-0.301587 -0.452168 0)
(-0.50945 -0.119269 0)
(-0.669277 -0.0144199 3.51426e-22)
(-0.84169 -0.271669 -3.71883e-22)
(-0.9695 -0.54009 0)
(-1.11232 -0.816585 -7.54435e-21)
(-1.29442 -1.24132 0)
(-1.32841 -1.12012 0)
(-23.0694 14.0135 -3.62691e-18)
(3.91013 -2.94572 1.06494e-18)
(17.3285 -13.115 -5.84404e-20)
(17.9355 -12.8773 -5.58466e-23)
(18.7105 -12.6948 0)
(19.6355 -12.4563 -5.9274e-20)
(20.5171 -12.1082 6.79715e-20)
(21.1719 -11.6041 1.81906e-22)
(21.5115 -10.9841 -6.2063e-20)
(21.7565 -10.2438 7.31755e-20)
(19.7086 -8.33934 2.27774e-20)
(18.3902 -7.0229 0)
(17.2097 -5.46205 1.00638e-22)
(16.4234 -4.05912 1.38404e-20)
(15.9215 -2.91545 0)
(15.6314 -2.05046 9.68876e-21)
(15.4699 -1.374 7.15061e-21)
(15.4333 -0.875167 -5.25794e-21)
(15.454 -0.543004 3.43572e-21)
(15.501 -0.333232 0)
(15.5623 -0.22097 0)
(15.6108 -0.197195 0)
(15.6261 -0.187517 0)
(15.6625 -0.132505 -1.064e-21)
(15.7479 -0.0591014 1.51215e-21)
(15.865 0.0026093 4.09017e-24)
(15.9937 0.0423493 1.72605e-21)
(16.12 0.0616897 1.60664e-21)
(16.2369 0.0693603 0)
(16.3449 0.0717158 -7.63835e-22)
(16.4473 0.0707257 0)
(16.5491 0.0654061 0)
(16.655 0.0540752 0)
(16.7697 0.0354618 0)
(16.8922 0.00710401 0)
(17.0143 -0.0272354 0)
(17.1285 -0.0590277 1.00508e-22)
(17.2312 -0.0807551 0)
(17.3227 -0.0880346 1.31585e-22)
(17.406 -0.0814295 1.01254e-22)
(17.4831 -0.0655185 -5.23306e-23)
(17.553 -0.0437772 7.31676e-24)
(17.6154 -0.0171914 0)
(17.6725 0.0125262 8.41984e-23)
(17.7277 0.0399056 1.27006e-22)
(17.7823 0.0560702 0)
(17.8303 0.0535391 2.2251e-23)
(-0.549212 1.12014 -3.63875e-21)
(-0.287067 -0.307272 0)
(-0.0953494 -1.01619 0)
(-0.120324 -1.09324 2.74954e-21)
(-0.235876 -0.828021 0)
(-0.437961 -0.413324 -2.74172e-21)
(-0.738647 -0.0502287 -4.5504e-21)
(-1.00271 0.119957 0)
(-1.28742 -0.071015 -2.26319e-21)
(-1.51939 -0.373483 -3.70466e-21)
(-1.80551 -0.574296 2.4775e-20)
(-2.15672 -1.05652 0)
(-3.75243 1.31445 0)
(-15.227 10.0132 0)
(15.9527 -13.588 -1.29339e-19)
(16.6577 -13.4644 -5.50026e-23)
(17.486 -13.3918 0)
(18.5197 -13.31 0)
(19.5439 -13.0825 6.61245e-20)
(20.3289 -12.6288 0)
(20.734 -11.9975 -6.62211e-20)
(20.9562 -11.241 0)
(19.2371 -9.33317 2.0024e-20)
(17.6844 -7.83105 1.95001e-20)
(16.2512 -6.45632 1.35837e-20)
(15.0203 -5.1012 1.11508e-20)
(14.1503 -3.86135 0)
(13.5938 -2.83201 0)
(13.2733 -2.02973 -6.63073e-21)
(13.1132 -1.40668 0)
(13.081 -0.938361 3.23061e-21)
(13.1276 -0.613215 1.94123e-21)
(13.2152 -0.401921 0)
(13.3215 -0.280668 4.43101e-22)
(13.422 -0.23364 1.34264e-22)
(13.4974 -0.215988 -1.01226e-24)
(13.5725 -0.18129 -9.54883e-22)
(13.6736 -0.129816 -1.40202e-21)
(13.8003 -0.0792142 0)
(13.9399 -0.0408284 -1.7013e-21)
(14.0803 -0.0168281 1.63508e-21)
(14.2148 -0.00338144 -1.56703e-21)
(14.3432 0.00311438 7.70542e-22)
(14.4687 0.00359778 -7.65e-22)
(14.5953 -0.00286004 7.37236e-22)
(14.726 -0.0172943 6.65226e-22)
(14.8616 -0.0395488 0)
(14.9993 -0.06838 3.4311e-22)
(15.1325 -0.0991986 -1.28093e-22)
(15.2562 -0.125176 5.83097e-23)
(15.3685 -0.140707 0)
(15.4706 -0.143013 0)
(15.565 -0.132863 0)
(15.6536 -0.113454 0)
(15.736 -0.0876835 0)
(15.8124 -0.0574634 4.68912e-23)
(15.884 -0.0254413 8.84279e-23)
(15.9521 0.00344615 0)
(16.0156 0.0225636 1.23272e-25)
(16.0687 0.0272295 2.61044e-23)
(-0.413695 1.10385 0)
(-0.270584 -0.16663 0)
(-0.104105 -0.928414 -1.35842e-21)
(-0.16437 -1.06327 0)
(-0.322852 -0.82274 0)
(-0.567001 -0.373282 3.97496e-21)
(-0.921065 0.0787038 -8.37763e-21)
(-1.32089 0.311498 0)
(-1.70779 0.193603 0)
(-2.06241 -0.136309 -3.10847e-23)
(-2.50183 -0.255251 0)
(-3.22141 -0.170254 0)
(-18.507 14.8324 1.57261e-18)
(16.0134 -15.3586 -2.8132e-19)
(15.4249 -13.9331 -4.86831e-20)
(16.2103 -13.9582 -4.19526e-20)
(17.316 -14.0436 -5.37784e-20)
(18.4924 -14.0021 -8.98976e-23)
(19.4372 -13.6794 -7.24286e-20)
(19.9446 -13.0637 0)
(20.1348 -12.2816 0)
(18.9772 -10.4818 -7.76828e-20)
(17.1512 -8.64872 -4.7764e-20)
(15.548 -7.15951 3.46172e-20)
(14.1142 -5.86827 1.21148e-20)
(12.9085 -4.67814 0)
(12.0137 -3.60504 -7.39148e-21)
(11.4207 -2.70486 5.89365e-21)
(11.0715 -1.98972 -4.39685e-21)
(10.903 -1.43119 0)
(10.8726 -1.00593 1.70278e-21)
(10.9357 -0.700957 -7.60381e-22)
(11.0533 -0.495678 0)
(11.1977 -0.369975 -2.02523e-22)
(11.3446 -0.307179 3.59636e-22)
(11.4761 -0.278038 5.84705e-22)
(11.5991 -0.249239 -1.8943e-21)
(11.7307 -0.210706 0)
(11.8763 -0.169228 -1.54951e-21)
(12.031 -0.133262 0)
(12.1874 -0.106702 1.62856e-21)
(12.3406 -0.0892628 -2.85931e-24)
(12.4901 -0.0798772 7.70821e-22)
(12.6379 -0.0784882 -7.51911e-22)
(12.7864 -0.0856893 0)
(12.9365 -0.101475 -6.22678e-22)
(13.087 -0.12431 -4.94821e-22)
(13.2349 -0.151167 -2.66615e-24)
(13.3758 -0.177341 1.35965e-22)
(13.5067 -0.197429 0)
(13.6272 -0.207313 0)