/*--------------------------------*- C++ -*----------------------------------*\
| =========                 |                                                 |
| \\      /  F ield         | OpenFOAM: The Open Source CFD Toolbox           |
|  \\    /   O peration     | Version:  v1912                                 |
|   \\  /    A nd           | Website:  www.openfoam.com                      |
|    \\/     M anipulation  |                                                 |
\*---------------------------------------------------------------------------*/
FoamFile
{
    version     2.0;
    format      ascii;
    class       volScalarField;
    location    "34";
    object      alpha.water;
}
// * * * * * * * * * * * * * * * * * * * * * * * * * * * * * * * * * * * * * //

dimensions      [0 0 0 0 0 0 0];


internalField   nonuniform List<scalar> 
20320
(
1
1
1
1
1
1
1
1
1
1
1
1
1
1
1
1
1
1
1
1
1
1
1
1
1
1
1
1
1
1
1
1
1
1
1
1
1
1
1
1
1
1
1
1
1
1
1
1
1
1
1
1
1
1
1
1
1
1
1
1
1
1
1
1
1
1
1
1
1
1
1
1
1
1
1
1
1
1
1
1
1
1
1
1
1
1
1
1
1
1
1
1
1
1
1
1
1
1
1
1
1
1
1
1
1
1
1
1
1
1
1
1
1
1
1
1
1
1
1
1
1
1
1
1
1
1
1
1
1
1
1
1
1
1
1
1
1
1
1
1
1
1
1
1
1
1
1
1
1
1
1
1
1
1
1
1
1
1
1
1
1
1
1
1
1
1
1
1
1
1
1
1
1
1
1
1
1
1
1
1
1
1
1
1
1
1
1
1
1
1
1
1
1
1
1
1
1
1
1
1
1
1
1
1
1
1
1
1
1
1
1
1
1
1
1
1
1
1
1
1
1
1
1
1
1
1
1
1
1
1
1
1
1
1
1
1
1
1
1
1
1
1
1
1
1
1
1
1
1
1
1
1
1
1
1
1
1
1
1
1
1
1
1
1
1
1
1
1
1
1
1
1
1
1
1
1
1
1
1
1
1
1
1
1
1
1
1
1
1
1
1
1
1
1
1
1
1
1
1
1
1
1
1
1
1
1
1
1
1
1
1
1
1
1
1
1
1
1
1
1
1
1
1
1
1
1
1
1
1
1
1
1
1
1
1
1
1
1
1
1
1
1
1
1
1
1
1
1
1
1
1
1
1
1
1
1
1
1
1
1
1
1
1
1
1
1
1
1
1
1
1
1
1
1
1
1
1
1
1
1
1
1
1
1
1
1
1
1
1
1
1
1
1
1
1
1
1
1
1
1
0.999275
0.999683
0.999607
0.999936
1
0.999704
0.999404
0.983764
0.999948
0.999989
0.476656
0.715314
0.556767
0.180501
0.311862
0.312453
0.394751
0.401006
0.0746676
0.00277434
0.175034
0.174901
0.0510971
0.302614
0.737763
0.907837
0.889357
0.997488
1
0.641607
0.636619
0.825159
1
1
1
1
1
1
1
1
1
0.94477
0.94477
0.998979
1
1
0.757812
0.740991
0.882951
1
1
1
1
1
1
1
1
1
1
1
0.989038
0.993377
1
1
1
0.994003
0.999183
0.999168
0.999989
0.99855
0.855225
0.295011
0.5977
0.236689
9.52231e-21
-2.8693e-23
-6.75409e-25
7.73068e-22
0.000776411
0.000596119
2.0621e-07
9.74259e-05
-4.53507e-21
0.0169061
1
1
1
1
1
1
1
1
0.999999
1
1
1
1
1
1
1
1
1
1
1
1
1
1
1
1
1
1
1
1
1
1
1
1
1
1
1
0.814934
0.977438
0.875041
0.872296
0.888627
0.918489
0.870293
0.870284
0.870275
0.987795
0.999989
0.612106
0.189552
0.543595
-4.42435e-21
-1.49991e-29
0.000257752
0.00015656
-1.86346e-21
1.09093e-05
0.000941712
9.13076e-06
1.89896e-20
0.804496
1
1
1
1
1
1
1
1
1
1
1
1
1
1
1
1
1
1
1
1
1
1
1
1
1
1
1
1
1
1
1
1
1
1
1
1
0.808762
0.808761
0.858529
0.999965
0.988244
0.991083
0.999778
1
0.997492
0.998107
0.884261
0.991044
0.941459
0.0479735
0.00125487
0.00138432
0.000172593
2.50304e-20
0.556789
0.0833004
5.39496e-05
-1.6582e-22
0.520597
1
1
1
1
1
1
1
1
1
1
1
1
1
1
1
1
1
1
1
1
1
1
1
1
1
1
1
1
1
1
1
1
1
1
1
1
1
0.904978
1
1
0.905424
0.943721
1
1
1
1
0.987682
0.972467
1
0.468419
0.0169064
1.76195e-08
2.59234e-05
2.20213e-05
0.359336
1
0.142616
-6.20358e-21
0.160576
1
1
1
1
1
1
1
1
1
1
1
1
1
1
1
1
1
1
1
1
1
1
1
1
1
1
1
1
1
1
1
1
1
1
1
1
1
1
0.999994
0.999663
1
0.921141
0.962135
0.973566
0.97904
0.996091
1
1
0.999985
1
0.676695
1.09102e-20
3.90536e-07
-1.88188e-14
4.31873e-20
0.985493
0.740303
5.83281e-21
0.0432232
1
1
1
1
1
1
1
1
1
1
1
1
1
1
1
1
1
1
0.999074
0.991764
0.980732
0.979269
0.981217
0.984804
0.988697
0.998714
1
1
1
1
1
1
1
1
0.998404
0.966363
0.906083
0.905192
0.907741
0.999937
1
0.798946
0.901084
0.994695
0.944666
0.915049
0.836758
0.836759
0.890446
1
1
0.995483
0.919379
0.577632
0.701572
0.99369
1
0.0417301
-2.26815e-18
1
1
1
1
1
1
1
1
0.854576
0.55008
0.337397
0.238514
0.169067
0.111859
0.0513786
0.00224419
1.07474e-21
-1.02827e-20
-1.67567e-20
-2.09295e-20
-2.29531e-20
-2.26131e-20
-1.8641e-20
-9.49311e-21
-1.81766e-22
0.00155198
0.00865889
0.0262224
0.0357391
0.032955
0.0217505
0.00557283
6.954e-21
-4.93203e-21
1.56983e-21
-8.98676e-22
-1.42915e-21
4.60867e-22
-1.39243e-21
-1.86353e-21
1
1
0.970262
1
0.999918
0.999174
0.992885
0.997879
0.981937
0.996271
1
0.995356
0.981994
1
1
0.999856
0.999891
0.501639
4.94751e-19
0.907591
1
1
1
1
1
1
0.562336
2.2986e-19
-2.16685e-21
-1.27945e-20
-2.29969e-20
-2.60427e-20
-2.5228e-20
-2.49208e-20
-2.58521e-20
-2.71212e-20
-2.79302e-20
-2.79541e-20
-2.72431e-20
-2.60151e-20
-2.45476e-20
-2.30761e-20
-2.17457e-20
-2.05304e-20
-1.93086e-20
-1.80855e-20
-1.69851e-20
-1.59241e-20
-1.48253e-20
-1.38902e-20
-1.32584e-20
-1.33833e-20
-1.48963e-20
-1.68523e-20
-1.86424e-20
-2.02321e-20
-2.16569e-20
-2.29001e-20
-2.38971e-20
-2.4599e-20
1
0.897614
0.993152
0.999959
0.999705
1
0.959222
0.933375
0.878261
0.995233
1
0.999942
1
1
0.968043
0.995464
0.997069
2.22039e-18
0.727889
1
1
1
1
1
1
0.0468713
-1.17666e-20
-2.38544e-20
-2.67537e-20
-2.06503e-20
-1.60626e-20
-1.44195e-20
-1.47046e-20
-1.58838e-20
-1.73648e-20
-1.84129e-20
-1.82475e-20
-1.71502e-20
-1.55573e-20
-1.38861e-20
-1.23953e-20
-1.11738e-20
-1.02147e-20
-9.48597e-21
-8.99294e-21
-8.79674e-21
-8.92398e-21
-9.30795e-21
-9.86048e-21
-1.05094e-20
-1.11675e-20
-1.16921e-20
-1.20151e-20
-1.22619e-20
-1.24987e-20
-1.27137e-20
-1.28962e-20
-1.30546e-20
-1.32092e-20
-1.33905e-20
1
0.656134
1
0.999465
1
0.944094
0.921947
0.99491
0.996233
0.841652
0.890847
1
1
0.771882
0.912539
0.999975
-6.17551e-20
0.342037
1
1
1
1
1
1
-3.78614e-18
-1.44661e-20
-2.34192e-20
-2.12106e-20
-1.60732e-20
-1.26133e-20
-1.05907e-20
-9.53057e-21
-9.01597e-21
-8.70832e-21
-8.45386e-21
-8.15985e-21
-7.73992e-21
-7.27061e-21
-6.83053e-21
-6.46327e-21
-6.17309e-21
-5.94691e-21
-5.77976e-21
-5.68308e-21
-5.68108e-21
-5.79719e-21
-6.02381e-21
-6.31378e-21
-6.61447e-21
-6.88891e-21
-7.09972e-21
-7.20071e-21
-7.20101e-21
-7.18987e-21
-7.21148e-21
-7.26401e-21
-7.34326e-21
-7.44801e-21
-7.58549e-21
-7.76482e-21
1
0.656134
1
0.991192
1
0.917892
0.944875
0.85349
0.940626
0.996017
1
1
0.770033
0.887725
1
0.233266
1.07389e-19
1
1
1
1
1
1
0.00365861
-1.52125e-20
-1.71578e-20
-1.22896e-20
-1.00152e-20
-8.57184e-21
-7.5887e-21
-6.88551e-21
-6.38331e-21
-5.99562e-21
-5.65144e-21
-5.31385e-21
-4.95526e-21
-4.5786e-21
-4.23568e-21
-3.97405e-21
-3.80497e-21
-3.70897e-21
-3.6561e-21
-3.62424e-21
-3.60846e-21
-3.62025e-21
-3.6751e-21
-3.77259e-21
-3.89185e-21
-4.00799e-21
-4.10247e-21
-4.15434e-21
-4.1469e-21
-4.10041e-21
-4.05329e-21
-4.02663e-21
-4.02463e-21
-4.0454e-21
-4.09266e-21
-4.16891e-21
-4.27316e-21
0.985689
0.818353
0.998207
0.998289
0.719243
0.947346
1
1
0.999501
1
1
0.985945
1
1
0.638471
-2.23988e-20
0.910579
1
1
1
1
1
0.0774812
-2.86156e-20
-1.08888e-20
-8.22751e-21
-7.02722e-21
-5.89736e-21
-5.12357e-21
-4.59199e-21
-4.17744e-21
-3.82991e-21
-3.52189e-21
-3.23659e-21
-2.9721e-21
-2.73259e-21
-2.52716e-21
-2.36768e-21
-2.25444e-21
-2.17384e-21
-2.10798e-21
-2.04464e-21
-1.98258e-21
-1.93027e-21
-1.89968e-21
-1.89783e-21
-1.92064e-21
-1.95498e-21
-1.98662e-21
-2.00528e-21
-2.00534e-21
-1.98028e-21
-1.93559e-21
-1.89397e-21
-1.86434e-21
-1.85027e-21
-1.85427e-21
-1.87667e-21
-1.91552e-21
-1.96713e-21
0.779776
1
0.999219
0.742003
0.864125
1
0.945518
0.992384
1
0.99559
0.972357
0.999433
0.999995
1
-2.48585e-20
0.0539196
1
1
1
1
1
0.246641
9.06003e-36
-1.10489e-20
-6.69507e-21
-5.12846e-21
-4.2157e-21
-3.54723e-21
-3.05554e-21
-2.66606e-21
-2.34218e-21
-2.06834e-21
-1.83428e-21
-1.63589e-21
-1.47386e-21
-1.34601e-21
-1.24544e-21
-1.1637e-21
-1.09253e-21
-1.02578e-21
-9.60956e-22
-8.99588e-22
-8.45941e-22
-8.04821e-22
-7.79111e-22
-7.6807e-22
-7.67031e-22
-7.6916e-22
-7.68205e-22
-7.60306e-22
-7.44533e-22
-7.22963e-22
-7.00176e-22
-6.81243e-22
-6.69587e-22
-6.6655e-22
-6.71914e-22
-6.84388e-22
-7.01985e-22
-7.2244e-22
1
1
0.880735
0.641244
1
0.982709
0.878325
0.884093
0.999434
0.997025
0.997003
1
1
0.140242
3.27671e-05
0.833675
1
1
1
1
0.710496
1.73737e-19
-8.96436e-21
-7.31788e-21
-4.95529e-21
-3.52845e-21
-2.63994e-21
-2.07921e-21
-1.69127e-21
-1.39247e-21
-1.15673e-21
-9.70706e-22
-8.23669e-22
-7.08585e-22
-6.19717e-22
-5.49933e-22
-4.91921e-22
-4.40626e-22
-3.93745e-22
-3.50984e-22
-3.13077e-22
-2.81057e-22
-2.55697e-22
-2.37145e-22
-2.24716e-22
-2.16917e-22
-2.11741e-22
-2.07193e-22
-2.01875e-22
-1.95276e-22
-1.87719e-22
-1.8012e-22
-1.73638e-22
-1.69249e-22
-1.67455e-22
-1.68294e-22
-1.71501e-22
-1.76672e-22
-1.83376e-22
-1.91242e-22
1
0.997072
0.733029
1
0.998944
1
1
1
0.999862
1
1
1
1
0.000964447
1.93052e-22
1
1
1
1
1
1.47133e-18
-1.04801e-20
-9.49828e-21
-5.75345e-21
-3.6558e-21
-2.40661e-21
-1.65688e-21
-1.18899e-21
-8.76878e-22
-6.5823e-22
-5.02174e-22
-3.89262e-22
-3.06656e-22
-2.45727e-22
-2.00051e-22
-1.64631e-22
-1.36043e-22
-1.12422e-22
-9.29138e-23
-7.71056e-23
-6.46569e-23
-5.51663e-23
-4.81651e-23
-4.31413e-23
-3.95812e-23
-3.70019e-23
-3.49945e-23
-3.3267e-23
-3.16737e-23
-3.02071e-23
-2.89544e-23
-2.80487e-23
-2.76275e-23
-2.78019e-23
-2.86482e-23
-3.02204e-23
-3.25749e-23
-3.57917e-23
-3.99893e-23
-4.53266e-23
1
0.983241
1
0.920408
1
1
0.999791
0.999801
0.98151
0.661733
0.527322
0.58825
0.00509467
0.00382964
0.282816
1
1
1
1
0.226925
-2.64024e-20
-1.36006e-20
-6.80825e-21
-3.97998e-21
-2.44299e-21
-1.51515e-21
-9.5508e-22
-6.14402e-22
-4.01884e-22
-2.66803e-22
-1.79735e-22
-1.22933e-22
-8.54662e-23
-6.03956e-23
-4.32805e-23
-3.13236e-23
-2.28219e-23
-1.67468e-23
-1.24313e-23
-9.4013e-24
-7.29744e-24
-5.84715e-24
-4.85024e-24
-4.16371e-24
-3.68872e-24
-3.35863e-24
-3.13126e-24
-2.98355e-24
-2.90764e-24
-2.90721e-24
-2.99403e-24
-3.18591e-24
-3.50579e-24
-3.98215e-24
-4.64974e-24
-5.55114e-24
-6.73869e-24
-8.27618e-24
-1.02384e-23
-1.27052e-23
1
0.988753
0.961252
0.41972
1
1
0.998859
0.991029
0.0464455
-2.53867e-20
-3.30589e-24
8.31705e-21
0.0163933
0.00473656
0.81141
1
1
1
1
-3.73133e-19
-8.75631e-21
-6.91499e-21
-4.31386e-21
-2.59448e-21
-1.51097e-21
-8.55694e-22
-4.80887e-22
-2.69676e-22
-1.5088e-22
-8.44561e-23
-4.75093e-23
-2.69794e-23
-1.55141e-23
-9.04479e-24
-5.34567e-24
-3.20567e-24
-1.95749e-24
-1.22539e-24
-7.93661e-25
-5.36848e-25
-3.82327e-25
-2.88357e-25
-2.31258e-25
-1.9772e-25
-1.80405e-25
-1.75487e-25
-1.8128e-25
-1.97491e-25
-2.24812e-25
-2.64713e-25
-3.19365e-25
-3.91669e-25
-4.85395e-25
-6.05258e-25
-7.57043e-25
-9.4761e-25
-1.18493e-24
-1.47791e-24
-1.83596e-24
-2.26608e-24
0.995329
0.588905
0.745889
0.542115
0.962126
0.739526
0.999947
0.292028
-7.27746e-23
0.00013039
0.174393
0.0956821
0.0524614
9.76237e-21
0.994806
1
1
1
0.216912
2.12589e-36
-6.82818e-21
-4.7412e-21
-2.87318e-21
-1.60495e-21
-8.39956e-22
-4.19324e-22
-2.0212e-22
-9.40842e-23
-4.24308e-23
-1.87071e-23
-8.14938e-24
-3.54114e-24
-1.54592e-24
-6.82629e-25
-3.07439e-25
-1.4279e-25
-6.9357e-26
-3.58011e-26
-1.99964e-26
-1.233e-26
-8.5716e-27
-6.83232e-27
-6.26165e-27
-6.48599e-27
-7.36118e-27
-8.85867e-27
-1.10098e-26
-1.38751e-26
-1.75302e-26
-2.20579e-26
-2.75509e-26
-3.41175e-26
-4.18876e-26
-5.10239e-26
-6.17214e-26
-7.42018e-26
-8.87128e-26
-1.05509e-25
-1.24792e-25
-1.46432e-25
0.948709
0.658822
0.478526
0.909518
0.451368
0.999947
0.999947
0.152498
4.36853e-21
0.291699
0.156646
3.71067e-20
5.54146e-21
0.0373776
1
1
1
1
2.58704e-20
-9.10031e-21
-5.22811e-21
-3.29209e-21
-1.8318e-21
-9.0677e-22
-4.11652e-22
-1.7302e-22
-6.71879e-23
-2.40588e-23
-8.01298e-24
-2.52039e-24
-7.61705e-25
-2.25057e-25
-6.62345e-26
-1.98368e-26
-6.20011e-27
-2.08351e-27
-7.81259e-28
-3.4441e-28
-1.91123e-28
-1.39976e-28
-1.31542e-28
-1.45708e-28
-1.75905e-28
-2.20526e-28
-2.79766e-28
-3.54225e-28
-4.44186e-28
-5.49266e-28
-6.68288e-28
-7.99502e-28
-9.4092e-28
-1.09082e-27
-1.24817e-27
-1.41281e-27
-1.58556e-27
-1.76812e-27
-1.96292e-27
-2.17257e-27
-2.39849e-27
-2.63375e-27
0.920479
0.796919
0.367282
0.993882
0.340762
0.979949
0.549804
0.54244
-3.6443e-20
0.291013
-7.60144e-23
0.000976824
2.06221e-06
0.675949
1
1
1
0.511913
3.90314e-21
-5.6049e-21
-3.95762e-21
-2.21766e-21
-1.08282e-21
-4.60891e-22
-1.7308e-22
-5.69614e-23
-1.62297e-23
-3.99582e-24
-8.59402e-25
-1.64822e-25
-2.90204e-26
-4.86937e-27
-8.15489e-28
-1.43716e-28
-2.84563e-29
-7.05145e-30
-2.63492e-30
-1.67503e-30
-1.55888e-30
-1.72277e-30
-2.03226e-30
-2.45409e-30
-2.97808e-30
-3.59645e-30
-4.29534e-30
-5.05137e-30
-5.83318e-30
-6.60291e-30
-7.32381e-30
-7.96453e-30
-8.50607e-30
-8.94284e-30
-9.28434e-30
-9.55035e-30
-9.76974e-30
-9.97492e-30
-1.02004e-29
-1.04788e-29
-1.08331e-29
-1.12394e-29
0.445714
0.178311
0.811059
0.509023
0.423453
0.331242
0.467715
0.703518
0.469835
0.00544749
0.00010954
0.00720216
5.34325e-22
0.983673
1
1
1
0.0641393
-1.29162e-20
-6.58529e-21
-3.18319e-21
-1.46663e-21
-5.9535e-22
-2.05255e-22
-5.89398e-23
-1.36533e-23
-2.48187e-24
-3.49826e-25
-3.84095e-26
-3.37718e-27
-2.52701e-28
-1.76886e-29
-1.30263e-30
-1.21348e-31
-2.24214e-32
-1.13536e-32
-9.56207e-33
-9.36435e-33
-9.71712e-33
-1.0388e-32
-1.12771e-32
-1.23057e-32
-1.33906e-32
-1.44406e-32
-1.53586e-32
-1.60577e-32
-1.64715e-32
-1.65666e-32
-1.63483e-32
-1.58581e-32
-1.51654e-32
-1.43527e-32
-1.35063e-32
-1.27048e-32
-1.20166e-32
-1.15004e-32
-1.12119e-32
-1.12124e-32
-1.1574e-32
-1.23522e-32
0.00326874
0.0554027
0.275664
0.00989319
0.164652
0.976129
0.913017
0.253742
0.728954
0.0801908
0.000136624
0.00265583
0.019798
1
1
1
1
2.54417e-19
-7.9802e-21
-5.06278e-21
-2.24022e-21
-8.86403e-22
-2.90593e-22
-7.55637e-23
-1.48415e-23
-2.05131e-24
-1.86029e-25
-1.03648e-26
-3.36868e-28
-6.53837e-30
-9.15173e-32
-1.40125e-33
-9.52082e-35
-4.30857e-35
-2.84368e-35
-2.10347e-35
-1.68467e-35
-1.43346e-35
-1.27543e-35
-1.17068e-35
-1.09615e-35
-1.03683e-35
-9.82936e-36
-9.28534e-36
-8.70294e-36
-8.0731e-36
-7.40953e-36
-6.73573e-36
-6.08298e-36
-5.4849e-36
-4.97178e-36
-4.57157e-36
-4.31368e-36
-4.23579e-36
-4.40031e-36
-4.92518e-36
-6.04895e-36
-8.27797e-36
-1.27245e-35
-2.17885e-35
0.00351434
0.0243536
3.19395e-21
0.0353221
0.0118591
0.128007
0.8585
0.948677
0.948677
0.406398
-2.76301e-23
1.33344e-39
0.728762
1
1
1
0.382584
6.5615e-37
-6.49845e-21
-3.35241e-21
-1.40935e-21
-4.77852e-22
-1.19975e-22
-2.11781e-23
-2.37541e-24
-1.4277e-25
-3.49218e-27
-1.77079e-29
-2.74886e-33
-1.32113e-36
-3.34404e-37
-1.01877e-37
-3.73187e-38
-1.61527e-38
-8.46325e-39
-5.08451e-39
-3.38698e-39
-2.44931e-39
-1.89313e-39
-1.5439e-39
-1.31563e-39
-1.16399e-39
-1.06627e-39
-1.01206e-39
-9.98654e-40
-1.02882e-39
-1.10975e-39
-1.2534e-39
-1.47834e-39
-1.81414e-39
-2.30972e-39
-3.0499e-39
-4.1877e-39
-6.01366e-39
-9.10931e-39
-1.47178e-38
-2.56907e-38
-4.90865e-38
-1.03472e-37
-2.38013e-37
0.0134646
0.00326628
0.020852
0.00766592
2.58023e-12
2.58023e-12
2.58023e-12
0.0553097
0.00640321
2.93445e-20
6.78317e-06
2.95586e-24
1
1
1
1
0.0325943
-7.34926e-21
-4.37788e-21
-2.08252e-21
-8.22316e-22
-2.25992e-22
-3.9479e-23
-3.95692e-24
-1.75209e-25
-1.59391e-27
-9.06993e-32
-5.81865e-38
-6.85344e-39
-7.41183e-40
-8.89504e-41
-1.37199e-41
-2.88093e-42
-8.37659e-43
-3.30345e-43
-1.73244e-43
-1.26198e-43
-1.16837e-43
-1.29746e-43
-1.61254e-43
-2.14374e-43
-2.95639e-43
-4.14098e-43
-5.80741e-43
-8.08644e-43
-1.1138e-42
-1.51738e-42
-2.04957e-42
-2.75923e-42
-3.72921e-42
-5.10428e-42
-7.15071e-42
-1.03771e-41
-1.58218e-41
-2.57544e-41
-4.55756e-41
-8.94237e-41
-1.9825e-40
-5.01178e-40
-1.41274e-39
0.00241089
0.0273593
0.0379745
0.000766112
7.89551e-09
2.10764e-09
0.000260613
2.12206e-13
-2.63315e-26
9.13841e-27
2.53515e-06
0.297843
1
1
1
1
-5.84287e-20
-8.00868e-21
-3.16422e-21
-1.35538e-21
-4.48065e-22
-9.00822e-23
-9.33478e-24
-3.67901e-25
-1.62097e-27
-3.13116e-32
-1.82048e-39
-9.88521e-41
-3.92693e-42
-1.41336e-43
-5.99866e-45
-4.4764e-46
-1.06653e-46
-6.75904e-47
-6.16443e-47
-6.49044e-47
-7.4518e-47
-9.12046e-47
-1.17151e-46
-1.56004e-46
-2.1454e-46
-2.95503e-46
-4.03722e-46
-5.45907e-46
-7.28586e-46
-9.59597e-46
-1.25073e-45
-1.62226e-45
-2.11012e-45
-2.78072e-45
-3.75523e-45
-5.26639e-45
-7.78784e-45
-1.23596e-44
-2.1487e-44
-4.1896e-44
-9.39994e-44
-2.48435e-43
-7.78563e-43
-2.76636e-42
2.6741e-06
0.0088838
-9.8099e-21
6.6696e-23
-1.83809e-21
0.00686305
3.81141e-11
3.10159e-16
0.00201143
0.00105756
-2.90292e-20
0.910616
1
1
1
0.327898
-3.35757e-20
-4.8138e-21
-2.2487e-21
-8.59929e-22
-2.17871e-22
-2.80284e-23
-1.27552e-24
-5.23465e-27
-1.0099e-31
-1.69796e-40
-3.87233e-42
-4.88467e-44
-4.00459e-46
-2.94597e-48
-1.47702e-49
-7.40334e-50
-4.97889e-50
-3.79828e-50
-3.21548e-50
-2.98111e-50
-2.995e-50
-3.22576e-50
-3.67532e-50
-4.36775e-50
-5.33695e-50
-6.63946e-50
-8.33422e-50
-1.04761e-49
-1.30782e-49
-1.61202e-49
-1.97953e-49
-2.44367e-49
-3.06374e-49
-3.94979e-49
-5.3109e-49
-7.57022e-49
-1.16483e-48
-1.97721e-48
-3.79776e-48
-8.49991e-48
-2.288e-47
-7.60387e-47
-3.11073e-46
-1.44159e-45
-1.91655e-26
1.96323e-53
1.91528e-06
0.000415607
0.0148105
1.63156e-11
5.10501e-10
1.35469e-05
0.0022485
-2.82277e-23
0.0244474
1
1
1
1
0.0112318
-3.96904e-21
-3.47181e-21
-1.62066e-21
-5.03986e-22
-8.86785e-23
-5.90645e-24
-4.59578e-26
-1.28151e-30
-6.64343e-41
-6.69568e-43
-3.25966e-45
-6.2179e-48
-2.18379e-51
-1.25595e-52
-4.03305e-53
-1.60489e-53
-7.59209e-54
-4.21499e-54
-2.70861e-54
-1.99141e-54
-1.64309e-54
-1.48562e-54
-1.44674e-54
-1.49725e-54
-1.62424e-54
-1.81985e-54
-2.07479e-54
-2.38325e-54
-2.74861e-54
-3.18111e-54
-3.72076e-54
-4.43717e-54
-5.43567e-54
-6.96935e-54
-9.50553e-54
-1.40612e-53
-2.30337e-53
-4.28186e-53
-9.30607e-53
-2.44446e-52
-8.02938e-52
-3.37791e-51
-1.78294e-50
-1.03491e-49
-1.15583e-25
5.735e-06
9.35837e-06
0.00780255
0.00620346
9.69897e-30
4.37583e-05
8.02139e-05
0.00182434
1.87065e-23
0.850591
1
1
1
0.93179
4.16178e-20
-6.20503e-21
-2.92868e-21
-1.09104e-21
-2.5833e-22
-2.76798e-23
-5.88019e-25
-4.17011e-29
-1.43228e-40
-6.98593e-43
-1.55499e-45
-7.41025e-49
-4.02735e-53
-2.02349e-55
-2.47861e-56
-3.51718e-57
-5.91659e-58
-1.2814e-58
-3.79043e-59
-1.5269e-59
-7.87564e-60
-4.86566e-60
-3.43275e-60
-2.68067e-60
-2.28069e-60
-2.0783e-60
-1.98689e-60
-1.96314e-60
-1.98389e-60
-2.03435e-60
-2.1107e-60
-2.23569e-60
-2.45763e-60
-2.83153e-60
-3.50725e-60
-4.76807e-60
-7.14954e-60
-1.22042e-59
-2.43397e-59
-5.84373e-59
-1.74926e-58
-6.74575e-58
-3.40363e-57
-2.16061e-56
-1.52493e-55
-2.73636e-26
4.48727e-05
3.06383e-21
0.0139437
-3.24523e-25
0.000113562
0.000116347
0.00121149
-1.17686e-22
1.6835e-18
1
1
1
1
0.205236
-4.8014e-21
-4.94729e-21
-2.27061e-21
-6.64536e-22
-1.09951e-22
-5.66073e-24
-6.13454e-27
-1.8845e-36
-3.81352e-42
-5.01872e-45
-1.27871e-48
-3.1837e-54
-5.5543e-57
-1.78548e-58
-5.38909e-60
-1.49372e-61
-3.92472e-63
-1.13904e-64
-5.10939e-66
-4.80867e-67
-8.60214e-68
-2.34741e-68
-8.7096e-69
-4.16683e-69
-2.50328e-69
-1.99745e-69
-2.49747e-69
-5.04214e-69
-1.37695e-68
-4.46633e-68
-1.63143e-67
-6.47851e-67
-2.70868e-66
-1.16261e-65
-5.02933e-65
-2.16315e-64
-9.1356e-64
-3.73888e-63
-1.48429e-62
-5.53652e-62
-1.93334e-61
-6.18512e-61
-1.85083e-60
-5.57145e-60
-1.91917e-59
0.000464698
1.1581e-06
8.00402e-05
2.95174e-16
-9.99454e-25
6.7103e-05
2.02753e-05
0.000748359
-7.85775e-23
0.844884
1
1
1
1
-2.72282e-19
-5.39617e-21
-4.09144e-21
-1.53455e-21
-3.54556e-22
-3.60401e-23
-4.70255e-25
-7.53335e-30
-6.82732e-41
-7.10443e-44
-1.63583e-47
-4.82116e-54
-8.90613e-56
-2.92946e-57
-8.66087e-59
-2.306e-60
-5.54604e-62
-1.20896e-63
-2.39689e-65
-4.33473e-67
-7.16091e-69
-1.08183e-70
-2.28374e-72
-2.61376e-72
-8.18196e-72
-2.52877e-71
-7.769e-71
-2.44042e-70
-8.18029e-70
-3.0619e-69
-1.30243e-68
-6.14442e-68
-3.07129e-67
-1.5669e-66
-7.98184e-66
-4.01032e-65
-1.96991e-64
-9.37554e-64
-4.27798e-63
-1.84684e-62
-7.44423e-62
-2.76583e-61
-9.40265e-61
-2.96923e-60
-9.19744e-60
-3.2215e-59
0.000447663
1.2849e-05
5.35832e-06
1.56819e-15
-3.62836e-35
5.27934e-06
0.000113261
5.0789e-05
0.0109069
1
1
1
1
0.544027
4.23981e-21
-4.50132e-21
-2.79616e-21
-9.45514e-22
-1.58893e-22
-7.7557e-24
-2.01954e-27
-2.52861e-37
-4.08957e-42
-6.91804e-46
-1.00003e-50
-1.82125e-54
-6.69181e-56
-2.21236e-57
-6.56469e-59
-1.74882e-60
-4.19325e-62
-9.08167e-64
-1.78283e-65
-3.18498e-67
-5.19031e-69
-7.725e-71
-1.12114e-72
-2.57618e-73
-8.20504e-73
-2.7129e-72
-9.04188e-72
-3.15599e-71
-1.21672e-70
-5.4459e-70
-2.86325e-69
-1.6902e-68
-1.04503e-67
-6.434e-67
-3.85635e-66
-2.23216e-65
-1.24236e-64
-6.61084e-64
-3.33387e-63
-1.57708e-62
-6.91854e-62
-2.78878e-61
-1.02769e-60
-3.47551e-60
-1.10085e-59
-3.38195e-59
0.00108882
4.8171e-07
2.4638e-12
2.35485e-10
4.39533e-31
3.06174e-09
0.000143448
-3.74044e-23
0.866276
1
1
1
1
0.054977
-1.3791e-21
-4.12825e-21
-2.00726e-21
-5.20653e-22
-5.5023e-23
-6.67579e-25
-5.30396e-30
-1.13659e-38
-9.76662e-43
-1.373e-47
-3.37672e-53
-1.29705e-54
-4.73429e-56
-1.56548e-57
-4.66614e-59
-1.25099e-60
-3.01595e-62
-6.55053e-64
-1.28536e-65
-2.28712e-67
-3.70218e-69
-5.46157e-71
-7.39696e-73
-2.69563e-74
-6.40001e-74
-2.25978e-73
-8.15887e-73
-3.14802e-72
-1.38117e-71
-7.22134e-71
-4.47098e-70
-3.11636e-69
-2.29978e-68
-1.68574e-67
-1.18116e-66
-7.82184e-66
-4.88656e-65
-2.87124e-64
-1.57632e-63
-8.01219e-63
-3.73032e-62
-1.57618e-61
-6.00226e-61
-2.04203e-60
-6.03767e-60
-1.38833e-59
0.00250159
9.69422e-06
1.59321e-07
1.46291e-12
4.80686e-10
2.05132e-10
9.11604e-06
0.0924862
1
1
1
1
0.946192
2.10453e-20
-3.99065e-21
-3.04072e-21
-1.24605e-21
-2.39576e-22
-1.26377e-23
-2.08554e-27
-2.58553e-35
-6.65698e-39
-4.62302e-43
-5.1912e-48
-2.33648e-53
-8.88781e-55
-3.18685e-56
-1.04338e-57
-3.10339e-59
-8.35094e-61
-2.02853e-62
-4.44423e-64
-8.78706e-66
-1.5723e-67
-2.55054e-69
-3.75658e-71
-5.03425e-73
-7.15273e-75
-3.91561e-75
-1.44762e-74
-5.60148e-74
-2.35107e-73
-1.14419e-72
-6.72301e-72
-4.6817e-71
-3.65296e-70
-3.01497e-69
-2.51752e-68
-2.02287e-67
-1.51242e-66
-1.04295e-65
-6.62165e-65
-3.85063e-64
-2.03029e-63
-9.58317e-63
-3.99061e-62
-1.44039e-61
-4.38354e-61
-1.0705e-60
-1.91905e-60
0.000105786
0.00111772
3.00772e-08
5.3731e-10
1.4671e-10
1.20772e-05
-2.41647e-24
0.922684
1
1
1
1
0.156922
-1.61897e-20
-4.18397e-21
-2.25978e-21
-6.92568e-22
-8.64888e-23
-1.2285e-24
-5.86397e-30
-2.10233e-35
-4.84182e-39
-2.12143e-43
-1.96665e-48
-1.57366e-53
-5.91574e-55
-2.07483e-56
-6.6642e-58
-1.95639e-59
-5.23398e-61
-1.27279e-62
-2.80597e-64
-5.60145e-66
-1.01276e-67
-1.65871e-69
-2.46125e-71
-3.31077e-73
-4.08375e-75
-2.23699e-76
-7.07938e-76
-2.87635e-75
-1.27124e-74
-6.54162e-74
-4.08887e-73
-3.03536e-72
-2.51504e-71
-2.19864e-70
-1.94533e-69
-1.68669e-68
-1.37401e-67
-1.01606e-66
-6.74219e-66
-3.99158e-65
-2.08635e-64
-9.48822e-64
-3.68768e-63
-1.19906e-62
-3.16933e-62
-6.53467e-62
-9.93266e-62
0.000391433
0.00054609
1.59367e-10
1.64335e-10
1.87151e-10
2.72014e-07
0.374719
1
1
1
1
1
3.63923e-19
-4.77068e-21
-3.54314e-21
-1.49778e-21
-3.31805e-22
-2.13875e-23
-3.61408e-27
-2.54874e-32
-1.87141e-35
-3.93652e-39
-9.80046e-44
-6.16913e-49
-1.02056e-53
-3.80379e-55
-1.31026e-56
-4.12742e-58
-1.189e-59
-3.13289e-61
-7.54527e-63
-1.65837e-64
-3.32018e-66
-6.04986e-68
-1.00173e-69
-1.50429e-71
-2.04634e-73
-2.5201e-75
-3.44938e-77
-2.67653e-77
-1.10141e-76
-4.88952e-76
-2.48688e-75
-1.53004e-74
-1.12724e-73
-9.35726e-73
-8.19534e-72
-7.24494e-71
-6.25651e-70
-5.13989e-69
-3.87906e-68
-2.59035e-67
-1.50512e-66
-7.53293e-66
-3.20432e-65
-1.13981e-64
-3.32328e-64
-7.74633e-64
-1.39636e-63
-1.87652e-63
0.0051627
0.000895693
1.10153e-09
2.52647e-10
1.71886e-06
1.06936e-18
1
1
1
1
1
0.258814
-1.46416e-20
-4.0408e-21
-2.58769e-21
-8.78617e-22
-1.3011e-22
-2.39141e-24
-1.45323e-29
-1.74973e-32
-1.4868e-35
-2.98495e-39
-4.85087e-44
-1.54189e-49
-6.31274e-54
-2.33397e-55
-7.94299e-57
-2.468e-58
-6.99744e-60
-1.81322e-61
-4.29947e-63
-9.33425e-65
-1.85556e-66
-3.3761e-68
-5.61331e-70
-8.50261e-72
-1.1701e-73
-1.45902e-75
-1.66121e-77
-9.37241e-79
-3.21375e-78
-1.38118e-77
-6.48926e-77
-3.56173e-76
-2.35706e-75
-1.80688e-74
-1.49478e-73
-1.25601e-72
-1.03009e-71
-8.00495e-71
-5.75934e-70
-3.73042e-69
-2.09793e-68
-9.99807e-68
-3.98193e-67
-1.30445e-66
-3.45342e-66
-7.23819e-66
-1.1778e-65
-1.4838e-65
0.0051627
2.17187e-28
7.99624e-10
4.9883e-06
1.28632e-06
0.938125
1
1
1
1
1
2.80891e-19
-2.82853e-21
-2.97123e-21
-1.71341e-21
-4.58574e-22
-3.59518e-23
-1.05303e-26
-5.48262e-30
-1.0523e-32
-9.18037e-36
-1.81603e-39
-2.36232e-44
-3.13912e-50
-3.72396e-54
-1.35972e-55
-4.5725e-57
-1.4058e-58
-3.94333e-60
-1.00989e-61
-2.36384e-63
-5.06343e-65
-9.94146e-67
-1.79119e-68
-2.96137e-70
-4.48358e-72
-6.19846e-74
-7.79641e-76
-8.88914e-78
-1.08791e-79
-7.38112e-80
-3.04946e-79
-1.30629e-78
-6.03269e-78
-3.18784e-77
-1.98204e-76
-1.39977e-75
-1.04776e-74
-7.81545e-74
-5.56314e-73
-3.66802e-72
-2.17996e-71
-1.14342e-70
-5.1294e-70
-1.91061e-69
-5.78629e-69
-1.39862e-68
-2.65845e-68
-3.98841e-68
-5.02271e-68
0.00347001
5.09823e-07
6.81924e-06
1.29015e-06
0.843177
1
1
1
1
1
0.262785
5.0021e-37
-2.52844e-21
-2.30656e-21
-1.08364e-21
-2.01218e-22
-4.61741e-24
-1.86007e-27
-3.29091e-30
-5.23342e-33
-4.21778e-36
-8.25841e-40
-1.07461e-44
-1.02352e-50
-2.09734e-54
-7.54445e-56
-2.50079e-57
-7.58648e-59
-2.10389e-60
-5.33495e-62
-1.23731e-63
-2.62554e-65
-5.10223e-67
-9.09749e-69
-1.4895e-70
-2.23815e-72
-3.08065e-74
-3.87427e-76
-4.43552e-78
-4.63202e-80
-1.65996e-81
-5.16895e-81
-2.13892e-80
-8.88415e-80
-3.81423e-79
-1.76261e-78
-9.06416e-78
-5.16768e-77
-3.12489e-76
-1.89062e-75
-1.0868e-74
-5.71997e-74
-2.67074e-73
-1.07804e-72
-3.68079e-72
-1.03755e-71
-2.37679e-71
-4.43819e-71
-6.97894e-71
-9.41986e-71
0.000128309
1.31966e-06
4.08629e-18
0.869018
1
1
1
1
1
1
-3.07515e-19
-2.26446e-21
-2.19077e-21
-1.66024e-21
-6.1352e-22
-6.85701e-23
-4.03732e-25
-1.45392e-27
-2.3723e-30
-2.53339e-33
-1.59146e-36
-3.10553e-40
-6.19574e-45
-1.21599e-50
-1.12087e-54
-3.98061e-56
-1.30241e-57
-3.89468e-59
-1.06477e-60
-2.66554e-62
-6.11439e-64
-1.286e-65
-2.48004e-67
-4.39007e-69
-7.13309e-71
-1.06304e-72
-1.4523e-74
-1.81527e-76
-2.07089e-78
-2.1491e-80
-2.15336e-82
-5.91575e-83
-2.439e-82
-1.00916e-81
-4.10396e-81
-1.65946e-80
-6.79326e-80
-2.86294e-79
-1.2532e-78
-5.64346e-78
-2.53899e-77
-1.09933e-76
-4.41253e-76
-1.59482e-75
-5.06165e-75
-1.3871e-74
-3.25082e-74
-6.45953e-74
-1.0713e-73
-1.4417e-73
0.212822
0.126408
1
1
1
1
1
1
1
0.141289
-3.67827e-21
-3.2698e-21
-1.94042e-21
-1.07573e-21
-3.10403e-22
-2.07118e-23
-3.17129e-25
-9.91618e-28
-1.44912e-30
-1.22855e-33
-5.94345e-37
-1.17959e-40
-3.8914e-45
-1.07704e-50
-5.64369e-55
-1.9803e-56
-6.41297e-58
-1.89614e-59
-5.11768e-61
-1.26339e-62
-2.85937e-64
-5.93904e-66
-1.13371e-67
-1.99007e-69
-3.21228e-71
-4.75998e-73
-6.46607e-75
-8.03475e-77
-9.11134e-79
-9.40861e-81
-8.83077e-83
-1.04079e-84
-1.33291e-84
-5.84939e-84
-2.48602e-83
-1.02134e-82
-4.07026e-82
-1.58263e-81
-6.03991e-81
-2.27686e-80
-8.46359e-80
-3.07455e-79
-1.07326e-78
-3.51375e-78
-1.05287e-77
-2.82132e-77
-6.61191e-77
-1.32183e-76
-2.19185e-76
-2.91214e-76
1
1
1
1
1
1
1
1
1
1
1
1
1
1
1
1
1
1
1
1
1
1
1
1
1
1
1
1
1
1
1
1
1
1
1
1
1
1
1
1
1
1
1
1
1
1
1
1
1
1
1
1
1
1
1
1
1
1
1
1
1
1
1
1
1
1
1
1
1
1
1
1
1
1
1
1
1
1
1
1
1
1
1
1
1
1
1
1
1
1
1
1
1
1
1
1
1
1
1
1
1
1
1
1
1
1
1
1
1
1
1
1
1
1
1
1
1
1
1
1
1
1
1
1
1
1
1
1
1
1
1
1
1
1
1
1
1
1
1
1
1
1
1
1
1
1
1
1
1
1
1
1
1
1
1
1
1
1
1
1
1
1
1
1
1
1
1
1
1
1
1
1
1
1
1
1
1
1
1
1
1
1
1
1
1
1
1
1
1
1
1
1
1
1
1
1
1
1
1
1
1
1
1
1
1
1
1
1
1
1
1
1
1
1
1
1
1
1
1
1
1
1
1
1
1
1
1
1
1
1
1
1
1
1
1
1
1
1
1
1
1
1
1
1
1
1
1
1
1
1
1
1
1
1
0.999979
0.991793
0.959424
0.893737
0.790332
0.615211
-2.21485e-32
0.286316
0.28717
0.276671
0.259187
0.236345
0.210006
0.180857
0.149515
0.116634
0.0827549
0.0486316
0.014908
-3.5371e-21
-2.88157e-21
-2.26575e-21
-2.02094e-21
-2.18837e-21
-2.8612e-21
-2.5544e-21
-6.63899e-33
-9.31657e-33
-1.99444e-32
-5.00737e-32
-1.06129e-31
-2.00848e-31
-3.47493e-31
-5.56229e-31
-8.28472e-31
-1.15027e-30
-1.49419e-30
-1.85573e-30
-2.34947e-30
-3.18042e-30
-3.85358e-30
-4.0667e-30
-3.74858e-30
-3.11105e-30
-2.58672e-30
-2.31457e-30
-3.1082e-33
-2.94377e-34
-6.54708e-34
-2.41093e-33
-7.42972e-33
-1.64318e-32
-3.01225e-32
-4.80198e-32
-6.81339e-32
-8.75645e-32
-1.04268e-31
-1.20195e-31
-1.45438e-31
-1.90954e-31
-2.21708e-31
-2.16036e-31
-1.76309e-31
-1.22741e-31
-7.70374e-32
-4.68948e-32
-1.20439e-33
-6.98938e-36
-1.48334e-35
-4.45523e-35
-1.4732e-34
-3.78315e-34
-7.49084e-34
-1.2476e-33
-1.81642e-33
-2.37536e-33
-2.86931e-33
-3.3228e-33
-3.85538e-33
-4.4393e-33
-4.52724e-33
-3.85099e-33
-2.69309e-33
-1.55571e-33
-7.59692e-34
-3.26611e-34
-3.58829e-34
-1.74336e-37
-3.69223e-37
-1.27884e-36
-3.85512e-36
-1.04549e-35
-2.20072e-35
-3.74148e-35
-5.43072e-35
-6.95428e-35
-8.06062e-35
-8.65173e-35
-8.72243e-35
-8.1343e-35
-6.69217e-35
-4.69529e-35
-2.77819e-35
-1.39159e-35
-5.99956e-36
-2.28655e-36
-9.65693e-35
-7.54288e-39
-8.61286e-39
-3.56029e-38
-1.19064e-37
-3.12436e-37
-6.64941e-37
-1.11313e-36
-1.54797e-36
-1.86642e-36
-1.99989e-36
-1.93299e-36
-1.69342e-36
-1.33381e-36
-9.28648e-37
-5.63807e-37
-2.97085e-37
-1.36388e-37
-5.51705e-38
-1.99688e-38
-2.19326e-35
-6.33033e-39
-1.96775e-40
-8.59555e-40
-3.18407e-39
-8.54459e-39
-1.74809e-38
-2.80649e-38
-3.67632e-38
-4.14076e-38
-4.1089e-38
-3.62753e-38
-2.85314e-38
-1.99158e-38
-1.2266e-38
-6.63661e-39
-3.15186e-39
-1.31828e-39
-4.89009e-40
-1.62385e-40
-2.13169e-36
-8.81494e-39
-3.93292e-41
-1.67801e-41
-6.60496e-41
-1.77941e-40
-3.50909e-40
-5.29027e-40
-6.51085e-40
-6.91518e-40
-6.46186e-40
-5.3133e-40
-3.82635e-40
-2.40525e-40
-1.31892e-40
-6.32155e-41
-2.65993e-41
-9.89094e-42
-3.27834e-42
-9.77878e-43
-9.43397e-39
-1.2684e-39
-6.83282e-42
-2.57818e-43
-9.36476e-43
-2.43246e-42
-4.55554e-42
-6.42838e-42
-7.48158e-42
-7.6082e-42
-6.78904e-42
-5.23144e-42
-3.44155e-42
-1.93133e-42
-9.31143e-43
-3.89997e-43
-1.43675e-43
-4.71292e-44
-1.3922e-44
-3.74079e-45
-6.58651e-43
-2.38922e-42
-2.47815e-44
-2.18603e-45
-7.18813e-45
-1.7285e-44
-3.03238e-44
-4.01764e-44
-4.47783e-44
-4.42224e-44
-3.78581e-44
-2.71337e-44
-1.60555e-44
-7.90557e-45
-3.30744e-45
-1.2048e-45
-3.90106e-46
-1.13804e-46
-3.01422e-47
-7.29153e-48
-7.48013e-48
-7.22204e-47
-2.31873e-48
-6.28015e-48
-1.76514e-47
-3.86972e-47
-6.37562e-47
-8.02626e-47
-8.71804e-47
-8.45971e-47
-6.92529e-47
-4.54416e-47
-2.36763e-47
-1.00546e-47
-3.6343e-48
-1.16083e-48
-3.33189e-49
-8.60898e-50
-2.0069e-50
-4.26452e-51
1
1
1
1
1
1
1
1
1
1
1
1
1
1
1
1
1
1
1
1
1
1
1
1
1
1
1
1
1
1
1
1
1
1
1
1
1
1
1
1
1
1
1
1
1
1
1
1
1
1
1
1
1
1
1
1
1
1
1
1
1
1
1
1
1
1
1
1
1
1
1
1
1
1
1
1
1
1
1
1
1
1
1
1
1
1
1
1
1
1
1