/*--------------------------------*- C++ -*----------------------------------*\
| =========                 |                                                 |
| \\      /  F ield         | OpenFOAM: The Open Source CFD Toolbox           |
|  \\    /   O peration     | Version:  v1912                                 |
|   \\  /    A nd           | Website:  www.openfoam.com                      |
|    \\/     M anipulation  |                                                 |
\*---------------------------------------------------------------------------*/
FoamFile
{
    version     2.0;
    format      ascii;
    class       surfaceScalarField;
    location    "34";
    object      alphaPhi0.water;
}
// * * * * * * * * * * * * * * * * * * * * * * * * * * * * * * * * * * * * * //

dimensions      [0 3 -1 0 0 0 0];
oriented        oriented;


internalField   nonuniform List<scalar> 
40282
(
0.00276895
0.00264529
1.91889
-1.92549
1.91989
0.0055974
-1.91089
1.89871
0.0121757
-1.88354
1.86541
0.0181335
-1.84442
1.82056
0.0238538
-1.79391
1.76453
0.029384
-1.73249
1.69789
0.0345975
-1.66074
1.62119
0.0395585
-1.57914
1.53481
0.0443323
-1.48807
1.43918
0.048885
-1.38801
1.3349
0.0531105
-1.27963
1.22261
0.057024
-1.16357
1.10293
0.060641
-1.04045
0.976533
0.0639171
-0.910959
0.844044
0.0669156
-0.77566
0.70595
0.0697101
-0.634896
0.562048
0.0728486
-0.487963
0.411352
0.0766111
-0.333442
0.251108
0.082334
-0.167604
0.0762833
0.091321
-0.00422899
0.00560226
1.854
-1.84952
1.84259
-0.0141023
0.0210329
-1.83293
1.8205
-0.0256195
0.0380505
-1.80528
1.7873
-0.0369032
0.0548791
-1.7666
1.74322
-0.0479551
0.0713381
-1.71719
1.68856
-0.0587494
0.0873823
-1.65737
1.62366
-0.0692147
0.102919
-1.5875
1.54891
-0.0792842
0.117875
-1.50794
1.46464
-0.0888859
0.132189
-1.41907
1.37128
-0.0980086
0.145798
-1.32136
1.26932
-0.106625
0.15866
-1.21527
1.15921
-0.114678
0.170731
-1.10125
1.04141
-0.12211
0.181957
-0.979766
0.916348
-0.128851
0.192269
-0.851254
0.784502
-0.134852
0.201603
-0.716177
0.646301
-0.140042
0.209918
-0.574955
0.502242
-0.144561
0.217274
-0.428257
0.353323
-0.149018
0.223953
-0.277515
0.201577
-0.154912
0.230851
-0.125509
0.0526763
-0.164895
0.237727
-0.00700848
0.00835932
1.78755
-1.78338
1.77656
-0.0281699
0.0349841
-1.76709
1.75498
-0.0506661
0.0627734
-1.74026
1.72292
-0.0729142
0.0902524
-1.70298
1.68046
-0.0947346
0.117254
-1.65539
1.62779
-0.116021
0.143616
-1.59771
1.56516
-0.136649
0.169195
-1.5302
1.49287
-0.156498
0.193826
-1.45324
1.41136
-0.175494
0.217367
-1.36732
1.32115
-0.193558
0.239721
-1.27294
1.22276
-0.210619
0.260804
-1.17067
1.11674
-0.226647
0.280573
-1.06105
1.00365
-0.241616
0.299018
-0.944596
0.883944
-0.25546
0.316112
-0.821741
0.758029
-0.268026
0.331738
-0.692842
0.626204
-0.278993
0.345631
-0.558139
0.488694
-0.28801
0.357455
-0.417976
0.346189
-0.295044
0.366831
-0.273607
0.200708
-0.300708
0.373607
-0.128046
0.0580121
-0.307835
0.377869
-0.00964355
0.0109199
1.72354
-1.71968
1.71326
-0.0416943
0.0481145
-1.70428
1.69276
-0.0748009
0.0863263
-1.6787
1.66212
-0.107539
0.124115
-1.64305
1.62149
-0.139724
0.161281
-1.59747
1.57102
-0.171171
0.197625
-1.54216
1.51092
-0.201699
0.232935
-1.47735
1.44147
-0.231128
0.267005
-1.40333
1.36298
-0.259282
0.299633
-1.32047
1.27586
-0.286
0.330612
-1.22921
1.18061
-0.31115
0.359753
-1.13013
1.07786
-0.334653
0.386923
-1.02389
0.968323
-0.356497
0.412068
-0.91124
0.852729
-0.376703
0.435214
-0.792865
0.731714
-0.395229
0.45638
-0.669331
0.605761
-0.411806
0.475376
-0.54104
0.475179
-0.425789
0.491649
-0.408183
0.340085
-0.43628
0.504377
-0.271001
0.201178
-0.442803
0.512626
-0.130972
0.0621502
-0.447036
0.515858
-0.0121403
0.0133469
1.66182
-1.65817
1.65208
-0.0544848
0.0605698
-1.64357
1.63264
-0.0977662
0.108697
-1.6193
1.60356
-0.140581
0.156322
-1.58543
1.56493
-0.182709
0.203206
-1.54208
1.5169
-0.223935
0.249122
-1.4894
1.45961
-0.264022
0.293809
-1.42756
1.39329
-0.302738
0.337012
-1.35682
1.31821
-0.339856
0.378475
-1.27748
1.23468
-0.375132
0.417924
-1.18988
1.14313
-0.408328
0.455078
-1.0945
1.04406
-0.439246
0.489685
-0.991903
0.938115
-0.467771
0.521559
-0.8828
0.826064
-0.493888
0.550624
-0.768013
0.708743
-0.517649
0.576918
-0.648342
0.586875
-0.538968
0.600435
-0.524394
0.460935
-0.557349
0.620807
-0.396522
0.331163
-0.571656
0.637015
-0.264864
0.197654
-0.580308
0.647518
-0.129562
0.0623813
-0.583663
0.650844
-0.0144942
0.015622
1.60242
-1.59881
1.5931
-0.0665851
0.0723022
-1.5851
1.57482
-0.119504
0.129779
-1.56227
1.54746
-0.171894
0.186712
-1.53038
1.51104
-0.223502
0.242835
-1.48947
1.46566
-0.274087
0.297895
-1.43963
1.41141
-0.323367
0.351592
-1.381
1.34844
-0.371061
0.403625
-1.31375
1.27695
-0.41689
0.453686
-1.23809
1.1972
-0.460547
0.501439
-1.15432
1.10951
-0.50171
0.546523
-1.06281
1.0143
-0.540078
0.58859
-0.964038
0.912107
-0.575397
0.627328
-0.858598
0.80361
-0.607516
0.662504
-0.747253
0.689642
-0.636422
0.694033
-0.63089
0.571095
-0.662144
0.721939
-0.510341
0.448689
-0.684421
0.746073
-0.38618
0.322833
-0.702194
0.765542
-0.258636
0.193542
-0.713413
0.778508
-0.127356
0.0624049
-0.717404
0.782355
-0.0166874
0.0177269
1.54482
-1.5418
1.53649
-0.0779221
0.0832296
-1.52906
1.51951
-0.139886
0.149437
-1.50783
1.49403
-0.2013
0.2151
-1.47811
1.46006
-0.26189
0.279941
-1.43988
1.41758
-0.321393
0.343693
-1.39316
1.36663
-0.379496
0.406026
-1.338
1.30727
-0.435873
0.466599
-1.27447
1.23961
-0.490195
0.525059
-1.2027
1.16379
-0.542092
0.581003
-1.1229
1.08008
-0.591163
0.633992
-1.03535
0.988781
-0.637014
0.683584
-0.940423
0.890343
-0.679275
0.729354
-0.838618
0.785337
-0.717634
0.770916
-0.7306
0.674521
-0.751921
0.807999
-0.617224
0.558829
-0.782122
0.840517
-0.499454
0.439198
-0.808152
0.868408
-0.378141
0.316339
-0.829161
0.890963
-0.253805
0.190479
-0.842963
0.906289
-0.125898
0.0634447
-0.848311
0.910764
-0.0187006
0.0196411
1.48965
-1.48689
1.48204
-0.0884078
0.0932575
-1.47525
1.46651
-0.158762
0.167505
-1.45581
1.44314
-0.228592
0.241259
-1.4285
1.41187
-0.297618
0.314247
-1.39325
1.37261
-0.365573
0.386204
-1.34997
1.3253
-0.432117
0.456786
-1.2986
1.26987
-0.496893
0.52562
-1.23911
1.20633
-0.559524
0.592311
-1.17152
1.13471
-0.619576
0.656391
-1.0959
1.05513
-0.676568
0.717337
-1.01243
0.967826
-0.730009
0.774611
-0.921373
0.873121
-0.779417
0.827669
-0.823135
0.77149
-0.82433
0.875974
-0.718277
0.663601
-0.86438
0.919055
-0.607584
0.55036
-0.899395
0.956619
-0.492067
0.432838
-0.929325
0.988553
-0.372795
0.312042
-0.95354
1.01429
-0.250636
0.188553
-0.969942
1.03202
-0.124938
0.0647959
-0.976947
1.03709
-0.0205117
0.0213413
1.43635
-1.43371
1.42937
-0.0979422
0.102278
-1.42329
1.41546
-0.175959
0.183795
-1.40585
1.39445
-0.253531
0.264928
-1.38124
1.36621
-0.330394
0.345432
-1.34931
1.33054
-0.406294
0.425066
-1.30987
1.28727
-0.480884
0.503486
-1.26272
1.2362
-0.553781
0.580301
-1.20769
1.17718
-0.624571
0.655083
-1.14465
1.1101
-0.692753
0.727301
-1.07353
1.03495
-0.757762
0.796344
-0.99437
0.951809
-0.819005
0.861566
-0.907299
0.86088
-0.875876
0.922295
-0.812602
0.762527
-0.92776
0.977835
-0.710734
0.657318
-0.97408
1.0275
-0.602396
0.546104
-1.01442
1.07072
-0.488593
0.430019
-1.04862
1.1072
-0.370532
0.310269
-1.07616
1.13642
-0.249313
0.187655
-1.09506
1.15672
-0.123881
0.065637
-1.10407
1.16231
-0.0220968
0.0228029
1.3851
-1.38279
1.37903
-0.106411
0.110175
-1.37374
1.36692
-0.191274
0.198101
-1.35853
1.34854
-0.275835
0.285818
-1.33694
1.32367
-0.359869
0.373133
-1.30871
1.29201
-0.443157
0.459855
-1.27354
1.25324
-0.525363
0.545661
-1.23108
1.20701
-0.606096
0.630162
-1.181
1.153
-0.684912
0.712908
-1.12299
1.09093
-0.761252
0.793313
-1.0568
1.02058
-0.834462
0.870679
-0.982268
0.941861
-0.903835
0.944243
-0.899368
0.85481
-0.968631
1.01319
-0.808221
0.759647
-1.02806
1.07664
-0.709152
0.656821
-1.08133
1.13366
-0.602764
0.54712
-1.12773
1.18338
-0.490056
0.431762
-1.16686
1.22516
-0.372442
0.312308
-1.19821
1.25834
-0.251535
0.19021
-1.21996
1.28128
-0.126043
0.0700886
-1.23112
1.28708
-0.023431
0.0240014
1.33553
-1.3336
1.33046
-0.113695
0.116827
-1.32606
1.32035
-0.204497
0.210206
-1.31331
1.30489
-0.295206
0.30362
-1.29507
1.28378
-0.385664
0.396953
-1.27097
1.25659
-0.475714
0.490094
-1.24057
1.22286
-0.565056
0.582769
-1.20339
1.18208
-0.65331
0.674615
-1.15888
1.13372
-0.740022
0.765183
-1.10654
1.07727
-0.824587
0.85385
-1.04588
1.0123
-0.906262
0.939837
-0.976513
0.938476
-0.984225
1.02226
-0.898175
0.855604
-1.05758
1.10015
-0.81077
0.763699
-1.12535
1.17242
-0.714433
0.66304
-1.18648
1.23787
-0.609617
0.554299
-1.23991
1.29523
-0.497264
0.438733
-1.2849
1.34343
-0.37897
0.318284
-1.32082
1.3815
-0.256992
0.195401
-1.34605
1.40765
-0.130039
0.0764979
-1.35978
1.41332
-0.0244907
0.0249149
1.28783
-1.28611
1.28367
-0.119673
0.122118
-1.28022
1.27573
-0.215412
0.219901
-1.27016
1.26347
-0.311331
0.318024
-1.2556
1.24649
-0.407369
0.41648
-1.23607
1.22426
-0.503463
0.515268
-1.21099
1.19617
-0.599377
0.614197
-1.17971
1.16152
-0.694776
0.712964
-1.14151
1.11958
-0.789221
0.811155
-1.09563
1.06957
-0.882082
0.908141
-1.04131
1.01077
-0.972546
1.00308
-0.977878
0.942555
-1.05968
1.095
-0.904748
0.864412
-1.14242
1.18275
-0.821519
0.776058
-1.21957
1.26503
-0.728041
0.677505
-1.28978
1.34032
-0.624525
0.569223
-1.35159
1.40689
-0.511775
0.452425
-1.40373
1.46308
-0.391486
0.32937
-1.44526
1.50737
-0.266549
0.203617
-1.47462
1.53756
-0.135396
0.0841127
-1.49156
1.54284
-0.0252564
0.0255264
1.24199
-1.24071
1.239
-0.124239
0.125951
-1.23657
1.23338
-0.223818
0.227003
-1.2294
1.22456
-0.323913
0.328753
-1.2188
1.21205
-0.42458
0.431327
-1.20423
1.19525
-0.525886
0.534867
-1.18501
1.1734
-0.627697
0.639304
-1.16032
1.14564
-0.729757
0.744438
-1.12924
1.11099
-0.831684
0.849936
-1.09075
1.06841
-0.932866
0.955213
-1.04381
1.01684
-1.03245
1.05942
-0.987366
0.955266
-1.12942
1.16152
-0.920431
0.88276
-1.22255
1.26022
-0.842169
0.798593
-1.31043
1.35401
-0.751991
0.702353
-1.39136
1.441
-0.64971
0.594153
-1.46339
1.51895
-0.535846
0.47505
-1.52458
1.58538
-0.412143
0.347671
-1.57344
1.63791
-0.282341
0.217204
-1.60835
1.67348
-0.144801
0.09609
-1.6296
1.67831
-0.0257141
0.0258262
1.19745
-1.19681
1.19586
-0.127308
0.128257
-1.1945
1.19268
-0.229557
0.231376
-1.19035
1.18747
-0.332699
0.335585
-1.18395
1.17972
-0.436932
0.441158
-1.1747
1.16877
-0.542487
0.548415
-1.16183
1.15375
-0.649368
0.657446
-1.14441
1.13365
-0.757447
0.768203
-1.12133
1.10729
-0.866454
0.880497
-1.09135
1.07334
-0.975852
0.993858
-1.05309
1.03039
-1.08482
1.10751
-1.00508
0.976958
-1.1923
1.22043
-0.945845
0.911564
-1.29699
1.33127
-0.873949
0.832851
-1.39724
1.43833
-0.788144
0.739731
-1.49102
1.53943
-0.687566
0.631669
-1.57578
1.63167
-0.572157
0.509281
-1.64872
1.71159
-0.443475
0.375456
-1.70742
1.77544
-0.306265
0.237687
-1.74996
1.81854
-0.159369
0.113685
-1.77716
1.82284
-0.0258587
0.025814
1.15476
-1.15458
1.15441
-0.12883
0.129008
-1.15412
1.15369
-0.232523
0.232955
-1.15306
1.15218
-0.337506
0.338386
-1.15098
1.14938
-0.444135
0.44574
-1.14728
1.14457
-0.552827
0.555531
-1.14115
1.13687
-0.663769
0.668047
-1.13159
1.12516
-0.777006
0.78344
-1.11739
1.1081
-0.892448
0.901736
-1.09709
1.08414
-1.00972
1.02267
-1.06902
1.05149
-1.12812
1.14565
-1.0313
1.00817
-1.24667
1.26979
-0.981852
0.952057
-1.36407
1.39386
-0.918508
0.880933
-1.47857
1.51615
-0.839072
0.792687
-1.58785
1.63424
-0.741584
0.685641
-1.68876
1.7447
-0.624848
0.559373
-1.77736
1.84283
-0.489648
0.416554
-1.84981
1.9229
-0.341551
0.267521
-1.9034
1.97743
-0.180379
0.138785
-1.9397
1.98129
-0.0256951
0.0255
1.11355
-1.11364
1.11422
-0.128802
0.128225
-1.11499
1.11593
-0.232693
0.231758
-1.11698
1.11809
-0.338261
0.337146
-1.11921
1.12025
-0.446024
0.444984
-1.12113
1.12174
-0.556602
0.555993
-1.12196
1.12167
-0.670391
0.670682
-1.12072
1.11893
-0.787661
0.789443
-1.11614
1.11213
-0.90857
0.912582
-1.10667
1.09953
-1.033
1.04014
-1.09044
1.07909
-1.1605
1.17184
-1.06518
1.04837
-1.29032
1.30713
-1.02828
1.00453
-1.42137
1.44511
-0.976709
0.944368
-1.55202
1.58437
-0.907059
0.864326
-1.67991
1.72264
-0.815727
0.760873
-1.80139
1.85625
-0.69948
0.631466
-1.91131
1.97932
-0.557094
0.477289
-2.00371
2.08351
-0.393939
0.311211
-2.07402
2.15675
-0.211043
0.173751
-2.12527
2.16256
-0.0252386
0.024905
1.07381
-1.07452
1.07581
-0.127269
0.125981
-1.07758
1.07982
-0.230133
0.2279
-1.08247
1.0855
-0.33502
0.331989
-1.08886
1.09248
-0.442597
0.43898
-1.09628
1.10017
-0.553689
0.549793
-1.10406
1.10782
-0.668916
0.665159
-1.11131
1.11438
-0.788802
0.785732
-1.11685
1.11852
-0.913816
0.912145
-1.11916
1.11852
-1.04418
1.04482
-1.11631
1.1122
-1.17984
1.18395
-1.10585
1.09685
-1.32048
1.32948
-1.08475
1.06906
-1.46548
1.48117
-1.04922
1.02462
-1.61375
1.63835
-0.994559
0.9583
-1.76333
1.79959
-0.915034
0.863926
-1.91072
1.96183
-0.804177
0.73514
-2.04983
2.11886
-0.65653
0.568927
-2.17205
2.25965
-0.474357
0.378153
-2.26889
2.36509
-0.260895
0.22386
-2.34367
2.38071
-0.0245151
0.0240591
1.03536
-1.03646
1.03839
-0.124332
0.122401
-1.04107
1.04449
-0.225007
0.221591
-1.04861
1.05341
-0.32798
0.323184
-1.05884
1.06487
-0.434042
0.428016
-1.07143
1.07845
-0.544203
0.537176
-1.08587
1.09357
-0.659299
0.651597
-1.10145
1.10938
-0.780115
0.772183
-1.11721
1.12477
-0.907456
0.899903
-1.13184
1.13819
-1.04196
1.03561
-1.14355
1.14761
-1.18407
1.18001
-1.15
1.15033
-1.33409
1.33376
-1.14811
1.14278
-1.49217
1.4975
-1.13371
1.12014
-1.65826
1.67184
-1.10117
1.07576
-1.83166
1.85707
-1.0427
1.00055
-2.01021
2.05235
-0.947742
0.882582
-2.18843
2.25359
-0.803533
0.709839
-2.35595
2.44965
-0.602429
0.487127
-2.49832
2.61362
-0.347555
0.305084
-2.61742
2.65989
-0.0235583
0.0229995
0.998369
-0.999993
1.00248
-0.120139
0.11765
-1.00596
1.0104
-0.217566
0.213118
-1.01581
1.02216
-0.317478
0.311127
-1.02944
1.03761
-0.420747
0.412569
-1.04666
1.05653
-0.528528
0.518655
-1.06718
1.07855
-0.64184
0.630472
-1.09056
1.10313
-0.761699
0.749129
-1.11615
1.12949
-0.889231
0.875891
-1.143
1.15649
-1.0255
1.01201
-1.16975
1.18252
-1.17148
1.15871
-1.1945
1.20534
-1.32819
1.31735
-1.21461
1.2218
-1.49679
1.48959
-1.22631
1.22737
-1.67866
1.6776
-1.22405
1.21518
-1.8753
1.88417
-1.19928
1.17449
-2.08771
2.1125
-1.13843
1.08817
-2.3144
2.36467
-1.02017
0.930685
-2.54798
2.63747
-0.816608
0.679428
-2.77071
2.90789
-0.510226
0.439546
-2.98073
3.05141
-0.0224081
0.0217677
0.962841
-0.96456
0.967506
-0.11487
0.111924
-0.97163
0.976928
-0.208133
0.202834
-0.983401
0.991047
-0.303966
0.296319
-0.999868
1.00986
-0.403272
0.393279
-1.02102
1.03334
-0.507301
0.494986
-1.04679
1.06137
-0.617195
0.602617
-1.07704
1.09377
-0.734136
0.717406
-1.11151
1.1302
-0.859507
0.840822
-1.14975
1.17005
-0.994729
0.974421
-1.191
1.21242
-1.14125
1.11983
-1.23414
1.25593
-1.30073
1.27894
-1.27751
1.29856
-1.4753
1.45426
-1.31864
1.33723
-1.66787
1.64928
-1.35365
1.36698
-1.88253
1.86919
-1.37602
1.3791
-2.12491
2.12183
-1.37388
1.35709
-2.40161
2.4184
-1.32415
1.2687
-2.71819
2.77364
-1.18254
1.05363
-3.07576
3.20466
-0.881667
0.798847
-3.49369
3.57651
0.0655115
-0.179834
0.114533
-0.174364
0.277765
-0.103431
-0.359909
0.422506
-0.0626373
-0.473376
0.514909
-0.0414636
-0.54821
0.573662
-0.0254515
-0.591744
0.598922
-0.00753042
-0.597788
0.588705
0.00892085
-0.566928
0.539166
0.0277364
-0.514813
0.461453
0.0533253
-0.369711
0.273681
0.0960311
-0.0960016
-0.0655027
0.126072
0.224768
-0.329262
0.104494
0.441583
-0.358887
0.174321
0.373863
-0.524196
0.0404502
0.617648
-0.717334
0.070035
0.766138
-0.801789
0.00558091
0.981335
-1.00265
-0.0218541
1.04383
-0.99923
0.00240217
0.624475
-0.00685633
0.0140239
0.00685633
-0.146012
0.00179937
0.983634
-0.966866
-1.02053e-08
0.943766
-0.927293
-7.93551e-05
0.440224
-0.122675
0.000961135
0.412292
-0.463288
-0.0314488
-0.788177
2.76575
-1.75765
-4.0105
4.59872
-0.776293
-5.05261
5.36359
-0.374991
-6.03536
6.32305
-0.196079
-6.4904
6.65632
-0.165919
-4.7552
4.54602
-0.109937
-4.62834
4.59669
0.00340425
-4.57911
6.81698
0.0784069
-6.74567
6.69059
0.0550848
-6.64793
6.61383
0.0341016
-6.58563
6.5616
0.0240282
-6.54072
6.52243
0.0182848
-6.50649
6.49276
0.0137259
-6.48117
6.47161
0.0095598
-6.46391
6.4578
0.00611415
-6.45308
6.45005
0.00302955
-6.4497
6.45128
-0.00158648
-6.11026
6.10894
0.0015985
-6.10387
6.09615
0.00799781
-6.37819
6.41794
0.00946524
-6.40995
6.40563
0.00432505
-6.40806
6.4185
-0.0104398
-5.33398
4.79153
-0.00237924
-4.78467
4.76904
0.0156353
-4.74772
6.35007
0.022824
-6.33239
6.31808
0.0143084
-6.30548
6.29389
0.0115918
-6.28301
6.273
0.0100121
-6.26404
6.2565
0.00753534
-6.25046
6.24593
0.00453152
-6.24265
6.24039
0.00225966
-6.23887
6.23793
0.000940205
-6.23733
6.23713
0.000203597
-6.23714
6.23742
-0.000285515
-6.23791
6.23862
-0.000710831
-6.23915
6.24011
-0.000952731
0.286468
-0.376113
0.0855079
-0.186351
0.25869
0.18039
-0.252948
-0.327399
0.387344
0.122651
-0.182596
-0.439496
0.48357
0.083764
-0.127839
-0.519834
0.547959
0.0524454
-0.0805703
-0.56473
0.58263
0.0188874
-0.0333224
-0.589083
0.586896
-0.0137366
0.0163751
-0.577232
0.560384
-0.0467471
0.0640991
-0.530945
0.491523
-0.0980765
0.137498
-0.446755
0.388347
-0.16933
0.226023
-0.325131
0.195178
-0.225836
0.375348
-0.0259778
0.0056396
-0.124754
0.0753673
0.0811205
-0.150034
-0.159098
0.138573
0.0580839
-0.0108286
-0.0304249
0.174617
-8.4155e-05
-2.29235e-21
8.4155e-05
-7.66259e-21
3.19829e-22
1.20069e-21
2.20768e-10
-2.20768e-10
-1.17754e-24
2.43853e-36
0
-1.46314e-25
1.61825e-21
2.90349e-22
3.35319e-07
-3.35319e-07
0.00128796
-0.00178622
0.000233935
-8.89429e-06
-6.00745e-05
4.56228e-05
0.000435997
0.00107248
1.09286e-08
-0.000213348
1.02053e-08
0.000199179
0.000190447
1.511e-21
7.93551e-05
-0.000213885
-3.6461e-21
-6.44605e-21
0
1.02172e-20
-7.67615e-19
0.828583
0.0644284
-0.333199
-3.68156
4.16485
2.98565
-3.46895
-4.68597
5.1686
1.38442
-1.86704
-5.57255
5.9016
0.727905
-1.05695
-6.168
6.37959
0.408996
-0.620587
-6.54146
6.65952
0.290875
-0.408942
-6.74551
6.80998
0.183728
-0.248203
-6.85657
6.88939
0.0161682
-0.0489895
-6.91211
6.91875
-0.100526
0.0938853
-6.90881
6.88963
-0.0875538
0.106747
-6.86691
6.84397
-0.0623539
0.0852959
-6.82234
6.80265
-0.04597
0.0656597
-6.78517
6.76994
-0.0350583
0.050293
-6.75695
6.7462
-0.0259233
0.0366765
-6.73759
6.73104
-0.0175323
0.0240809
-6.72646
6.72365
-0.0102917
0.0131005
-6.72224
6.72174
-0.00388394
0.00438684
-6.72201
6.72223
0.00109946
-0.00132162
-6.72289
6.72312
-0.00224264
0.00201046
-6.72326
6.72314
-0.0108759
0.0110003
-6.72248
6.72151
-0.012868
0.0138332
-6.72066
6.71998
-0.00445897
0.00514003
-6.71831
6.71517
0.00915222
-0.00601191
-6.71173
6.70724
-0.0017879
0.00628341
-6.70285
6.69894
-0.0287053
0.0326166
-6.69479
6.68872
-0.0346686
0.0407352
-6.68115
6.67344
-0.025651
0.0333682
-6.66584
6.65809
-0.0216811
0.0294234
-6.64995
6.64143
-0.0196327
0.0281614
-6.63297
6.62514
-0.0156316
0.0234579
-6.6184
6.61288
-0.0100072
0.0155218
-6.60854
6.60516
-0.00548499
0.00885907
-6.60256
6.60051
-0.00278739
0.00483275
-6.59889
6.59754
-0.00129649
0.00265306
-6.59643
6.59549
-0.000325896
0.00126714
-6.59472
6.59403
0.00044414
0.000246625
-6.59349
6.59298
0.00090759
-0.000392362
0.409972
-0.403073
0.0395126
-0.144045
0.216011
0.325988
-0.380019
-0.2662
0.306122
0.233167
-0.263884
-0.347289
0.392167
0.15625
-0.192861
-0.416289
0.459256
0.108052
-0.137178
-0.486843
0.496135
0.0492862
-0.0614593
-0.496703
0.474584
-0.0159949
0.0137913
-0.494372
0.466787
-0.0774415
0.0813597
-0.469373
0.442703
-0.171403
0.176125
-0.453423
0.434831
-0.273268
0.310635
-0.392671
0.36854
-0.411507
0.435638
-0.273604
0.140049
-0.255025
0.571185
-0.0675411
0.0295223
-0.111399
0.126968
-0.0225766
-0.00178624
-0.163389
0.125205
0.000240174
-1.27311e-22
2.19144e-21
-0.000240174
-1.82686e-29
8.99615e-10
-8.99615e-10
-3.10298e-22
-4.62463e-05
0.000141868
-8.14868e-07
-8.62758e-06
-0.000245038
9.67952e-06
5.10369e-05
-8.15413e-05
-1.07703e-07
2.06148e-22
1.00498e-22
1.07703e-07
-2.53397e-06
0.000934576
-0.00116785
2.03084e-05
-0.00156718
0.00130167
-0.000760778
0.00190726
-0.000267653
9.48677e-20
0.000107737
-5.10959e-06
1.38063e-20
0.0226684
-5.86047e-20
-0.0226684
-1.63978
4.66316
2.36496
-4.5895
-4.67168
4.82266
3.71276
-3.86374
-5.08623
5.38566
2.24151
-2.54095
-5.67727
5.94201
1.35119
-1.61593
-6.17088
6.36058
0.820957
-1.01066
-6.50997
6.6209
0.522805
-0.633732
-6.70057
6.7585
0.308006
-0.365934
-6.80247
6.83826
0.084377
-0.120172
-6.86774
6.88779
-0.0782471
0.0581934
-6.8961
6.8943
-0.115785
0.117584
-6.88587
6.87396
-0.102549
0.114459
-6.86083
6.84791
-0.082125
0.0950404
-6.83612
6.82597
-0.0631717
0.0733258
-6.81773
6.81145
-0.0453908
0.0516636
-6.80711
6.80465
-0.0287539
0.0312213
-6.80393
6.80469
-0.0142602
0.0134925
-6.80648
6.8087
-0.003564
0.00134388
-6.81096
6.81323
0.00247702
-0.00475443
-6.8157
6.81842
-0.000500206
-0.00222655
-6.82125
6.82399
-0.00960934
0.00686676
-6.82638
6.82823
-0.013185
0.0113377
-6.82935
6.82942
-0.00553452
0.00545605
-6.82809
6.82528
0.00287522
-5.74196e-05
-6.82168
6.81834
-0.0100337
0.0133794
-6.81578
6.81426
-0.035089
0.0366016
-6.81347
6.8126
-0.0437731
0.0446381
-6.81143
6.81012
-0.037653
0.0389601
-6.80851
6.80602
-0.0345302
0.0370209
-6.80212
6.7967
-0.0351531
0.0405707
-6.79037
6.7841
-0.0305368
0.0368132
-6.77857
6.77406
-0.0205921
0.0251044
-6.77051
6.76772
-0.0119995
0.0147894
-6.76551
6.76373
-0.00679017
0.00857264
-6.76222
6.76084
-0.00405009
0.00542368
-6.75956
6.75836
-0.00236103
0.00355599
-6.75724
6.75614
-0.00116725
0.00226465
-6.75518
6.75424
-0.000375042
0.00131954
0.443111
-0.493205
0.0500945
-0.101995
0.166229
0.40572
-0.469961
-0.231272
0.310134
0.299394
-0.387029
-0.379302
0.426858
0.261605
-0.308367
-0.469928
0.501539
0.165418
-0.190232
-0.531079
0.557189
0.0828269
-0.101921
-0.573898
0.580199
-0.0102306
0.00434033
-0.576368
0.564628
-0.103738
0.115478
-0.546185
0.5208
-0.224631
0.25333
-0.492925
0.4458
-0.348161
0.38132
-0.372357
0.367211
-0.423171
0.460228
-0.345921
0.36545
-0.623722
0.616196
-0.363319
0.301222
-0.479962
0.703281
-0.0804972
-0.00019603
-0.000434121
0.0130998
7.14314e-05
0.000151523
-0.000705639
3.92033e-06
-0.000499023
0.000333419
-0.000221943
0.000523809
2.84063e-05
4.59953e-05
5.17791e-05
-2.45226e-05
-1.221e-21
0.00952742
-3.70708e-06
-0.00952371
-0.200697
0.314212
0.0433338
-0.460042
-0.159116
-0.00111095
-0.000519361
0.0657289
4.14708e-05
0.000100063
-0.000726984
-1.35525e-20
-3.45039e-22
2.25933e-22
-5.57809e-23
2.30776e-20
-0.483862
4.56676
0.623687
-3.80666
-5.15154
5.1261
4.84002
-4.81458
-5.12729
5.21165
3.96833
-4.05269
-5.37133
5.57442
2.78217
-2.98525
-5.79001
5.99873
1.84863
-2.05734
-6.187
6.34811
1.18482
-1.34593
-6.47768
6.57657
0.738393
-0.83728
-6.64898
6.70224
0.4211
-0.474358
-6.74301
6.7768
0.154703
-0.188495
-6.80581
6.82906
-0.0363548
0.0130987
-6.84503
6.85369
-0.113758
0.105104
-6.85658
6.85568
-0.120867
0.121775
-6.85272
6.84899
-0.1036
0.107329
-6.84551
6.84299
-0.0798942
0.0824165
-6.84185
6.84219
-0.0548471
0.0545041
-6.84402
6.84723
-0.0310308
0.0278152
-6.85177
6.85741
-0.0104587
0.00481533
-6.86362
6.86963
0.00260891
-0.00862392
-6.87509
6.88026
0.00839051
-0.0135583
-6.88548
6.89089
0.00622343
-0.0116273
-6.89632
6.90151
-0.00291769
-0.00226593
-6.90611
6.90985
-0.00852943
0.0047962
-6.91248
6.91385
-0.00476474
0.00338866
-6.91396
6.91299
-0.00189633
0.00286795
-6.91141
6.9098
-0.0159152
0.0175274
-6.90875
6.90872
-0.0373076
0.0373382
-6.90988
6.91208
-0.0438042
0.0416042
-6.91514
6.91881
-0.0376053
0.0339344
-6.92256
6.92537
-0.036813
0.0340005
-6.92609
6.92406
-0.0442644
0.0462891
-6.92001
6.91547
-0.0421429
0.0466795
-6.91152
6.90845
-0.0288685
0.0319391
-6.90611
6.90419
-0.0171138
0.0190302
-6.90258
6.90122
-0.0101136
0.011472
-6.89999
6.89873
-0.00672302
0.00798571
-6.89739
6.89604
-0.00481351
0.00616333
-6.89468
6.89328
-0.00349836
0.0048936
-6.89194
6.8907
-0.00239959
0.00364634
0.566094
-0.794128
0.0925738
-0.143531
0.1966
0.606779
-0.659848
-0.247321
0.298569
0.480682
-0.53193
-0.318737
0.369221
0.346989
-0.400913
-0.416563
0.477292
0.232015
-0.291213
-0.517113
0.544921
0.132648
-0.160456
-0.563541
0.573197
0.00378218
-0.0134388
-0.57233
0.561773
-0.126665
0.137223
-0.543797
0.520944
-0.276105
0.298959
-0.494607
0.456379
-0.406391
0.445337
-0.420856
0.392514
-0.503147
0.559674
-0.370511
0.351205
-0.627012
0.646318
-0.226236
0.0428179
-0.563411
0.117996
-0.000759095
-2.1459e-05
-0.0213471
-2.52523e-06
7.23815e-10
-1.8694e-07
1.54164e-09
-8.73347e-07
-2.2747e-06
4.58301e-06
-0.000106272
0
-3.82241e-05
7.96436e-06
5.99748e-06
-3.05928e-20
-7.96436e-06
0.233183
0.0312509
-0.232123
-0.304972
0.3265
0.541462
-0.562991
-0.151459
0
-0.0449128
0.00651201
-3.18517e-20
-6.35626e-21
-4.16006e-22
5.43403e-19
-0.159861
2.48168
0.269108
-2.28627
-5.21767
5.31717
5.08043
-5.17994
-5.33412
5.34999
4.80966
-4.82554
-5.38124
5.45299
4.12613
-4.19788
-5.56992
5.72046
3.15637
-3.30692
-5.88514
6.04894
2.24057
-2.40437
-6.19901
6.32909
1.49023
-1.62031
-6.43445
6.51624
0.927126
-1.00892
-6.57856
6.62647
0.524357
-0.572269
-6.66515
6.69889
0.221371
-0.255112
-6.72954
6.75702
0.011488
-0.0389625
-6.78051
6.79919
-0.0918045
0.0731246
-6.81371
6.82503
-0.116814
0.105487
-6.83411
6.84172
-0.105633
0.0980234
-6.84864
6.85575
-0.0803066
0.0731935
-6.86346
6.87194
-0.0502286
0.0417537
-6.88115
6.891
-0.0213731
0.0115223
-6.90143
6.91253
0.00350659
-0.0146048
-6.92384
6.93428
0.0167579
-0.0271936
-6.9432
6.95125
0.0201598
-0.0282119
-6.95915
6.96713
0.0183206
-0.0262968
-6.97502
6.98244
0.00855221
-0.0159656
-6.98898
6.99435
-0.000258543
-0.00510736
-6.99833
7.00093
-0.00136916
-0.00123334
-7.00247
7.00338
-0.0028298
0.00191758
-7.00396
7.00435
-0.0181268
0.0177446
-7.00486
7.00604
-0.0367416
0.0355557
-7.0085
7.01255
-0.0383624
0.0343208
-7.01812
7.02494
-0.0284539
0.0216359
-7.03248
7.03968
-0.0288382
0.0216407
-7.04482
7.04611
-0.0466503
0.0453585
-7.04392
7.04082
-0.0504232
0.0535224
-7.03827
7.03655
-0.0342848
0.0360118
-7.03527
7.03396
-0.0205718
0.0218852
-7.03253
7.03127
-0.0127051
0.0139662
-7.03012
7.02884
-0.00922454
0.0105089
-7.02733
7.02575
-0.00760289
0.00917953
-7.02414
7.02243
-0.00643256
0.00814261
-7.02064
7.01898
-0.00506734
0.00672292
0.889707
-0.966147
0.0764872
-0.142997
0.184441
0.7036
-0.744831
-0.223636
0.265345
0.579036
-0.620744
-0.287908
0.326556
0.449451
-0.432099
-0.384008
0.440059
0.333357
-0.349738
-0.478719
0.506615
0.188987
-0.210761
-0.530472
0.547673
0.024792
-0.0365188
-0.555119
0.553591
-0.146686
0.144713
-0.538623
0.515667
-0.321638
0.344593
-0.488953
0.459512
-0.47621
0.50565
-0.428023
0.394038
-0.59265
0.626624
-0.35853
0.323511
-0.674022
0.709041
-0.262559
0.109791
-0.300446
0.803412
-0.0218301
3.87105e-21
-1.53266e-21
0.0218301
-3.24848e-11
2.74273e-10
-8.79348e-06
3.21658e-07
-1.24815e-16
-5.06619e-16
2.25917e-24
-5.30214e-15
3.45793e-16
0.020233
4.48256e-21
-0.020233
-0.203685
0.262838
0.507199
-0.583879
-0.264555
0.105148
0.535939
-0.403095
-4.86354e-07
-2.91928e-20
4.86354e-07
2.89024e-20
1.11097e-34
1.30738
0.087691
-1.30866
-4.90077
5.28929
5.13146
-5.51997
-5.3422
5.39071
5.21564
-5.26415
-5.43618
5.48205
4.85754
-4.90341
-5.53527
5.60947
4.26875
-4.34296
-5.70871
5.82763
3.43827
-3.55719
-5.95499
6.07939
2.54647
-2.67087
-6.19213
6.28947
1.73331
-1.83064
-6.3692
6.43299
1.08053
-1.14433
-6.48676
6.53367
0.618051
-0.664959
-6.57677
6.61819
0.290953
-0.332379
-6.65864
6.69771
0.0705814
-0.109648
-6.73375
6.76664
-0.0484099
0.0155171
-6.79516
6.82045
-0.0874848
0.0621889
-6.84283
6.86275
-0.0844003
0.0644829
-6.88078
6.8977
-0.0611501
0.0442273
-6.91405
6.9301
-0.0293557
0.0133071
-6.94599
6.96169
0.00136233
-0.0170672
-6.97699
6.99211
0.0279685
-0.0430837
-7.0053
7.0068
0.0396382
-0.0515122
-6.98664
6.95205
0.0373582
-0.0348189
-6.91389
6.89628
0.0351554
-0.0335136
-6.90373
6.9154
0.0242056
-0.0257086
-6.93203
6.95261
0.0111445
-0.0137517
-6.97335
6.99076
0.00423045
-0.00577915
-7.00731
7.03285
-0.000450576
-0.000897066
-7.07814
7.10803
-0.0164676
0.011583
-7.11362
7.11625
-0.0337563
0.0311223
-7.11986
7.12487
-0.029776
0.0247652
-7.13115
7.13839
-0.0142697
0.00703217
-7.14645
7.15508
-0.0132079
0.00457692
-7.16352
7.16872
-0.0423102
0.0371073
-7.16871
7.16735
-0.0559049
0.0572628
-7.16614
7.16532
-0.0371912
0.0380155
-7.16465
7.16336
-0.0231008
0.0243966
-7.16129
7.13243
-0.0154156
0.0130327
-7.02048
6.76493
-0.0118634
0.00914475
-6.50058
6.45326
-0.0108563
0.00720751
-6.45858
6.46815
-0.00997078
0.00678521
-6.48049
6.49687
-0.00862826
0.00628334
1.02544
-1.07108
0.0456374
-0.108217
0.152077
0.78649
-0.830349
-0.152834
0.159282
0.623151
-0.538139
-0.252406
0.33022
0.488416
-0.606893
-0.383866
0.427851
0.393959
-0.470126
-0.456179
0.475284
0.217057
-0.284911
-0.490592
0.482701
0.0474243
-0.0680341
-0.471586
0.456682
-0.141872
0.138345
-0.434943
0.410392
-0.330076
0.336066
-0.413302
0.438514
-0.528642
0.527901
-0.418568
0.383631
-0.660467
0.695404
-0.345548
0.30533
-0.747701
0.78792
-0.266531
0.237269
-0.85383
0.871995
-0.218823
0.171888
-0.613335
0.936345
-0.103706
0.0771567
-0.00305508
0.713975
-0.0708781
0.0851196
-0.0722286
0.242294
-0.123572
0.172099
0.236441
-0.345646
-0.223234
0.254592
0.609432
-0.64079
-0.0931973
-1.73472e-18
0.119575
-0.0058865
-3.20595e-18
0.523115
-6.18918e-18
-0.523115
-4.3679
5.14437
5.09562
-5.8721
-5.21883
5.29159
5.58292
-5.65568
-5.36237
5.43171
5.32184
-5.39118
-5.49689
5.56271
4.96004
-5.02586
-5.63182
5.70922
4.41854
-4.49594
-5.79768
5.89183
3.6628
-3.75696
-5.98373
6.06788
2.77491
-2.85906
-6.13734
6.16485
1.91093
-1.93843
-5.64449
4.55641
1.20138
-0.309683
-3.39065
2.49868
0.695282
2.51865e-20
-1.91407
1.56037
0.299138
1.57979e-20
-1.33329
1.15132
0.103421
5.6349e-21
-0.975157
0.803912
0.0139641
1.84863e-21
-0.654077
0.518269
-0.0189189
2.2107e-22
-0.36412
0.174202
-0.0230836
0
-0.0286221
0.000952672
-0.012524
1.05879e-22
-0.000555604
7.61436e-21
0.000555604
8.79391e-22
4.14701e-20
-7.46538e-20
0
1.51505e-21
9.95417e-20
-1.20133e-19
0
2.10047e-21
1.36926e-19
-1.49831e-19
0
2.30703e-21
1.58948e-19
-1.6437e-19
0
1.9137e-21
1.65654e-19
-1.61798e-19
0
1.66293e-21
1.51407e-19
-1.32754e-19
0
1.23972e-21
1.03646e-19
-6.59938e-20
0
6.51966e-22
7.65592e-21
-0.000117675
0.000117675
1.89012e-22
-0.00355691
0.0159995
0.000377549
9.04787e-24