/*--------------------------------*- C++ -*----------------------------------*\
| =========                 |                                                 |
| \\      /  F ield         | OpenFOAM: The Open Source CFD Toolbox           |
|  \\    /   O peration     | Version:  v1912                                 |
|   \\  /    A nd           | Website:  www.openfoam.com                      |
|    \\/     M anipulation  |                                                 |
\*---------------------------------------------------------------------------*/
FoamFile
{
    version     2.0;
    format      ascii;
    class       volScalarField;
    location    "34";
    object      epsilon;
}
// * * * * * * * * * * * * * * * * * * * * * * * * * * * * * * * * * * * * * //

dimensions      [0 2 -3 0 0 0 0];


internalField   nonuniform List<scalar> 
20320
(
4.44141e-05
0.00021435
0.000220192
0.000225969
0.000231636
0.000237147
0.000242446
0.000247459
0.000252101
0.000256274
0.000259879
0.000262796
0.000264887
0.000266004
0.00026597
0.000264556
0.000261353
0.000255418
0.000244907
0.000240948
4.40127e-05
4.39257e-05
4.4669e-05
4.64459e-05
4.9779e-05
5.53239e-05
6.38981e-05
7.65773e-05
9.47481e-05
0.000120118
0.000154802
0.000201429
0.00026318
0.000343796
0.000447366
0.000577795
0.000736274
0.000913956
0.00107165
0.00112452
4.44232e-05
4.49239e-05
4.61343e-05
4.81767e-05
5.14955e-05
5.67061e-05
6.47095e-05
7.68345e-05
9.50562e-05
0.000122295
0.000162668
0.000221706
0.000306526
0.000425789
0.000589056
0.000804703
0.00107419
0.0013767
0.00163408
0.00182143
4.50102e-05
4.65096e-05
4.88014e-05
5.19409e-05
5.63957e-05
6.28068e-05
7.21084e-05
8.57251e-05
0.000105859
0.000135918
0.000181087
0.000248931
0.000349781
0.000496639
0.000704269
0.000986458
0.00134805
0.00176274
0.00212664
0.00253865
4.57365e-05
4.85715e-05
5.23147e-05
5.69507e-05
6.29694e-05
7.10482e-05
8.21756e-05
9.78532e-05
0.000120403
0.000153493
0.000202949
0.000277813
0.000391284
0.000560793
0.000806312
0.00114624
0.00158783
0.00210073
0.00256665
0.00325297
4.65806e-05
5.10932e-05
5.66977e-05
6.33093e-05
7.1427e-05
8.17557e-05
9.53299e-05
0.000113723
0.000139347
0.00017601
0.000229867
0.00031086
0.00043441
0.000622336
0.000900881
0.00129407
0.00181025
0.00241203
0.00297095
0.00395938
4.75142e-05
5.40158e-05
6.18866e-05
7.0976e-05
8.17801e-05
9.50152e-05
0.000111746
0.000133606
0.000163086
0.000204099
0.000263002
0.000350276
0.000482864
0.000686305
0.00099355
0.00143613
0.00202441
0.00271126
0.00335734
0.00466576
4.85027e-05
5.72578e-05
6.7777e-05
7.98575e-05
9.39822e-05
0.000110862
0.000131571
0.000157788
0.000192064
0.0002384
0.000303315
0.000397672
0.000539473
0.000757197
0.00109018
0.00157883
0.0022376
0.0030089
0.0037402
0.00537846
4.95039e-05
6.07048e-05
7.41945e-05
8.9749e-05
0.000107841
0.000129169
0.000154798
0.000186433
0.00022667
0.000279573
0.000351813
0.000454584
0.000606715
0.000839031
0.00119663
0.00172948
0.00245839
0.00331628
0.00413543
0.00611767
5.04688e-05
6.42047e-05
8.088e-05
0.000100306
0.000122974
0.000149581
0.000181186
0.00021951
0.000267173
0.000328282
0.000409652
0.000522806
0.000687323
0.000936039
0.00131927
0.00189673
0.00269743
0.00364571
0.00455508
0.00690792
5.13436e-05
6.757e-05
8.74876e-05
0.00011103
0.00013877
0.00017146
0.000210183
0.000256696
0.00031364
0.000385147
0.000478165
0.000604575
0.000784731
0.00105338
0.00146575
0.00209146
0.00296949
0.00401688
0.00502402
0.00776407
5.20736e-05
7.05881e-05
9.35994e-05
0.000121281
0.000154394
0.000193855
0.000240865
0.00029729
0.000365832
0.000450654
0.00055885
0.000702712
0.000903482
0.00119793
0.00164627
0.00232836
0.00329486
0.00445657
0.00557463
0.00871803
5.26102e-05
7.30433e-05
9.87665e-05
0.000130327
0.000168827
0.000215524
0.000271912
0.000340133
0.000423083
0.000525046
0.000653324
0.000820746
0.00104969
0.00137936
0.00187549
0.00262919
0.00370472
0.00500645
0.00625389
0.00981928
5.29164e-05
7.47452e-05
0.000102565
0.000137428
0.00018096
0.000234995
0.000301604
0.000383513
0.000484108
0.000608044
0.000763063
0.000962832
0.00123137
0.0016112
0.00217499
0.00302728
0.00424895
0.00573663
0.00714603
0.0111567
5.29737e-05
7.55591e-05
0.000104665
0.000141949
0.000189732
0.000250709
0.00032791
0.000425125
0.000546784
0.000698471
0.000888937
0.00113339
0.0014586
0.00191223
0.0025771
0.00357623
0.00501355
0.00677586
0.00841314
0.0128979
5.27847e-05
7.54312e-05
0.000104893
0.000143468
0.000194302
0.000261217
0.000348654
0.000462126
0.000607976
0.000793753
0.00103041
0.0013362
0.00174294
0.0023074
0.00312961
0.00436313
0.00615081
0.00836991
0.0103801
0.0153995
5.2373e-05
7.43996e-05
0.000103264
0.000141865
0.000194202
0.000265415
0.000361782
0.000491307
0.000663445
0.000889351
0.0011843
0.00157252
0.00209537
0.00282688
0.00390001
0.00552867
0.00794175
0.0110354
0.013809
0.0195777
5.17795e-05
7.25866e-05
9.99854e-05
0.000137349
0.000189447
0.000262761
0.000365696
0.000509461
0.000707999
0.000978298
0.00134323
0.00183785
0.00252121
0.00349991
0.00497273
0.00728667
0.0109031
0.0159317
0.0207581
0.0280122
5.10549e-05
7.01762e-05
9.54133e-05
0.000130427
0.000180551
0.000253435
0.000359622
0.000513958
0.000736109
0.00105137
0.00149443
0.00211813
0.00301159
0.00433941
0.00642638
0.00991114
0.0159034
0.0256701
0.037713
0.0518486
5.02528e-05
6.7381e-05
8.99861e-05
0.000121806
0.000168443
0.000238352
0.000343872
0.000503404
0.000742958
0.00109816
0.00161978
0.00238643
0.00353255
0.00531415
0.00827009
0.0136061
0.0240224
0.0452071
0.0851931
0.163039
0.951099
2.70027
3.51382
3.83164
3.84776
3.63446
3.32727
3.08055
3.75592
14.7915
51.8519
127.949
198.098
341.342
554.86
817.696
1224.55
1645.5
1782.53
3158.95
4902.82
6124.59
7545.8
8136.65
3696.48
2105.76
1372.44
974.666
740.392
573.776
440.162
346.035
282.649
237.682
203.341
175.927
153.547
134.98
119.346
105.975
94.3333
83.9562
74.8009
66.9176
60.2699
54.6392
49.3773
44.7079
40.9479
38.1466
36.1462
34.7924
33.9658
33.5513
33.4367
33.5303
33.7557
34.055
34.3753
34.6745
1.78214
1.09713
1.22957
1.31748
1.35041
1.34708
1.35428
1.52782
2.70755
8.98317
28.5477
67.4447
112.993
174.829
304.589
442.23
671.853
1055.56
1413.23
2085.26
2875.08
3910.46
5822.03
4366.02
1826.16
1049.4
701.939
508.951
386.083
301.056
238.827
192.184
156.501
129.067
107.757
90.9413
77.4751
66.5499
57.5772
50.1117
43.8191
38.4685
33.8977
29.9756
26.5973
23.6856
21.1865
19.083
17.3254
15.8835
14.7402
13.8541
13.1785
12.6727
12.3009
12.0303
11.8323
11.6835
11.5658
11.466
2.45887
1.31894
1.30642
1.32649
1.33382
1.35104
1.48175
2.14545
4.97034
13.6975
32.5243
64.6218
108.135
160.132
244.355
351.166
536.197
853.396
1179.57
1546.05
2088.89
2909.66
3171.28
2115.09
1273.6
834.819
594.433
446.688
347.121
276.079
223.396
183.076
151.324
125.96
105.619
89.2573
76.0341
65.2759
56.4487
49.1326
43.0048
37.8236
33.4158
29.6508
26.424
23.6501
21.2689
19.2454
17.5528
16.1596
15.0309
14.1302
13.4209
12.8673
12.4351
12.0938
11.8188
11.5907
11.3948
11.2214
2.98936
1.6175
1.55732
1.55716
1.56813
1.63748
1.99708
3.53706
8.74125
20.739
41.7033
73.3715
116.517
172.35
249.265
356.257
529.971
829.575
1258.71
1856.07
2705.3
2668.68
1903.07
1333.66
919.274
656.775
491.816
381.965
304.433
247.415
204.135
170.298
143.002
120.589
102.148
87.0208
74.6253
64.4461
56.043
49.0552
43.1965
38.2451
34.0353
30.4405
27.3607
24.7168
22.4545
20.5418
18.9516
17.647
16.5868
15.734
15.0571
14.5218
14.0929
13.7411
13.4449
13.1884
12.96
12.7534
3.62772
1.90873
1.85833
1.89104
1.94623
2.13678
2.92447
5.88708
14.1824
30.1216
54.9796
90.3946
138.439
203.668
293.265
425.105
639.98
1013.49
1644.54
2754.97
4618.79
2539.87
1542.97
1023.12
713.091
521.809
399.423
316.455
257.156
212.958
178.832
151.647
129.336
110.63
94.9275
81.8268
70.9428
61.9078
54.3883
48.1014
42.8129
38.3347
34.5217
31.2602
28.4615
26.0616
24.0207
22.3138
20.9122
19.7728
18.8466
18.0961
17.4962
17.0137
16.6124
16.2674
15.9634
15.6902
15.4398
15.2106
4.58129
2.23976
2.21754
2.31391
2.46038
2.87911
4.38347
9.36278
21.3272
41.9974
72.5722
115.589
174.719
257.229
374.49
555.787
860.486
1382.51
2351.75
4271
3763.77
2097.99
1263.1
820.523
567.684
416.001
320.413
256.45
211.198
177.501
151.332
130.293
112.866
98.0892
85.5173
74.9072
65.9915
58.5108
52.2361
46.9573
42.4968
38.708
35.472
32.6904
30.2834
28.2053
26.4522
25.0163
23.8592
22.9209
22.1479
21.5145
21.0002
20.5619
20.1659
19.8031
19.4697
19.1622
18.8775
18.6193
5.67402
2.64233
2.65871
2.83724
3.13129
3.92287
6.49917
14.0336
30.142
56.4678
94.9673
150.325
229.676
343.064
508.884
770.124
1220.31
2002.06
3602.45
4316.71
2540.73
1542.24
969.802
640.169
445.544
327.602
253.466
204.349
169.958
144.58
125.086
109.535
96.67
85.731
76.3496
68.4618
61.7576
56.0426
51.1953
47.0769
43.5839
40.5989
38.0252
35.7854
33.7945
31.9963
30.5088
29.3682
28.4738
27.7144
27.0364
26.4866
26.0643
25.6127
25.1419
24.6928
24.2739
23.8907
23.5418
23.2393
6.80256
3.11468
3.1904
3.47615
3.99464
5.33735
9.36315
19.9041
40.6048
73.626
122.82
197.192
311.808
484.369
736.873
1131.2
1837.39
3031.13
4624.68
2786.43
1725.7
1096.17
715.185
483.15
341.089
253.44
198.012
160.972
134.982
116.301
102.383
91.6577
83.0183
75.7005
69.2144
63.2775
58.0178
53.595
49.9237
46.8274
44.2265
42.028
40.1463
38.5741
37.3354
36.485
35.8728
35.336
34.7724
34.1008
33.2429
32.1665
31.1033
30.3124
29.6632
29.1169
28.6357
28.2142
27.8525
27.5702
8.05211
3.65818
3.81716
4.26169
5.0974
7.19664
13.0357
26.9562
52.7639
93.6928
157.003
260.02
434.941
719.882
1137.2
1753.47
2913.51
4925.08
3100.3
1908.95
1208.14
782.434
519.851
356.974
256.244
193.982
153.823
126.047
106.568
92.6833
82.5163
74.881
68.9477
64.0406
59.6672
55.7711
52.1004
48.7521
45.9144
43.5455
41.6013
40.0225
38.7557
37.8133
37.1897
36.7854
36.5493
36.3939
36.09
35.4605
34.5036
33.4978
32.6046
31.7726
31.1029
30.5898
30.178
29.848
29.6011
29.4474
9.51864
4.28788
4.55967
5.22747
6.49096
9.57836
17.5789
35.2278
66.7157
116.964
198.619
343.992
620.901
1121.37
1874.6
2883.49
4825.48
3884.07
2270.43
1380.01
867.89
561.4
374.438
260.232
191.419
148.241
118.608
98.0559
83.7202
73.5687
66.172
60.6428
56.3867
52.9366
50.011
47.6298
45.3434
43.0448
40.96
39.189
37.7562
36.6409
35.81
35.245
34.879
34.6022
34.4354
34.3533
34.1524
33.684
33.0344
32.4577
31.9031
31.2924
30.7663
30.3732
30.0874
29.8932
29.7893
29.7678
11.2946
5.03978
5.45657
6.42006
8.23757
12.5688
23.1169
44.9408
82.8234
144.013
249.024
455.303
900.506
1808.09
3267.15
5041.15
5348.07
2925.32
1684.7
1005.61
621.298
397.467
265.534
188.667
143.528
112.987
91.387
76.0809
65.3808
57.9391
52.6454
48.7339
45.7288
43.3233
41.3911
39.9271
38.5683
37.1205
35.7152
34.4846
33.4919
32.7423
32.21
31.8533
31.5971
31.3824
31.2524
31.2024
31.1037
30.8751
30.5959
30.3664
30.0873
29.7206
29.382
29.1355
28.9814
28.9123
28.9223
28.9898
13.5314
5.95146
6.55948
7.9034
10.4185
16.2576
29.8946
56.6559
101.885
175.917
309.859
599.442
1308.73
2948.22
5840.44
9161.54
4625.37
2325.76
1252.99
716.745
430.92
273.086
185.808
138.245
107.774
86.4664
70.7049
59.1381
50.9449
45.3278
41.4771
38.7318
36.6673
35.0533
33.8221
32.9469
32.1859
31.365
30.5292
29.7767
29.1695
28.7198
28.406
28.1869
28.0136
27.8732
27.8088
27.823
27.8462
27.8357
27.8213
27.809
27.7183
27.5451
27.3728
27.2567
27.21
27.2306
27.3093
27.4197
16.1911
7.06468
7.92269
9.75044
13.1164
20.7656
38.2581
71.387
125.696
214.776
383.075
777.641
1864.56
4751.29
10352.7
8964.08
3825.14
1759.36
887.191
484.554
284.739
182.712
131.582
101.533
81.2661
66.465
54.9864
46.178
39.7642
35.3565
32.4169
30.4218
29.0008
27.9548
27.2192
26.7502
26.394
26.0218
25.63
25.2704
24.9834
24.7778
24.6383
24.5388
24.461
24.4173
24.4431
24.5422
24.6764
24.8147
24.9487
25.0525
25.0807
25.0418
24.9915
24.9723
24.9997
25.0737
25.185
25.31
19.3001
8.42986
9.60016
12.0404
16.3979
26.1931
48.5899
90.6293
157.51
265.003
472.729
988.451
2543.25
7208.28
16700
6978.06
2764.73
1202.79
578.232
306.004
180.966
123.935
95.4155
76.8067
62.864
51.9149
43.1405
36.2372
31.1003
27.528
25.1677
23.6303
22.6147
21.9454
21.546
21.3596
21.2817
21.2199
21.1484
21.0829
21.0413
21.0275
21.0332
21.049
21.0771
21.1379
21.2566
21.4345
21.6469
21.8661
22.0696
22.2303
22.3268
22.372
22.4024
22.4476
22.521
22.6238
22.7489
22.8788
23.4723
10.0981
11.6192
14.8238
20.3786
32.4965
60.9536
116.179
203.035
335.717
589.742
1246.93
3368.4
9766.72
11502.7
4463.73
1749.31
742.668
347.513
184.233
116.945
89.2354
72.3669
60.0339
49.8003
41.1902
34.1111
28.4995
24.2915
21.3363
19.38
18.1371
17.3745
16.9426
16.7583
16.7569
16.8597
16.9968
17.1348
17.2682
17.3996
17.5288
17.6537
17.7755
17.9047
18.0598
18.2562
18.4916
18.7478
19.0012
19.2301
19.4158
19.5508
19.647
19.7284
19.8149
19.917
20.0368
20.1712
20.3073
28.5389
12.1548
14.0622
18.1868
25.0696
39.6756
74.6924
148.538
270.666
445.21
759.188
1598.16
4546.33
9857.65
6970.32
2579.92
1017.83
427.181
199.633
113.389
83.4014
68.9178
57.7593
48.3806
40.1158
32.9547
27.0225
22.3409
18.8395
16.3718
14.7325
13.7057
13.1126
12.8289
12.7728
12.8795
13.0846
13.3334
13.592
13.8454
14.088
14.3173
14.534
14.7432
14.9554
15.1834
15.4344
15.7043
15.9792
16.2417
16.4763
16.6728
16.83
16.9579
17.0723
17.1866
17.3093
17.4438
17.5896
17.7363
34.8234
14.7303
17.1257
22.3041
30.5334
47.299
88.536
183.961
365.176
626.306
1023.56
2066.66
4299.83
8769.4
3853.32
1476.84
575.131
239.18
117.844
78.9658
66.6563
56.5708
47.71
39.7406
32.5717
26.3707
21.2894
17.3331
14.4028
12.343
10.9749
10.1273
9.66037
9.47144
9.48617
9.64498
9.89507
10.1927
10.5077
10.8225
11.1281
11.4207
11.7006
11.9722
12.2425
12.5181
12.8012
13.0873
13.3664
13.6273
13.8609
14.0626
14.2341
14.3833
14.5207
14.6562
14.7968
14.9467
15.1072
15.2671
42.9465
17.9308
20.9529
27.325
37.0672
55.2429
99.7245
213.131
464.364
771.09
1137.22
2131.26
4440.55
6104.84
2289.74
845.844
322.644
137.479
78.3965
64.8649
57.0358
48.3006
40.1927
32.8744
26.406
20.9361
16.5515
13.2035
10.7595
9.05577
7.93048
7.24219
6.87805
6.75324
6.80401
6.97942
7.23714
7.54308
7.87212
8.20783
8.54038
8.86472
9.17972
9.48695
9.78932
10.089
10.3854
10.6745
10.9501
11.2055
11.4363
11.6411
11.8228
11.9872
12.1421
12.295
12.4521
12.618
12.794
12.967
51.0901
21.5305
25.6464
33.607
45.3737
64.3212
107.183
222.614
489.206
698.947
1149.86
2214.17
5031.91
3714.36
1311.79
479.556
184.258
86.7262
62.1243
58.3567
50.5849
41.9905
34.0633
27.1149
21.1989
16.3634
12.5953
9.78476
7.77043
6.38539
5.48188
4.93932
4.66465
4.5878
4.65603
4.8285
5.07267
5.36278
5.67932
6.00832
6.34043
6.67002
6.99417
7.31183
7.62286
7.92671
8.2216
8.50449
8.7715
9.01928
9.24602
9.45211
9.64036
9.81559
9.98367
10.1506
10.322
10.5021
10.6918
10.8749
55.9082
25.7018
31.365
41.7942
56.4743
76.6503
115.389
207.063
409.412
633.687
1140.87
2128.5
4397.46
1932.35
737.028
275.934
111.826
63.0703
57.3635
53.8944
45.4286
36.5749
28.7242
22.1206
16.7337
12.4959
9.29695
6.97461
5.3481
4.25257
3.55348
3.14646
2.95322
2.91602
2.99278
3.15249
3.37155
3.63169
3.91862
4.22151
4.53231
4.8453
5.15656
5.46343
5.76394
6.05614
6.33797
6.60697
6.86097
7.0983
7.31862
7.52294
7.71392
7.89539
8.07207
8.2489
8.43075
8.6214
8.82073
9.00944
60.5639
30.444
38.6043
53.1438
71.0218
94.9441
132.608
206.61
352.011
583.908
1065.49
2056.16
2841.85
1144.64
439.929
167.31
74.5366
53.1068
55.6898
49.8945
40.617
31.583
23.9159
17.7334
12.9002
9.2447
6.58044
4.70704
3.43446
2.60439
2.09467
1.81388
1.69503
1.6911
1.77022
1.9108
2.09746
2.31843
2.56435
2.82746
3.10149
3.38132
3.66284
3.94274
4.21821
4.48683
4.74643
4.99509
5.23137
5.45455
5.66482
5.86337
6.05246
6.23521
6.41537
6.5971
6.78454
6.9809
7.1847
7.37399
60.8652
34.2734
47.6607
66.8323
85.6183
116.951
162.035
240.465
379.258
621.419
1119.3
2463.82
1863.95
739.158
277.522
106.26
55.0956
50.4843
53.3772
45.7437
35.8764
26.8775
19.5553
13.8885
9.63959
6.55463
4.39411
2.93541
1.988
1.40211
1.06641
0.898956
0.84297
0.862372
0.935901
1.05104
1.19961
1.37545
1.57323
1.78808
2.01552
2.25145
2.49214
2.7343
2.97503
3.21175
3.44241
3.66536
3.87951
4.08447
4.28061
4.46898
4.65142
4.8304
5.00889
5.19032
5.37822
5.57495
5.77774
5.96251
56.2021
37.6966
55.2703
71.2096
97.9071
142.662
201.382
302.988
492.206
858.323
1687.04
3924.97
1388.54
494.653
174.089
69.4871
45.4168
51.6766
50.3152
41.1929
31.1238
22.4283
15.6215
10.555
6.9118
4.38191
2.69523
1.62052
0.974287
0.610366
0.426066
0.349308
0.336005
0.363455
0.421513
0.50539
0.61249
0.740779
0.887902
1.05128
1.22803
1.41515
1.60963
1.80854
2.00921
2.20928
2.40678
2.60023
2.78873
2.97199
3.15029
3.32447
3.49593
3.66657
3.8387
4.01504
4.19838
4.39033
4.58674
4.76222
72.4194
43.2217
60.3696
78.5812
107.299
167.021
243.071
372.727
638.746
1217.89
2599.3
2516.15
887.753
297.453
103.015
47.7922
41.9482
51.7299
46.5082
36.363
26.4156
18.2649
12.1188
7.71461
4.68361
2.68654
1.45398
0.73788
0.356225
0.177561
0.107325
0.0875208
0.0921291
0.112785
0.147929
0.198211
0.264397
0.347208
0.445864
0.559601
0.686745
0.825309
0.973111
1.12779
1.28708
1.4489
1.61155
1.7737
1.93452
2.09375
2.25152
2.40846
2.56554
2.72411
2.88591
3.05298
3.22734
3.40968
3.59472
3.75682
107.14
54.8549
73.5878
92.5819
117.429
167.684
260.749
410.249
698.287
1307.7
2713.67
1324.47
460.214
156.655
59.4915
36.6963
42.9492
49.5906
41.9225
31.3573
21.8677
14.4501
9.06184
5.35009
2.92624
1.4623
0.641187
0.232242
0.0674614
0.0197077
0.00979678
0.00926666
0.0127198
0.0203778
0.0339321
0.0555454
0.0873122
0.130948
0.187452
0.257149
0.33979
0.433924
0.538371
0.651296
0.770996
0.895789
1.02422
1.15519
1.28796
1.42224
1.55806
1.69581
1.8361
1.97985
2.1282
2.28252
2.44406
2.6126
2.78196
2.92735
136.637
70.8521
97.1025
104.372
116.144
152.198
226.95
348.178
568.454
1030.12
1331.67
559.921
212.691
78.8905
37.0801
32.7588
46.1798
46.1944
36.8234
26.3771
17.6099
11.0486
6.4625
3.44874
1.64664
0.657794
0.190095
0.0294558
0.0021411
0.00036156
0.00027552
0.000387763
0.000733616
0.001632
0.00382824
0.00868722
0.018147
0.0343579
0.0592294
0.0941255
0.13976
0.196135
0.262822
0.338886
0.423055
0.5141
0.610838
0.712427
0.818244
0.92798
1.0416
1.15927
1.28134
1.40834
1.54091
1.67981
1.82549
1.97684
2.12716
2.2536
157.242
82.0326
94.3662
96.8083
109.48
141.572
197.9
276.343
407.64
778.304
546.661
243.758
99.3016
42.0795
27.3171
33.5689
46.6433
41.7569
31.532
21.6112
13.7503
8.10479
4.31949
2.03432
0.786516
0.205851
0.0213905
0.000429504
7.27239e-05
6.13146e-05
6.10449e-05
6.57573e-05
8.11276e-05
0.000126334
0.000261608
0.000671623
0.00185858
0.0049
0.0114898
0.0235826
0.0428995
0.070599
0.107212
0.152707
0.206634
0.268383
0.337196
0.412458
0.493561
0.580209
0.672336
0.769964
0.873241
0.982391
1.09769
1.21933
1.34704
1.4789
1.60804
1.71439
136.137
75.3455
80.7679
86.9254
102.836
135.819
186.98
240.374
334.123
460.041
242.857
113.478
49.4579
25.8141
24.4826
37.7017
44.2688
36.6085
26.2928
17.2142
10.3615
5.63376
2.67865
1.04993
0.279398
0.028093
0.000335736
6.22827e-05
5.66367e-05
5.48244e-05
5.34407e-05
5.25055e-05
5.23633e-05
5.39779e-05
6.0433e-05
8.18333e-05
0.000152121
0.000385217
0.00112793
0.00321976
0.0081193
0.0176094
0.0332694
0.0561246
0.0866045
0.124696
0.170145
0.222631
0.281875
0.347612
0.419836
0.498278
0.58301
0.67408
0.771441
0.874894
0.983581
1.09489
1.20199
1.2881
102.137
64.5285
69.6102
77.6373
95.535
128.96
177.223
219.385
310.057
231.131
120.35
56.939
27.2215
19.4257
25.6778
41.3574
40.5148
31.2251
21.3516
13.2903
7.47551
3.66025
1.49549
0.431777
0.0530507
0.000669352
6.19698e-05
5.63214e-05
5.49918e-05
5.38321e-05
5.27461e-05
5.17518e-05
5.08589e-05
5.01387e-05
4.98144e-05
5.04796e-05
5.40312e-05
6.7027e-05
0.000112768
0.000275251
0.000834254
0.00253413
0.00676263
0.0152405
0.0294012
0.0500653
0.0775412
0.111852
0.152914
0.200623
0.254899
0.315692
0.382883
0.456466
0.5361
0.621316
0.710831
0.801574
0.886791
0.95284
73.5191
53.5509
59.6766
69.2816
87.7836
120.385
166.64
208.883
232.655
128.235
64.762
30.7762
17.4911
18.1114
29.654
40.9495
35.5068
25.8604
16.8371
9.88709
5.08601
2.19296
0.705856
0.113927
0.00251576
6.55051e-05
5.45379e-05
5.37882e-05
5.3131e-05
5.24955e-05
5.18703e-05
5.12626e-05
5.06768e-05
5.01108e-05
4.95577e-05
4.90582e-05
4.87745e-05
4.91768e-05
5.18276e-05
6.2387e-05
0.000102594
0.000258372
0.000840481
0.00271144
0.00741185
0.0165815
0.0313004
0.0520579
0.0790152
0.112193
0.151557
0.197038
0.248514
0.305803
0.368541
0.436047
0.506778
0.57741
0.641185
0.686032
54.3249
43.7758
50.7216
62.0484
81.7765
115.407
160.354
203.929
140.548
74.6809
36.375
18.0762
13.8869
19.7509
35.1879
38.1415
30.2203
20.7904
12.8312
7.0149
3.22172
1.16143
0.246255
0.0114118
8.88199e-05
5.17711e-05
5.11426e-05
5.09336e-05
5.07391e-05
5.05545e-05
5.03808e-05
5.02051e-05
5.00143e-05
4.97946e-05
4.95369e-05
4.92465e-05
4.89244e-05
4.86184e-05
4.85071e-05
4.90995e-05
5.22656e-05
6.55928e-05
0.000121851
0.000362649
0.00130554
0.00420307
0.0107125
0.0220121
0.0386272
0.060723
0.0883025
0.121272
0.15944
0.20251
0.249971
0.300934
0.353646
0.404556
0.446381
0.464387
38.8018
36.2315
43.2826
56.8293
80.7753
119.384
167.275
156.66
87.7806
44.3722
20.9045
12.201
13.6105
23.4698
37.475
33.7136
24.8549
16.1874
9.38806
4.66209
1.85884
0.500303
0.0462365
0.000280231
5.02129e-05
4.85345e-05
4.83053e-05
4.82035e-05
4.82119e-05
4.82827e-05
4.83957e-05
4.85312e-05
4.86765e-05
4.88155e-05
4.89238e-05
4.89826e-05
4.89701e-05
4.88926e-05
4.8784e-05
4.8728e-05
4.89904e-05
5.04407e-05
5.67505e-05
8.50269e-05
0.000216625
0.000798028
0.00285107
0.00795368
0.0172609
0.0312079
0.0498409
0.0730131
0.100427
0.131616
0.165865
0.202022
0.238071
0.270145
0.290334
0.280986
33.4575
29.8886
37.5529
53.8818
85.5674
134.459
170.565
107.671
55.7734
25.9676
12.5578
10.1644
15.429
28.9344
35.0769
28.6298
19.8329
12.1734
6.52962
2.85768
0.92595
0.145769
0.00249248
5.40553e-05
4.69418e-05
4.6435e-05
4.61297e-05
4.5993e-05
4.59838e-05
4.60974e-05
4.62946e-05
4.6556e-05
4.6873e-05
4.72327e-05
4.76123e-05
4.7989e-05
4.83265e-05
4.86012e-05
4.88122e-05
4.89778e-05
4.91592e-05
4.95296e-05
5.06567e-05
5.48311e-05
7.32341e-05
0.000162273
0.000581408
0.00218558
0.00643563
0.0143941
0.0263209
0.0420331
0.0611022
0.0828619
0.106341
0.130089
0.151799
0.167453
0.169577
0.143375
32.4699
25.6846
34.7346
55.1426
96.6521
160.091
138.821
72.52
33.5962
14.6513
8.65126
10.4644
18.8817
32.7019
31.5679
23.5625
15.2993
8.76605
4.2296
1.57254
0.356913
0.0187413
9.15368e-05
4.59118e-05
4.52453e-05
4.48596e-05
4.45526e-05
4.43416e-05
4.42573e-05
4.42939e-05
4.44403e-05
4.46796e-05
4.50019e-05
4.54012e-05
4.58713e-05
4.64025e-05
4.69671e-05
4.75378e-05
4.80881e-05
4.85933e-05
4.90683e-05
4.95752e-05
5.02312e-05
5.14452e-05
5.49064e-05
6.86572e-05
0.000134519
0.000452316
0.00172452
0.00525081
0.0119748
0.0219516
0.0346913
0.049364
0.0647836
0.0792712
0.0903695
0.0943308
0.0854824
0.0565954
28.4595
24.2318
35.7347
66.38
121.695
173.705
95.942
44.0187
18.1684
8.51146
7.58208
12.3944
24.0445
32.2361
26.6563
18.5387
11.3139
5.9624
2.49185
0.725059
0.0827058
0.000596666
4.61808e-05
4.40501e-05
4.373e-05
4.3485e-05
4.3291e-05
4.31348e-05
4.30228e-05
4.29832e-05
4.30325e-05
4.31747e-05
4.34086e-05
4.37311e-05
4.41421e-05
4.46436e-05
4.52334e-05
4.59046e-05
4.66375e-05
4.74067e-05
4.81945e-05
4.8994e-05
4.98429e-05
5.08618e-05
5.23472e-05
5.5524e-05
6.61103e-05
0.000113515
0.000339805
0.00126743
0.00395682
0.00922609
0.0169676
0.026388
0.0362478
0.0448664
0.0500112
0.048788
0.0379897
0.0171443
33.1234
24.8618
42.791
97.8973
185.149
131.668
57.3982
22.5812
9.13734
6.06808
8.32666
15.7411
29.5279
28.7053
21.5353
14.0221
7.97076
3.74204
1.29045
0.241197
0.00664163
5.72698e-05
4.33401e-05
4.28656e-05
4.25341e-05
4.23078e-05
4.21752e-05
4.2095e-05
4.20456e-05
4.2025e-05
4.20427e-05
4.2113e-05
4.22492e-05
4.24594e-05
4.27493e-05
4.31266e-05
4.36007e-05
4.41818e-05
4.48789e-05
4.56905e-05
4.66024e-05
4.76041e-05
4.86961e-05
4.98881e-05
5.12682e-05
5.30784e-05
5.61139e-05
6.39942e-05
9.42411e-05
0.000229687
0.000783515
0.00246745
0.00593104
0.0110255
0.0168253
0.0219209
0.0246145
0.0231718
0.0165331
0.00617272
42.5092
32.305
65.6579
178.785
177.51
71.8002
26.4019
9.69441
5.2105
5.92176
10.3978
20.7053
28.82
24.1151
16.7585
10.1736
5.26435
2.08894
0.533653
0.0405399
0.000166552
4.31775e-05
4.23283e-05
4.19928e-05
4.1677e-05
4.14348e-05
4.12788e-05
4.11962e-05
4.11729e-05
4.11942e-05
4.12492e-05
4.13322e-05
4.14443e-05
4.15929e-05
4.17896e-05
4.20463e-05
4.23751e-05
4.27923e-05
4.33182e-05
4.39728e-05
4.47767e-05
4.57428e-05
4.68683e-05
4.81601e-05
4.96341e-05
5.13282e-05
5.34219e-05
5.63779e-05
6.20603e-05
7.838e-05
0.000139893
0.000373253
0.00109283
0.00264799
0.00493618
0.00722152
0.00841633
0.00756307
0.00458383
0.00126564
59.5178
58.3019
144.085
202.847
74.566
25.8404
9.05609
4.40928
4.42069
7.20551
13.724
26.0752
25.5678
19.3249
12.4872
6.96631
3.14133
0.985123
0.141244
0.0017554
4.61084e-05
4.16747e-05
4.13938e-05
4.11605e-05
4.09525e-05
4.07838e-05
4.06515e-05
4.05557e-05
4.0508e-05
4.05156e-05
4.05726e-05
4.06706e-05
4.08008e-05
4.09572e-05
4.11385e-05
4.13465e-05
4.15888e-05
4.18792e-05
4.22366e-05
4.26861e-05
4.32598e-05
4.39904e-05
4.49116e-05
4.60525e-05
4.74247e-05
4.90471e-05
5.09479e-05
5.32176e-05
5.60989e-05
6.0353e-05
6.84584e-05
8.93548e-05
0.000150207
0.000311376
0.000631557
0.00103233
0.00123858
0.0010052
0.000482861
0.000139448
186.193
228.317
153.037
55.5309
18.8653
6.8157
3.44993
3.34189
5.28711
9.61532
18.6249
25.1992
21.2418
14.7977
8.81944
4.38824
1.60741
0.340627
0.0143167
7.19437e-05
4.13973e-05
4.09036e-05
4.06354e-05
4.04134e-05
4.02576e-05
4.01635e-05
4.01065e-05
4.00676e-05
4.00438e-05
4.0044e-05
4.00783e-05
4.01519e-05
4.02659e-05
4.04179e-05
4.0604e-05
4.08177e-05
4.10537e-05
4.13112e-05
4.15952e-05
4.19176e-05
4.23017e-05
4.27839e-05
4.34071e-05
4.42148e-05
4.52567e-05
4.65712e-05
4.81781e-05
5.01031e-05
5.23766e-05
5.51066e-05
5.85417e-05
6.32801e-05
7.06116e-05
8.33259e-05
0.000103964
0.000129312
0.000144318
0.000133939
0.000105155
7.42183e-05
50.6474
72.252
24.6217
9.07948
4.04234
2.5181
2.57564
3.98769
7.25709
13.2446
22.8924
22.2823
16.9268
10.8049
5.81229
2.44082
0.662154
0.0632689
0.000353955
4.23044e-05
4.06202e-05
4.0334e-05
4.01045e-05
3.99059e-05
3.97548e-05
3.96612e-05
3.96202e-05
3.96191e-05
3.96441e-05
3.96851e-05
3.97373e-05
3.98042e-05
3.98929e-05
4.0011e-05
4.01641e-05
4.03545e-05
4.05819e-05
4.08423e-05
4.11287e-05
4.1435e-05
4.17624e-05
4.21211e-05
4.2536e-05
4.30494e-05
4.37125e-05
4.45802e-05
4.57096e-05
4.71348e-05
4.88781e-05
5.0942e-05
5.33509e-05
5.61461e-05
5.95077e-05
6.35274e-05
6.829e-05
7.35618e-05
7.8171e-05
7.99614e-05
7.60255e-05
6.40258e-05
4.94229e-05
6.44101e-05
8.41507e-05
0.000112262
0.000154299
0.000219022
0.000319907
0.000478181
0.000725793
0.00110935
0.00169846
0.00260385
0.00401844
0.00631913
0.0103412
0.0181566
0.0353549
0.0781795
0.203023
0.867102
4.85834e-05
6.14125e-05
7.82317e-05
0.000102394
0.000139115
0.000196933
0.000289601
0.000439902
0.00068418
0.00107872
0.00171181
0.00272822
0.00438425
0.00718611
0.0122788
0.0226373
0.0468908
0.111412
0.300003
1.17932
4.77619e-05
5.84581e-05
7.24145e-05
9.26093e-05
0.000123692
0.000173494
0.000255116
0.000391256
0.000620045
0.00100387
0.00164525
0.00271763
0.00453134
0.00769504
0.0135619
0.0255774
0.0533812
0.123698
0.30629
0.766056
4.69868e-05
5.56603e-05
6.69377e-05
8.33715e-05
0.000108918
0.00015036
0.000219361
0.000336862
0.00053958
0.000890454
0.0014974
0.00254829
0.00438179
0.00764952
0.013736
0.0259438
0.0527772
0.115347
0.256832
0.540659
4.62803e-05
5.31057e-05
6.19796e-05
7.50251e-05
9.54761e-05
0.000128913
0.000185085
0.000281921
0.000451846
0.000752467
0.001286
0.00223496
0.0039306
0.00699686
0.0126883
0.0237545
0.0465919
0.0953761
0.195109
0.380607
4.5657e-05
5.08495e-05
5.76443e-05
6.77686e-05
8.37841e-05
0.00011009
0.000154392
0.000231027
0.000366373
0.00060833
0.00104387
0.00183113
0.00325894
0.0058621
0.0106628
0.0197141
0.0372962
0.0719476
0.137754
0.251463
4.51254e-05
4.89191e-05
5.39703e-05
6.16657e-05
7.39955e-05
9.43218e-05
0.000128474
0.000187273
0.000290676
0.000475159
0.000807484
0.00140982
0.00250531
0.00450135
0.00814572
0.0148307
0.0271748
0.0499093
0.0903529
0.15654
4.46882e-05
4.73186e-05
5.09455e-05
5.66774e-05
6.60567e-05
8.16153e-05
0.000107638
0.000151953
0.000228821
0.000364073
0.000604577
0.0010352
0.00180883
0.00319887
0.00568947
0.0101285
0.0179772
0.0316383
0.0545845
0.0905888
4.43449e-05
4.60351e-05
4.85186e-05
5.26938e-05
5.97793e-05
7.1685e-05
9.1534e-05
0.000124863
0.000181495
0.000278822
0.000447668
0.000742313
0.00125734
0.00215526
0.00371002
0.00637144
0.0108544
0.0182362
0.0299695
0.0475964
4.40927e-05
4.50426e-05
4.66061e-05
4.95524e-05
5.49014e-05
6.41231e-05
7.95055e-05
0.000104958
0.000147163
0.000217575
0.000335831
0.000535222
0.000871065
0.00143278
0.00235908
0.00385393
0.00620471
0.00980146
0.0151277
0.0226565
4.39312e-05
4.42961e-05
4.50993e-05
4.70889e-05
5.11481e-05
5.84253e-05
7.06768e-05
9.0764e-05
0.000123292
0.000175805
0.000260748
0.000398418
0.000621146
0.000978466
0.00153971
0.00238807
0.00361521
0.00533659
0.00774562
0.0112174
4.40706e-05
4.37854e-05
4.40848e-05
4.56883e-05
4.94513e-05
5.63866e-05
6.8032e-05
8.67674e-05
0.0001163
0.000162739
0.000236548
0.000356131
0.000554458
0.000898574
0.00154491
0.00284833
0.00586303
0.0122893
0.0246301
0.0472827
0.000537726
8.8806e-05
0.000158556
0.000278911
0.00048989
0.000851372
0.00145905
0.00244707
0.00397042
0.00621243
0.00966453
0.0148424
0.0220986
0.0320059
0.047293
0.0716613
0.107607
0.155409
0.210639
0.298263
0.11839
0.0414068
0.0461318
0.0483689
0.05116
0.0553598
0.0611347
0.0687658
0.0786212
0.0913019
0.107296
0.12583
0.141403
0.161967
0.223529
0.313747
0.432759
0.560715
0.642523
0.931889
0.0194042
0.0301102
0.0460514
0.0632272
0.0838233
0.106769
0.131509
0.157399
0.185031
0.215206
0.245741
0.264132
0.25915
0.284198
0.304207
0.320589
0.35074
0.386516
0.430689
0.564966
0.00491416
0.00419885
0.0047099
0.00753478
0.0119158
0.0177968
0.0251498
0.0337588
0.0433846
0.0537576
0.0643145
0.0742589
0.0863142
0.112198
0.128439
0.129343
0.12233
0.112964
0.110153
0.129024
0.00237891
0.00134843
0.000861623
0.00134041
0.00220316
0.00340303
0.0049451
0.00680832
0.00894071
0.0112673
0.0137224
0.0164437
0.0204151
0.0269748
0.0326179
0.0341796
0.0318408
0.027362
0.0231733
0.0212541
0.00135147
0.000611253
0.000188482
0.00026509
0.000444976
0.000713537
0.00106469