/*--------------------------------*- C++ -*----------------------------------*\
| =========                 |                                                 |
| \\      /  F ield         | OpenFOAM: The Open Source CFD Toolbox           |
|  \\    /   O peration     | Version:  v1912                                 |
|   \\  /    A nd           | Website:  www.openfoam.com                      |
|    \\/     M anipulation  |                                                 |
\*---------------------------------------------------------------------------*/
FoamFile
{
    version     2.0;
    format      ascii;
    class       volScalarField;
    location    "34";
    object      k;
}
// * * * * * * * * * * * * * * * * * * * * * * * * * * * * * * * * * * * * * //

dimensions      [0 2 -2 0 0 0 0];


internalField   nonuniform List<scalar> 
20320
(
0.00413923
0.00425406
0.004331
0.00440642
0.00447979
0.00455057
0.0046181
0.00468155
0.00473991
0.00479208
0.00483691
0.00487303
0.00489886
0.00491261
0.00491219
0.00489477
0.00485518
0.0047814
0.00464928
0.00459868
0.00415076
0.00414915
0.00419434
0.00429102
0.00445953
0.00472008
0.00509067
0.00558866
0.00622964
0.00702497
0.00798372
0.00911461
0.010425
0.011919
0.0135915
0.0154199
0.0173238
0.0190661
0.0199241
0.0170782
0.00417736
0.0042176
0.00430392
0.00444329
0.00466123
0.00498939
0.00546777
0.00614507
0.00707824
0.00833041
0.00996135
0.0120155
0.014512
0.0174347
0.0207178
0.0242207
0.0276704
0.030499
0.0313027
0.0262996
0.0042151
0.00431984
0.00447438
0.00468056
0.00496432
0.0053583
0.00590555
0.00666459
0.00771397
0.00915506
0.011109
0.0137013
0.0170287
0.0211163
0.0258751
0.0310584
0.0361865
0.040328
0.0413869
0.0348782
0.00426138
0.00445067
0.00469378
0.00498705
0.00535602
0.00583329
0.00646244
0.0073038
0.00844102
0.00999053
0.0121096
0.0149934
0.0188429
0.0237897
0.0297907
0.0365283
0.0433121
0.048823
0.0503003
0.0426529
0.00431458
0.00460756
0.00495992
0.00536261
0.00583986
0.0064234
0.00715631
0.00809901
0.00933592
0.010987
0.0132239
0.0162823
0.0204491
0.0259886
0.0329796
0.041108
0.0494812
0.0563429
0.0582661
0.0497002
0.00437268
0.00478535
0.00526513
0.00579792
0.0064059
0.00711902
0.00797885
0.00904512
0.0104016
0.0121684
0.0145219
0.0177178
0.0221001
0.0280504
0.0358064
0.0451408
0.0550127
0.0631983
0.0655667
0.0562104
0.00443339
0.00497779
0.00559995
0.00628143
0.00704174
0.00790818
0.00891987
0.0101349
0.0116353
0.01354
0.0160264
0.0193602
0.0239204
0.0301795
0.0385343
0.0489014
0.0601642
0.0696412
0.0724538
0.0623412
0.00449403
0.00517724
0.00595209
0.00679722
0.00772938
0.00877273
0.00996306
0.0113558
0.0130304
0.0151029
0.0177503
0.0212432
0.0259829
0.0325089
0.0413607
0.0526259
0.0651807
0.0759235
0.0791947
0.0683324
0.00455168
0.00537467
0.00630635
0.00732482
0.0084448
0.00968748
0.0110849
0.0126892
0.0145758
0.0168564
0.0197059
0.0233976
0.0283471
0.0351445
0.0444515
0.0565339
0.0703103
0.0822941
0.086004
0.0744511
0.00460328
0.00555996
0.00664506
0.00783956
0.00915797
0.0106198
0.0122539
0.0141085
0.0162542
0.0187967
0.0219068
0.0258581
0.031077
0.0381924
0.0479713
0.0608548
0.0758404
0.0890898
0.0932403
0.0808481
0.00464588
0.00572254
0.00694907
0.00831371
0.00983391
0.0115303
0.0134299
0.0155784
0.0180408
0.0209154
0.0243667
0.028667
0.0342504
0.0417786
0.0521108
0.065857
0.0821174
0.0967223
0.101335
0.0878003
0.00467691
0.00585237
0.00719952
0.00871882
0.010435
0.0123741
0.0145652
0.0170539
0.019901
0.0231969
0.0270982
0.0318742
0.0379659
0.0460652
0.0571175
0.0718976
0.0896217
0.105776
0.110872
0.0957285
0.00469452
0.00594107
0.00737981
0.00902831
0.0109238
0.0131037
0.0156052
0.0184791
0.0217867
0.0256123
0.0301051
0.035532
0.0423423
0.0512616
0.0633247
0.0794757
0.0990558
0.117156
0.122817
0.105303
0.0046978
0.005983
0.00747772
0.00922072
0.011267
0.0136726
0.0164909
0.0197874
0.0236323
0.0281116
0.0333723
0.0396837
0.0475124
0.0576316
0.0711882
0.0893254
0.111533
0.132397
0.138896
0.117706
0.00468695
0.00597615
0.0074873
0.00928268
0.0114397
0.0140398
0.0171633
0.0209028
0.0253526
0.0306149
0.0368491
0.0443425
0.0536009
0.0654826
0.0813099
0.10252
0.128835
0.154168
0.162289
0.135304
0.00466322
0.00592241
0.00740975
0.00921107
0.0114286
0.0141757
0.0175693
0.0217449
0.0268417
0.0330034
0.040429
0.0494565
0.0606777
0.0751172
0.0944216
0.120581
0.153873
0.187456
0.199681
0.163669
0.00462877
0.00582737
0.00725341
0.00901379
0.0112354
0.0140663
0.0176686
0.0222362
0.0279781
0.0351139
0.0439254
0.0548571
0.068671
0.0867067
0.111238
0.14543
0.191194
0.241824
0.266553
0.216739
0.00458633
0.00569944
0.00703254
0.00870883
0.0108765
0.0137173
0.0174423
0.0223151
0.0286385
0.0367469
0.0470616
0.0602123
0.0772536
0.10007
0.132074
0.178844
0.24677
0.334333
0.401156
0.342786
0.00453886
0.00554863
0.00676516
0.00832176
0.0103819
0.0131552
0.0168988
0.0219494
0.0287189
0.0376913
0.0494846
0.0650017
0.0857307
0.114371
0.156123
0.22084
0.324889
0.486785
0.684271
0.736161
0.656875
0.915265
1.09075
1.15538
1.15856
1.11536
1.05177
1.00029
1.14794
2.85768
6.55077
11.9354
15.9692
22.9718
31.7757
41.2246
54.0236
65.7324
69.0928
101.607
134.805
156.156
180.517
189.905
112.815
77.5591
58.3008
46.3827
38.602
32.6164
27.3596
23.2923
20.3362
18.1108
16.3204
14.8194
13.5353
12.4225
11.4453
10.5752
9.7883
9.05915
8.38909
7.78903
7.26364
6.80438
6.3627
5.9544
5.61337
5.35159
5.16022
5.02846
4.94671
4.90503
4.89328
4.90217
4.92423
4.95364
4.98524
5.01486
1.00115
2.3562
2.84784
3.04253
3.08141
3.03673
2.99677
3.21576
4.75863
10.305
19.8498
32.9799
45.8336
59.9227
82.4915
112.773
152.74
204.406
234.023
228.444
328.547
427.597
528.631
412.505
248.946
179.012
138.86
112.517
93.6519
79.1913
67.4767
58.003
50.7313
44.9803
40.2456
36.2525
32.8375
29.882
27.2921
24.9925
22.9196
21.0264
19.306
17.7745
16.4272
15.225
14.1309
13.1606
12.3737
11.7821
11.3595
11.0837
10.9334
10.8826
10.9016
10.9643
11.0505
11.1458
11.239
11.3231
1.2443
3.08616
3.71716
3.98507
4.06419
4.07197
4.20035
5.03022
8.2755
16.2048
28.2728
42.9679
59.5834
77.1371
98.1717
125.036
168.253
224.68
268.729
290.011
346.137
442.391
449.676
337.469
249.746
194.504
157.509
130.956
110.881
95.1341
82.4143
72.0073
63.5526
56.6067
50.7916
45.8525
41.6118
37.9342
34.7108
31.853
29.2912
26.9759
24.8886
23.0305
21.3924
19.9447
18.6641
17.5626
16.6739
16.0034
15.5294
15.2274
15.0732
15.0342
15.0716
15.1525
15.2534
15.3587
15.4576
15.5431
1.4216
3.6991
4.47631
4.82863
4.97478
5.08244
5.51151
7.30985
12.6555
22.843
36.8389
53.1228
71.2732
91.7624
115.026
143.129
184.919
241.957
305.559
370.51
452.684
454.103
367.756
291.551
231.137
187.977
156.772
133.192
114.74
99.9531
87.8607
77.8272
69.4189
62.3095
56.242
51.0295
46.5234
42.6004
39.1572
36.1078
33.3852
30.9455
28.7633
26.83
25.1351
23.657
22.3813
21.3186
20.4859
19.875
19.4561
19.2025
19.0931
19.0936
19.1607
19.2599
19.3692
19.4755
19.5704
19.649
1.62262
4.20857
5.19562
5.68506
5.93927
6.22188
7.14405
10.3092
17.9843
30.4095
46.3209
64.5164
84.6323
107.711
134.429
167.519
213.68
278.582
365.042
481.218
636.07
447.28
334.086
261.277
209.93
173.542
147.057
126.878
110.945
98.0411
87.359
78.3681
70.6833
64.0447
58.2871
53.2896
48.9419
45.1446
41.8106
38.8633
36.2478
33.9259
31.8701
30.0644
28.4957
27.1495
26.0198
25.115
24.4389
23.9684
23.6636
23.4963
23.4533
23.502
23.5965
23.7064
23.8152
23.9143
23.9992
24.0675
1.90192
4.7747
5.95562
6.60236
7.00932
7.57215
9.22702
14.0916
24.1535
38.8872
56.9884
77.6072
100.492
126.867
158.257
198.716
255.042
333.786
449.794
626.769
573.055
403.846
299.631
232.677
187.275
155.747
133.139
116.145
102.841
92.0608
83.0913
75.4797
68.9075
63.1543
58.1092
53.7066
49.8636
46.5021
43.5549
40.9633
38.6836
36.685
34.9394
33.4247
32.1198
31.0121
30.1135
29.4371
28.9712
28.6737
28.5
28.4322
28.4627
28.551
28.6532
28.7527
28.8429
28.9211
28.9868
29.0413
2.2004
5.47468
6.8145
7.61601
8.22511
9.19614
11.8344
18.5987
31.0132
48.1843
68.9316
92.7969
119.862
151.201
189.423
239.566
310.327
411.125
573.177
634.401
460.369
340.567
258.16
201.992
163.366
136.603
117.622
103.564
92.6931
83.9746
76.8046
70.7695
65.5672
60.9898
56.9441
53.4465
50.3881
47.7029
45.358
43.3108
41.5395
40.0136
38.7038
37.5864
36.6233
35.7795
35.1312
34.7179
34.4852
34.355
34.2832
34.3062
34.4329
34.5346
34.5998
34.6514
34.6931
34.7303
34.7647
34.802
2.49127
6.25211
7.77855
8.74605
9.62479
11.1432
14.9809
23.7249
38.4355
58.1878
82.1685
110.507
144.094
184.177
233.003
296.887
389.618
518.685
661.995
490.634
367.834
279.411
215.945
170.996
139.559
117.735
102.34
90.9178
82.1367
75.3229
69.9174
65.5379
61.8712
58.6642
55.7332
52.9901
50.5191
48.4053
46.6297
45.1243
43.8728
42.8475
42.0148
41.3826
40.9693
40.8017
40.7825
40.8253
40.8715
40.8572
40.7183
40.4307
40.1454
40.0309
39.9815
39.9724
39.9774
39.9966
40.0337
40.0968
2.79668
7.06628
8.83634
10.0228
11.246
13.4504
18.6427
29.3615
46.3361
68.8302
96.7005
131.179
174.814
229.743
296.149
379.225
505.025
680.539
521.451
390.544
296.008
227.225
177.514
142.166
117.576
100.662
88.5494
79.3033
72.2565
66.8909
62.7502
59.5106
56.9083
54.6885
52.6458
50.8015
49.0541
47.4405
46.079
44.9661
44.0989
43.4605
43.029
42.8184
42.824
42.9683
43.2147
43.524
43.7492
43.7585
43.5337
43.2712
43.09
42.9186
42.8261
42.8161
42.8523
42.9245
43.0378
43.188
3.13704
7.95462
9.99926
11.4688
13.1176
16.1404
22.7865
35.4383
54.6491
80.0504
112.521
155.265
214.139
293.999
390.734
500.892
673.235
592.781
429.627
317.693
239.294
183.573
144.225
117.064
98.8844
86.2025
76.4813
69.0445
63.4412
59.2442
56.0629
53.62
51.7012
50.1135
48.7415
47.6445
46.5947
45.5171
44.5516
43.7718
43.2076
42.8582
42.7076
42.7454
42.9206
43.1439
43.4306
43.7814
44.0574
44.1403
44.0839
44.0881
44.1103
44.0544
44.0247
44.0677
44.1696
44.3231
44.53
44.767
3.5279
8.96079
11.3055
13.1145
15.2672
19.2258
27.4046
41.9737
63.4146
91.8614
129.622
183.13
264.41
384.999
534.757
685.657
710.022
495.408
354.045
257.74
191.78
146.621
116.27
96.6271
83.8865
74.1587
66.3845
60.2777
55.677
52.3241
49.8803
48.0594
46.6618
45.5486
44.6748
44.0747
43.5384
42.9364
42.3549
41.888
41.5868
41.4614
41.4962
41.6597
41.8901
42.1331
42.425
42.7781
43.099
43.3185
43.4965
43.7241
43.9094
43.9932
44.0653
44.1859
44.3626
44.5945
44.8772
45.1723
3.99348
10.0981
12.8019
15.0007
17.7274
22.7042
32.5371
49.1144
72.8077
104.406
148.026
214.818
327.289
510.661
749.551
959.165
640.775
422.462
289.328
205.134
150.631
115.634
94.0328
81.1989
71.9015
64.4181
58.0721
52.8804
48.9192
46.0924
44.1382
42.7689
41.7758
41.041
40.5415
40.282
40.1051
39.884
39.6492
39.4748
39.4105
39.4686
39.6327
39.8677
40.128
40.3965
40.7132
41.0925
41.482
41.8442
42.2054
42.5749
42.8714
43.0705
43.2413
43.439
43.6818
43.9723
44.3014
44.6231
4.51569
11.3955
14.522
17.1636
20.5159
26.5817
38.2465
57.1368
83.2936
118.07
167.813
249.785
402.215
676.939
1053.59
948.085
562.096
349.038
228.928
158.12
115.744
91.1787
77.8974
69.1906
62.311
56.3989
51.1043
46.5745
43.027
40.4974
38.8141
37.7223
37.0124
36.5657
36.3484
36.3396
36.4248
36.4995
36.5583
36.6429
36.7881
37.0021
37.2708
37.5683
37.8728
38.1915
38.5604
38.9921
39.4573
39.9288
40.4
40.8456
41.2121
41.4949
41.7442
42.005
42.2972
42.6244
42.9753
43.3035
5.09478
12.893
16.4942
19.6306
23.6242
30.8417
44.5836
66.3987
95.6495
133.743
189.458
287.336
485.425
874.93
1396.76
812.755
456.404
271.81
172.562
117.864
88.5305
74.1157
66.4034
60.4454
54.972
49.8577
45.1542
41.0543
37.7823
35.4226
33.872
32.9251
32.3897
32.1437
32.1322
32.3121
32.594
32.8942
33.1872
33.4867
33.8094
34.1583
34.5239
34.8935
35.2645
35.6546
36.0923
36.5857
37.1147
37.6534
38.1791
38.6608
39.0683
39.4071
39.7133
40.0207
40.3469
40.6956
41.056
41.3846
5.8257
14.6177
18.712
22.4006
27.0722
35.3767
51.4335
77.2376
111.094
153.159
214.433
328.369
577.375
1068.26
1139.64
620.349
342.31
198.804
124.305
86.9624
70.2715
63.4455
58.4564
53.8293
49.0477
44.3077
39.8982
36.0585
32.9784
30.7326
29.2515
28.375
27.938
27.8205
27.9499
28.266
28.6916
29.1563
29.625
30.0915
30.5582
31.0241
31.4842
31.9365
32.3886
32.8594
33.3684
33.9181
34.4918
35.0649
35.6122
36.1092
36.5414
36.9179
37.2647
37.6064
37.9577
38.3222
38.691
39.0234
6.65913
16.6093
21.2136
25.4964
30.8175
40.1174
58.3916
89.4522
131.089
179.456
245.981
376.096
688.144
1086.3
842.826
443.725
242.032
138.508
88.1814
67.0127
60.2694
56.7285
52.8017
48.5047
43.9068
39.3131
35.0635
31.4006
28.4717
26.3226
24.894
24.0584
23.677
23.6366
23.8544
24.2602
24.7827
25.3592
25.9508
26.54
27.1193
27.685
28.2353
28.7733
29.3093
29.858
30.4306
31.0251
31.6269
32.2152
32.7696
33.2743
33.7241
34.1286
34.5067
34.8768
35.2507
35.6329
36.0159
36.3592
7.63026
18.9417
24.1266
28.9987
34.8457
44.818
64.909
101.635
155.739
217.476
289.045
429.683
661.902
990.049
579.23
307.414
164.89
94.9255
65.4948
56.9523
55.236
52.1458
48.2327
43.8265
39.1769
34.6241
30.4877
26.9741
24.1847
22.1343
20.763
19.9639
19.6189
19.6231
19.8909
20.3485
20.9283
21.5737
22.245
22.9189
23.583
24.2311
24.8619
25.4792
26.0911
26.7065
27.3301
27.9576
28.5768
29.1724
29.7304
30.2425
30.7085
31.1374
31.5434
31.9407
32.3398
32.745
33.1495
33.5105
8.80563
21.6608
27.5104
32.9468
39.2653
49.3835
70.0076
111.178
179.769
246.078
304
428.435
649.166
761.586
401.713
208.223
110.924
67.735
54.0662
53.3508
52.0843
48.5211
44.1481
39.4316
34.6548
30.1233
26.0999
22.7372
20.0921
18.1512
16.8506
16.0955
15.7823
15.8142
16.1074
16.5893
17.1966
17.878
18.5952
19.3231
20.0468
20.7578
21.4535
22.1355
22.8079
23.4743
24.1352
24.7855
25.4163
26.0173
26.5806
27.1027
27.5861
28.039
28.4728
28.899
29.3268
29.7605
30.1923
30.5747
9.92053
24.5358
31.369
37.508
44.3849
54.1045
73.3039
114.434
187.043
233.1
302.714
429.946
678.758
536.96
273.365
140.36
76.8842
53.3058
49.9787
52.003
49.5584
45.1894
40.2203
35.1545
30.2597
25.7748
21.8874
18.6921
16.2046
14.389
13.1766
12.4795
12.2036
12.2587
12.5649
13.0537
13.6675
14.3601
15.0965
15.8521
16.6107
17.3623
18.1022
18.8286
19.5418
20.2417
20.9261
21.5907
22.2292
22.8356
23.4063
23.941
24.4433
24.9208
25.3829
25.8395
26.2987
26.7639
27.2254
27.6297
10.5713
27.6079
35.7431
43.0151
50.6491
59.7858
76.1641
109.71
168.896
220.186
299.785
417.325
617.04
356.775
186.002
96.5965
57.272
46.8887
49.9114
50.7838
47.0552
41.8153
36.2892
30.9375
25.983
21.5908
17.8727
14.8683
12.5581
10.8883
9.78644
9.16763
8.94241
9.02495
9.3399
9.82468
10.4287
11.112
11.844
12.6021
13.3702
14.1375
14.897
15.6444
16.3769
17.092
17.7865
18.4567
19.0989
19.7097
20.2884
20.8362
21.3576
21.8592
22.3493
22.8362
23.327
23.8237
24.3137
24.7374
11.1914
30.8332
40.8634
50.1095
58.2991
67.47
81.2018
107.003
151.437
207.39
285.469
400.239
462.298
249.861
129.846
69.4332
46.8034
44.985
50.5471
49.1862
44.2418
38.2612
32.3094
26.7833
21.8507
17.6062
14.0958
11.3113
9.20481
7.70933
6.7477
6.23381
6.07722
6.19397
6.51444
6.98443
7.56231
8.21573
8.91965
9.65457
10.4057
11.1619
11.9151
12.6591
13.3892
14.1015
14.7925
15.4593
16.0992
16.7113
17.2959
17.8553
18.3938
18.9174
19.433
19.9478
20.4676
20.9926
21.5071
21.9456
11.2833
33.2056
46.7555
58.2705
65.8285
76.3646
89.8329
112.188
149.092
203.217
283.109
424.323
338.339
180.674
93.3036
52.9003
41.7693
45.6832
50.2081
47.0098
41.055
34.5224
28.3043
22.7286
17.905
13.867
10.6069
8.07889
6.21427
4.93346
4.15123
3.77128
3.69736
3.84807
4.16359
4.60208
5.13319
5.73362
6.38445
7.07005
7.77753
8.49632
9.21772
9.93478
10.6418
11.3341
12.0082
12.6614
13.2921
13.9
14.4861
15.0531
15.6048
16.1462
16.683
17.2211
17.7648
18.3125
18.845
19.2917
10.7367
34.9302
51.5114
61.8666
72.7184
86.9115
102.16
125.551
164.24
227.078
334.374
520.416
266.132
133.929
68.616
43.0412
39.9228
47.6993
48.9525
44.1933
37.5038
30.6348
24.3202
18.8196
14.1912
10.4203
7.46036
5.239
3.67596
2.66763
2.10844
1.88218
1.88683
2.05272
2.33915
2.72039
3.17899
3.70094
4.27324
4.88418
5.52297
6.17998
6.8467
7.51578
8.18112
8.83781
9.48207
10.1113
10.7244
11.3213
11.9031
12.4719
13.0311
13.5845
14.1365
14.6915
15.252
15.8145
16.3566
16.8036
12.7532
37.862
54.6281
66.78
79.0392
97.7595
116.608
143.671
190.323
272.278
422.916
397.127
197.937
96.6062
51.3364
37.4065
40.1004
48.5103
46.8505
40.8462
33.6595
26.661
20.4133
15.1054
10.7549
7.3138
4.73469
2.90443
1.71147
1.03689
0.733103
0.653211
0.704294
0.846474
1.06551
1.35584
1.71226
2.1299
2.59919
3.11256
3.66074
4.23506
4.82763
5.43098
6.03886
6.64607
7.24878
7.8443
8.43129
9.00965
9.58006
10.1441
10.704
11.2623
11.822
12.3858
12.9543
13.5219
14.0633
14.5021
16.6064
44.5643
61.8504
74.4614
85.4902
101.293
125.854
158.297
209.536
295.511
441.917
269.621
133.906
67.2524
39.7339
34.6136
41.7988
47.6316
43.9282
37.0643
29.6304
22.6857
16.6462
11.6342
7.64686
4.65848
2.54296
1.18234
0.455831
0.176585
0.10624
0.106471
0.142649
0.215226
0.332682
0.503244
0.731733
1.01918
1.36272
1.7572
2.19634
2.67052
3.17313
3.69627
4.23373
4.78007
5.33109
5.88388
6.43668
6.98886
7.54046
8.09213
8.64487
9.19993
9.75858
10.3217
10.8879
11.4494
11.9786
12.3997
19.5846
53.1233
73.753
81.1247
87.1029
99.5893
122.467
154.145
201.043
275.946
301.073
166.344
87.2442
47.0817
32.6533
33.925
44.1759
45.6717
40.3772
33.0017
25.5388
18.8011
13.083
8.46379
4.98871
2.53124
0.974815
0.217485
0.0272558
0.00949374
0.00848289
0.0100987
0.0149801
0.0270762
0.0545017
0.109604
0.205885
0.353618
0.557594
0.817588
1.12992
1.48852
1.88689
2.31789
2.77434
3.25043
3.74117
4.24327
4.75425
5.27262
5.79753
6.32855
6.86536
7.40779
7.95547
8.50728
9.05981
9.60274
10.1076
10.5018
21.6209
58.7488
74.0739
79.2034
86.1784
99.0086
119.055
143.765
176.792
245.319
183.817
105.044
57.4718
34.3104
28.9033
35.0149
44.618
42.8093
36.4131
28.809
21.5005
15.0911
9.78162
5.72386
2.83796
1.00848
0.15826
0.00948956
0.00563268
0.00538899
0.00530712
0.00531347
0.00550369
0.00618855
0.00830028
0.0145111
0.0313283
0.0705721
0.14682
0.271801
0.451046
0.68428
0.967546
1.29495
1.65996
2.05662
2.47927
2.92356
3.38545
3.86228
4.35224
4.8536
5.36484
5.88436
6.41022
6.9394
7.46617
7.97804
8.44621
8.80437
19.7316
55.7407
68.5947
75.5968
84.6259
99.1315
118.908
136.887
161.176
182.85
115.652
67.5181
38.5635
26.6971
27.6939
37.6898
43.2207
39.2624
32.2085
24.623
17.6141
11.6222
6.88056
3.46271
1.25365
0.191612
0.00828763
0.00549846
0.00534606
0.00524319
0.00515365
0.00508015
0.00502909
0.00501451
0.00508929
0.00543312
0.00662559
0.010511
0.0222188
0.0524963
0.11641
0.22727
0.391732
0.609691
0.87679
1.18692
1.53382
1.91197
2.31674
2.74395
3.19084
3.65335
4.12902
4.61503
5.10786
5.60282
6.09207
6.56076
6.98018
7.29295
16.3654
50.1498
63.11
71.4081
81.8986
97.3211
116.28
129.542
151.771
119.608
74.6216
43.5784
26.7513
22.8656
28.5649
39.9681
40.836
35.3156
27.9413
20.5544
13.9551
8.48861
4.43515
1.72722
0.317141
0.0109434
0.00541811
0.00530534
0.00523378
0.00516719
0.00510384
0.00504496
0.00499036
0.00494181
0.00490508
0.0048913
0.00493552
0.00516459
0.00601654
0.00900297
0.0187902
0.0462894
0.108135
0.219191
0.385626
0.60535
0.872301
1.17965
1.52119
1.89156
2.28614
2.7008
3.13125
3.57375
4.02294
4.47265
4.91303
5.32705
5.68536
5.93987
13.1941
43.8824
57.2958
66.7695
77.8616
92.9335
110.211
121.738
122.705
79.8746
48.2712
28.2841
20.1338
21.9272
31.1942
39.8451
37.497
31.1158
23.7207
16.6805
10.571
5.79739
2.48135
0.583113
0.0248143
0.00528
0.00515357
0.00512173
0.0050885
0.00505602
0.00502372
0.00499207
0.00496135
0.0049313
0.00490097
0.00487128
0.00484715
0.00483995
0.00488398
0.00509949
0.00593347
0.00909199
0.0203172
0.0535389
0.128436
0.258097
0.443193
0.677379
0.952905
1.2627
1.6006
1.9611
2.33889
2.72867
3.12434
3.51819
3.89854
4.24594
4.52817
4.69862
10.8276
37.618
51.2172
61.8306
73.435
88.0501
102.862
112.525
84.48
52.7977
30.7699
19.1243
17.3745
23.1299
34.8115
38.1766
33.7322
26.8378
19.633
13.0559
7.56571
3.57175
1.06879
0.0818303
0.00528012
0.0049315
0.00491739
0.00491226
0.00490802
0.00490455
0.00490183
0.00489896
0.00489499
0.004889
0.00488033
0.00486924
0.00485544
0.00484077
0.00483207
0.00484349
0.0049205
0.00523711
0.0065174
0.0117718
0.0310295
0.084419
0.190046
0.350868
0.559937
0.808424
1.0883
1.39239
1.71394
2.04624
2.38176
2.71116
3.02073
3.28803
3.47333
3.50273
8.68621
32.1245
45.3753
57.1434
70.1259
84.9158
97.9575
88.3468
57.3292
33.9735
19.54
14.5608
17.271
25.8743
36.4763
35.342
29.6319
22.6112
15.7572
9.72243
5.01238
1.84613
0.26327
0.0067243
0.00475289
0.00471902
0.00471105
0.00471124
0.00471918
0.00473167
0.00474729
0.00476469
0.00478295
0.00480098
0.0048171
0.00483
0.00483823
0.00484211
0.00484363
0.00484688
0.00486254
0.00491573
0.00509763
0.00581203
0.0089149
0.0218004
0.063077
0.153161
0.296239
0.484332
0.707305
0.955819
1.22122
1.49492
1.76755
2.02763
2.25901
2.43533
2.50769
2.36943
7.89697
27.5128
40.1708
52.9244
68.0025
83.76
90.1497
63.0758
37.9577
21.0956
13.2049
13.2072
18.9075
29.7454
35.2125
31.8067
25.4526
18.5533
12.162
6.78883
2.93623
0.676881
0.022611
0.00468053
0.0045901
0.00456406
0.00454892
0.00454548
0.00455108
0.00456539
0.00458574
0.00461082
0.00463999
0.00467241
0.0047065
0.00474068
0.00477253
0.00480044
0.00482436
0.00484549
0.00486747
0.00489872
0.00495976
0.00511174
0.00562653
0.00782952
0.0174919
0.0511571
0.129531
0.257142
0.424655
0.620185
0.832493
1.05056
1.26261
1.45462
1.60756
1.69188
1.65538
1.39187
7.77759
25.3053
36.8207
50.1627
66.662
83.0807
70.8488
43.0261
23.55
13.0116
10.5714
13.8884
21.7554
32.4614
33.0228
27.9709
21.3167
14.7247
8.88563
4.33338
1.3804
0.11757
0.00489357
0.0044918
0.00446614
0.00444423
0.00442782
0.00441828
0.00441774
0.00442583
0.00444181
0.00446452
0.00449328
0.00452768
0.00456729
0.00461144
0.00465826
0.00470589
0.00475256
0.00479666
0.00483926
0.00488439
0.00493827
0.00501753
0.00517277
0.00560132
0.00729285
0.0147555
0.0419832
0.108489
0.218971
0.362877
0.526099
0.694636
0.853999
0.987587
1.0741
1.08314
0.968474
0.662109
7.15118
24.0198
35.2122
50.4847
67.7075
76.602
48.6369
26.455
13.5483
9.02998
10.3826
15.8757
25.6731
32.4798
29.6661
23.8193
17.2881
11.1769
6.01845
2.38209
0.411941
0.00866815
0.00440915
0.00437053
0.00435231
0.00433881
0.00432912
0.00432237
0.00431901
0.00432097
0.00432941
0.00434462
0.00436652
0.0043949
0.00442974
0.00447119
0.00451909
0.00457299
0.00463154
0.00469305
0.00475639
0.00482117
0.00488994
0.00496991
0.00507403
0.00524187
0.00561749
0.00689543
0.0122963
0.0324478
0.0841823
0.172812
0.28751
0.41197
0.529092
0.620596
0.665205
0.636461
0.502747
0.247939
7.94711
23.2389
35.1244
54.3131
73.0418
54.8342
29.1051
14.2074
8.1424
8.04023
11.6508
18.8433
29.6187
30.3424
25.7845
19.6675
13.4892
7.96249
3.65742
0.986151
0.0472532
0.00444905
0.00430695
0.00428104
0.00426063
0.00424765
0.0042414
0.00423907
0.00423918
0.0042416
0.00424702
0.00425643
0.00427077
0.0042906
0.00431633
0.0043485
0.00438775
0.00443477
0.00449021
0.00455395
0.00462506
0.00470286
0.00478744
0.00487953
0.00498455
0.00511459
0.00529702
0.00562841
0.00652301
0.00987017
0.0222161
0.0557063
0.116281
0.194981
0.274924
0.337437
0.363616
0.335377
0.240981
0.0959219
9.44011
24.7153
38.3178
63.7979
58.9263
30.2791
14.1517
7.38352
6.44318
8.78299
13.8752
22.7786
29.5241
27.1458
21.7492
15.6974
9.99351
5.16404
1.83482
0.219654
0.00524796
0.00425855
0.00423369
0.00421252
0.00419265
0.00417805
0.00416962
0.00416651
0.00416775
0.00417236
0.0041796
0.0041891
0.00420096
0.0042157
0.00423417
0.00425719
0.0042856
0.00432056
0.00436347
0.0044157
0.00447867
0.00455327
0.0046393
0.00473727
0.00484823
0.00497453
0.00512602
0.00532084
0.00561423
0.00619743
0.00787172
0.0133862
0.0286458
0.0579911
0.0963333
0.130276
0.144455
0.12727
0.0789858
0.0252489
11.8699
29.6472
49.8618
56.4074
27.222
12.3274
6.30147
5.23755
6.84927
10.5117
16.9138
26.7414
27.492
23.4082
17.714
11.9592
6.83524
2.90639
0.621549
0.0161807
0.00423629
0.00417862
0.0041618
0.00414705
0.00413422
0.0041243
0.0041171
0.00411263
0.00411169
0.00411481
0.0041216
0.00413148
0.00414388
0.0041584
0.00417498
0.00419378
0.00421536
0.00424068
0.00427108
0.00430833
0.00435463
0.00441224
0.00448347
0.00457026
0.00467337
0.00479402
0.00493393
0.00509822
0.00529824
0.00556136
0.00595307
0.00669071
0.00838668
0.0122872
0.0192651
0.0271681
0.0306204
0.0255405
0.0148667
0.00723274
25.5138
53.6593
39.3169
18.7858
8.65528
4.88831
4.31318
5.50939
8.29276
12.9923
20.8798
26.4843
24.3471
19.4426
13.8043
8.51952
4.13144
1.25356
0.087577
0.00441115
0.00414274
0.00411953
0.00410196
0.00408768
0.00407816
0.00407311
0.00407081
0.00406995
0.00407031
0.00407252
0.00407728
0.00408497
0.0040957
0.00410929
0.00412551
0.00414394
0.00416425
0.00418642
0.00421082
0.00423834
0.00427059
0.00431013
0.00435992
0.00442296
0.00450258
0.00460133
0.00472046
0.00486148
0.005026
0.00521969
0.00545353
0.00574844
0.00613711
0.00668845
0.007434
0.00824152
0.0086903
0.00836628
0.00733941
0.00589645
10.7553
16.2741
8.23054
4.88099
3.75558
3.74202
4.6463
6.74137
10.4791
16.2466
24.1364
24.4921
20.7601
15.4769
10.1354
5.47747
2.06815
0.30846
0.00642237
0.00412774
0.00409186
0.00407317
0.00405796
0.00404508
0.00403567
0.00403043
0.00402901
0.00403051
0.00403398
0.00403872
0.00404439
0.00405125
0.00405979
0.00407057
0.00408397
0.0041002
0.00411923
0.00414083
0.00416455
0.00419002
0.00421736
0.00424732
0.00428167
0.00432336
0.00437591
0.00444307
0.00452866
0.00463486
0.004763
0.00491296
0.00508581
0.00528303
0.00551324
0.00577648
0.00606901
0.00636776
0.0065995
0.00663589
0.00630138
0.00546048
0.00448919
0.00538525
0.00647063
0.00788205
0.00979058
0.0124243
0.0160763
0.0211487
0.0281625
0.0377679
0.0508201
0.0685639
0.0930283
0.127915
0.180661
0.266911
0.418694
0.694463
1.17997
2.09473
0.00443835
0.00521695
0.00616364
0.00741313
0.009136
0.0115672
0.0150211
0.0199467
0.0269563
0.0368573
0.0507493
0.0702423
0.0979286
0.138485
0.201377
0.307328
0.501675
0.870555
1.52344
2.76529
0.00438802
0.00504746
0.00585282
0.00693154
0.00844579
0.010625
0.0137865
0.0183989
0.0251302
0.0349037
0.0490222
0.0694126
0.0991329
0.143534
0.213098
0.330158
0.54163
0.927619
1.56873
2.34434
0.00434001
0.00488342
0.00555108
0.00645926
0.00775589
0.00965402
0.0124552
0.0166168
0.0228124
0.0320094
0.0456166
0.065745
0.0956985
0.141021
0.21192
0.32868
0.530847
0.880313
1.42137
2.06628
0.00429578
0.00473044
0.00526943
0.00601557
0.00709881
0.00870819
0.011115
0.0147377
0.020205
0.0284441
0.040838
0.0594875
0.0876516
0.130585
0.197295
0.30417
0.480531
0.769009
1.19917
1.7452
0.00425639
0.00459265
0.00501587
0.0056147
0.00649984
0.00783255
0.00984541
0.0128993
0.0175413
0.0245865
0.0352668
0.0514694
0.0761119
0.113764
0.171778
0.262356
0.405394
0.628303
0.953427
1.37252
0.00422252
0.00447265
0.00479512
0.00526504
0.00597479
0.00705786
0.00870581
0.0112149
0.0150329
0.0208245
0.0295904
0.0428586
0.0629765
0.093551
0.140123
0.2112
0.319495
0.481702
0.712821
1.01288
0.00419447
0.00437161
0.00460898
0.00496962
0.00553023
0.00639946
0.00773056
0.00975765
0.01283
0.0174587
0.0243978
0.0347723
0.0502728
0.0734381
0.108035
0.159531
0.235533
0.345548
0.49855
0.697362
0.00417231
0.00428951
0.00445653
0.00472674
0.00516483
0.0058589
0.00692994
0.00855833
0.0110075
0.0146551
0.0200431
0.0279473
0.0394791
0.0562269
0.0804312
0.115161
0.164431
0.233037
0.325613
0.444457
0.00415597
0.00422533
0.0043343
0.0045304
0.00487119
0.00542888
0.00629821
0.00761628
0.00957778
0.0124565
0.0166354
0.0226413
0.0311837
0.0431952
0.0598519
0.0825543
0.112922
0.152786
0.203919
0.267253
0.00414545
0.00417662
0.00423658
0.00437316
0.00463872
0.0050924
0.0058111
0.00690064
0.00850191
0.0108068
0.0140795
0.0186761
0.0250598
0.0338005
0.0455004
0.0606184
0.0794282
0.102277
0.129901
0.162979
0.00414487
0.00413982
0.00415734
0.00424848
0.00445702
0.00482363
0.00539834
0.00624191
0.0074269
0.00905258
0.0112645
0.0142788
0.0184259
0.0242666
0.0328007
0.0458738
0.0685713
0.108375
0.17495
0.281886
0.0074211
0.00440128
0.00473964
0.00539583
0.00671416
0.00924211
0.0138001
0.0214177
0.0331228
0.0499014
0.0740857
0.107623
0.151257
0.206741
0.283419
0.391672
0.534081
0.704753
0.888173
1.14498
0.258277
0.130267
0.166938
0.194861
0.222636
0.253404
0.288163
0.328416
0.375683
0.431804
0.497712
0.570292
0.633562
0.716464
0.915401
1.18105
1.49391
1.79601
1.99319
2.5572
0.0872662
0.150296
0.216218
0.285394
0.363558
0.447022
0.533941
0.622712
0.714915
0.812196
0.908828
0.977227
0.996629
1.09659
1.18531
1.26519
1.36727
1.46403
1.57819
1.87416
0.0343302
0.046529
0.0549456
0.0789687
0.111904
0.151659
0.19713
0.246651
0.298714
0.351856
0.403962
0.453909
0.515316
0.623973
0.695644
0.712861
0.696382
0.662583
0.646481
0.697424
0.0183521
0.0189938
0.0181029
0.0263616
0.0386904
0.0539225
0.0715383
0.0909409
0.111438
0.132346
0.153352
0.175885
0.206044
0.248767
0.28317
0.293276
0.279535
0.250342
0.21912
0.197171
0.0114784
0.00915089
0.006697
0.00894844
0.0128672
0.0182558
0.0247769
0.0320356
0.0396371
0.04726
0.0548012
0.0626475
0.0717851
0.0822
0.0898206
0.0900599
0.0819129
0.0679169
0.0523351
0.0384993
0.00847776
0.00710343
0.00441623
0.00463562
0.00528988
0.00643217
0.00802406
0.00995039
0.01205
0.0141586
0.0161515
0.0179733
0.0195906
0.0207708
0.0209029
0.019462
0.0166158
0.01321
0.0102003
0.00808053
0.00721809
0.00700154
0.00419816
0.00401711
0.00402588
0.00416011
0.00438532
0.00467702
0.00500762
0.00534339
0.00565015
0.00589993
0.00607083
0.00613933
0.00608395
0.00591645
0.00569619
0.00549535
0.00535569
0.00527871
0.00706699
0.00701911
0.00426134
0.00398179
0.00390936
0.003913
0.00394646
0.00399465
0.00405227
0.00411609
0.00418402
0.00425581
0.00433307
0.00441729
0.00450719
0.00459818
0.00468425
0.00476004
0.00482229
0.00486938
0.00806737
0.00661284
0.00432059
0.0040268
0.00395322
0.00394367
0.00395312
0.00397067
0.00399446
0.00402478
0.00406272
0.00410982
0.00416755
0.00423611
0.00431309
0.00439326
0.00447004
0.00453767
0.00459267
0.00463385
0.0110858
0.00593664
0.00431464
0.00407507
0.00401959
0.00401018
0.00401363
0.00402281
0.00403653
0.00405504
0.00407902
0.00410924
0.00414623
0.00418974
0.00423817
0.00428852
0.0043371
0.00438054
0.00441653
0.00444394
0.00925714
0.00502151
0.00423834
0.00411201
0.00408387
0.00407788
0.00407858
0.00408253
0.00408899
0.00409792
0.00410951
0.004124
0.00414152
0.00416185
0.00418429
0.00420759
0.00423022
0.00425072
0.00426797
0.00428132
1.17835
1.96695
2.47016
2.98166
3.47885
3.84013
4.04931
4.12624
4.09497
4.01942
3.94907
3.85852
3.76932
3.70871
3.71966
2.54138
5.92794
7.84721
9.01283