/*--------------------------------*- C++ -*----------------------------------*\
| =========                 |                                                 |
| \\      /  F ield         | OpenFOAM: The Open Source CFD Toolbox           |
|  \\    /   O peration     | Version:  v1912                                 |
|   \\  /    A nd           | Website:  www.openfoam.com                      |
|    \\/     M anipulation  |                                                 |
\*---------------------------------------------------------------------------*/
FoamFile
{
    version     2.0;
    format      ascii;
    class       volScalarField;
    location    "34";
    object      nut;
}
// * * * * * * * * * * * * * * * * * * * * * * * * * * * * * * * * * * * * * //

dimensions      [0 2 -1 0 0 0 0];


internalField   nonuniform List<scalar> 
20320
(
0.0347184
0.00759846
0.00766686
0.00773333
0.00779744
0.0078588
0.0079169
0.00797111
0.00802063
0.00806465
0.00810228
0.00813248
0.008154
0.00816544
0.00816509
0.0081506
0.00811756
0.00805564
0.00794352
0.00789927
0.0352306
0.035273
0.0354456
0.0356792
0.0359564
0.0362434
0.036501
0.0367077
0.0368636
0.0369764
0.0370574
0.037119
0.0371659
0.0371897
0.0371635
0.0370364
0.036685
0.0357966
0.0333387
0.0233431
0.0353538
0.0356365
0.0361366
0.036882
0.0379729
0.03951
0.0415811
0.0442323
0.0474366
0.0510702
0.0549006
0.0586069
0.0618342
0.0642505
0.0655805
0.0656113
0.0641493
0.06081
0.0539676
0.0341766
0.0355262
0.0361106
0.0369212
0.0379603
0.0393293
0.0411424
0.0435288
0.0466317
0.0505905
0.0554991
0.0613351
0.0678717
0.0746119
0.0808051
0.0855596
0.0880078
0.0874238
0.083036
0.0724897
0.0431268
0.0357339
0.0367039
0.0379022
0.0393034
0.0410013
0.0431039
0.0457397
0.0490642
0.0532594
0.0585236
0.0650302
0.0728271
0.0816665
0.0908272
0.0990605
0.104767
0.106331
0.102122
0.0887191
0.0503339
0.0359678
0.0373957
0.0390505
0.0408815
0.042972
0.0454208
0.0483494
0.0519109
0.0562936
0.0617257
0.0684677
0.0767552
0.086635
0.0976753
0.108659
0.117527
0.121726
0.118451
0.102844
0.0561475
0.0362172
0.0381548
0.0403148
0.0426261
0.0451602
0.0480053
0.0512734
0.055112
0.059707
0.0652934
0.0721655
0.0806589
0.0910345
0.103182
0.116138
0.127698
0.134545
0.132582
0.115243
0.0609473
0.036471
0.0389476
0.0416417
0.0444676
0.0474851
0.0507706
0.054425
0.0585875
0.0634384
0.0692106
0.0762113
0.0848273
0.0954573
0.108258
0.122586
0.136317
0.145591
0.145067
0.126319
0.0650333
0.0367176
0.0397389
0.0429744
0.0463315
0.0498594
0.0536234
0.0577114
0.0622523
0.0674165
0.0734296
0.0806012
0.0893448
0.100146
0.113362
0.128664
0.14412
0.155536
0.156439
0.136494
0.0686925
0.0369456
0.040493
0.0442545
0.0481403
0.0521926
0.0564663
0.0610359
0.0660171
0.071567
0.077898
0.0853142
0.0942416
0.10522
0.118758
0.134797
0.151655
0.164941
0.167185
0.146145
0.0722167
0.0371443
0.0411749
0.0454248
0.0498177
0.0543932
0.0591993
0.0642975
0.0697889
0.0758127
0.0825621
0.0903277
0.0995371
0.110764
0.124627
0.141301
0.159362
0.174326
0.177832
0.155739
0.0757692
0.0373045
0.0417531
0.0464325
0.0512909
0.0563722
0.0617225
0.0673929
0.0734696
0.0800706
0.087364
0.0956181
0.105252
0.116857
0.131135
0.148456
0.167647
0.184194
0.188927
0.165785
0.0795822
0.0374189
0.0422013
0.0472324
0.0524959
0.0580477
0.0639399
0.0702179
0.0769556
0.0842496
0.0922373
0.101157
0.111407
0.123586
0.138456
0.156555
0.176949
0.195125
0.201135
0.176904
0.0839934
0.037483
0.0425
0.0477895
0.0533801
0.0593484
0.0657614
0.0726678
0.0801356
0.0882436
0.0970969
0.106897
0.118013
0.13104
0.146784
0.165933
0.187784
0.207836
0.215334
0.189975
0.0894521
0.0374949
0.0426378
0.0480815
0.0539061
0.0602173
0.0671077
0.0746405
0.0828899
0.0919263
0.101828
0.112757
0.125051
0.13929
0.156323
0.176981
0.200801
0.223306
0.232829
0.20638
0.0966773
0.0374554
0.0426122
0.0481003
0.0540546
0.0606165
0.0679149
0.0760414
0.0850925
0.095148
0.106273
0.118601
0.132438
0.148356
0.167252
0.190125
0.216802
0.242871
0.255569
0.22836
0.106993
0.0373685
0.0424296
0.0478521
0.0538256
0.0605308
0.0681408
0.0767899
0.0866171
0.0977366
0.110227
0.124213
0.139989
0.158139
0.179644
0.20574
0.236689
0.26832
0.286585
0.259871
0.123144
0.0372405
0.0421048
0.0473577
0.0532393
0.0599697
0.0677704
0.0768293
0.0873482
0.0995057
0.11343
0.129277
0.147366
0.168338
0.193326
0.223953
0.261228
0.301745
0.330353
0.308052
0.150928
0.0370797
0.0416598
0.0466506
0.0523351
0.0589692
0.0668214
0.0761384
0.0871993
0.100277
0.115592
0.133383
0.15405
0.178355
0.207693
0.244293
0.290446
0.344618
0.391897
0.384041
0.203963
0.0368957
0.0411222
0.0457745
0.0511685
0.0575895
0.0653464
0.0747407
0.0861337
0.0999115
0.116429
0.136059
0.159347
0.187252
0.221536
0.265255
0.3226
0.395453
0.471748
0.494645
0.299155
0.0408303
0.0279209
0.0304726
0.0313549
0.0313957
0.0308058
0.0299223
0.0292323
0.0315764
0.0496887
0.0744839
0.100203
0.115858
0.139138
0.163775
0.187052
0.214503
0.236321
0.24103
0.294135
0.333589
0.358331
0.388661
0.398904
0.309879
0.257099
0.222894
0.198655
0.181134
0.166867
0.153055
0.141107
0.131684
0.124199
0.117891
0.11235
0.107383
0.102895
0.0987849
0.0949761
0.0914097
0.0879762
0.0846771
0.081596
0.0787863
0.0762632
0.0737901
0.071373
0.0692562
0.0675699
0.0663004
0.0654076
0.0648386
0.0645381
0.0644493
0.0645034
0.0646504
0.0648501
0.0650683
0.0652755
0.0506179
0.455415
0.593638
0.632363
0.632813
0.616117
0.596815
0.609172
0.752715
1.06393
1.24218
1.45142
1.67324
1.84847
2.01069
2.58824
3.12516
3.56245
3.48777
2.25238
3.379
4.20809
4.31989
3.50765
3.05432
2.74831
2.47226
2.23873
2.04454
1.87478
1.7158
1.57553
1.48006
1.41082
1.3528
1.30064
1.25262
1.20758
1.1643
1.12182
1.07893
1.03435
0.989594
0.948571
0.913131
0.880795
0.848251
0.816854
0.795356
0.786576
0.787882
0.798061
0.816374
0.841085
0.869537
0.899339
0.928835
0.956949
0.98293
1.00638
0.0566708
0.649911
0.951879
1.07748
1.11453
1.10455
1.07161
1.06145
1.24006
1.7254
2.21193
2.5713
2.95478
3.3442
3.54972
4.00684
4.75163
5.32381
5.50997
4.8961
5.16206
6.05359
5.7386
4.84597
4.40766
4.07855
3.75621
3.45531
3.18767
2.9504
2.73636
2.54896
2.40216
2.28953
2.19829
2.11994
2.04959
1.98405
1.92096
1.85854
1.79556
1.73153
1.66836
1.60996
1.5587
1.51378
1.47405
1.44243
1.4255
1.42639
1.444
1.47688
1.52361
1.58095
1.64405
1.70862
1.77176
1.83165
1.88722
1.93763
0.0608443
0.761359
1.15799
1.34759
1.42039
1.41975
1.36895
1.35962
1.64903
2.26444
2.92877
3.46159
3.9238
4.39704
4.77718
5.17531
5.80705
6.35131
6.67589
6.65652
6.81739
6.95431
6.39598
5.73623
5.23043
4.84212
4.49754
4.17998
3.89207
3.6342
3.40341
3.20108
3.03289
2.89763
2.78698
2.69316
2.61035
2.53439
2.46231
2.39198
2.32222
2.25352
2.18771
2.1283
2.07815
2.03784
2.00776
1.99124
1.99301
2.01458
2.05397
2.1092
2.17898
2.25943
2.34458
2.42956
2.51136
2.58837
2.65974
2.72456
0.0653194
0.835154
1.30736
1.53819
1.63123
1.63052
1.57067
1.62478
2.05249
2.76301
3.51233
4.1442
4.65645
5.12671
5.54588
5.94124
6.42104
6.89179
7.29261
7.56501
7.88359
7.08907
6.51028
6.0051
5.56222
5.19444
4.87281
4.57827
4.30786
4.06223
3.84071
3.64492
3.47662
3.33686
3.22103
3.12343
3.03875
2.96284
2.89274
2.82594
2.76205
2.70217
2.64799
2.60228
2.56769
2.54546
2.53668
2.54411
2.57044
2.61488
2.67405
2.74571
2.82949
2.92181
3.01652
3.10925
3.19759
3.28043
3.35732
3.42735
0.0710625
0.91608
1.43955
1.69549
1.79718
1.79235
1.74802
1.90879
2.46188
3.24066
4.02759
4.68956
5.20196
5.6314
6.01906
6.39443
6.80334
7.25288
7.74246
8.27807
7.85258
6.99635
6.39701
5.93827
5.56024
5.24792
4.97898
4.73411
4.50694
4.29726
4.10603
3.93532
3.78628
3.65954
3.55367
3.46557
3.39095
3.32622
3.26849
3.2161
3.16913
3.12909
3.09734
3.0758
3.06607
3.06884
3.08534
3.11752
3.16605
3.22833
3.30065
3.38166
3.47194
3.56797
3.66412
3.75721
3.84556
3.92848
4.0059
4.07672
0.0767992
1.02088
1.57195
1.83993
1.94448
1.94021
1.93945
2.21838
2.87187
3.70044
4.50303
5.15557
5.62977
5.99762
6.34583
6.70705
7.10252
7.59822
8.20769
8.39107
7.50751
6.76853
6.18499
5.73607
5.3911
5.12643
4.9125
4.72374
4.54983
4.38964
4.24433
4.11511
4.00243
3.90498
3.82238
3.7552
3.70005
3.65438
3.61676
3.58614
3.56319
3.54931
3.5455
3.55301
3.57199
3.6009
3.64087
3.69379
3.75893
3.83281
3.91251
3.9991
4.09395
4.1908
4.28539
4.37637
4.46261
4.54391
4.62039
4.69059
0.0821131
1.12949
1.70685
1.98047
2.08712
2.09381
2.15723
2.54512
3.27438
4.13881
4.94749
5.57362
5.99304
6.30288
6.63092
7.01265
7.43568
7.98814
8.52846
7.77516
7.05638
6.40989
5.86829
5.44671
5.13912
4.9224
4.76034
4.62159
4.49822
4.39048
4.29717
4.21754
4.14997
4.09157
4.039
3.99376
3.95907
3.93463
3.91977
3.91349
3.91698
3.93147
3.95733
3.99559
4.04611
4.10663
4.17279
4.24506
4.32363
4.4057
4.48871
4.57362
4.66346
4.75787
4.85
4.93875
5.02302
5.10294
5.17881
5.24834
0.0874214
1.22845
1.84097
2.12149
2.23301
2.26247
2.39952
2.87833
3.66222
4.55087
5.36034
5.95618
6.32363
6.59884
6.94109
7.38138
7.87865
8.46321
7.89344
7.19099
6.52731
5.9389
5.45544
5.09564
4.85538
4.70125
4.58769
4.49048
4.40929
4.34486
4.2947
4.25657
4.2274
4.20318
4.18055
4.16473
4.15673
4.15477
4.16198
4.17898
4.20717
4.24745
4.29961
4.36373
4.43807
4.51713
4.59862
4.68458
4.77305
4.85984
4.94343
5.03065
5.12525
5.21772
5.3071
5.39363
5.47646
5.5557
5.63164
5.70062
0.0930483
1.32813
1.97353
2.26458
2.38583
2.44783
2.65831
3.20851
4.02885
4.93078
5.73703
6.30727
6.64676
6.93719
7.32988
7.83089
8.45348
8.14225
7.31676
6.58227
5.938
5.40244
4.99974
4.73947
4.59741
4.51142
4.43854
4.37549
4.32669
4.29379
4.27484
4.26694
4.26645
4.26968
4.27538
4.28934
4.30925
4.33182
4.36124
4.40015
4.45016
4.51174
4.58405
4.66577
4.75347
4.84148
4.92979
5.02174
5.11516
5.20583
5.29462
5.38975
5.48895
5.58192
5.66969
5.7543
5.83584
5.91468
5.99084
6.05916
0.0991759
1.43392
2.10816
2.41105
2.54662
2.64679
2.92389
3.52822
4.36986
5.27361
6.07239
6.62918
6.98732
7.37806
7.87747
8.3932
8.48376
7.55084
6.69635
5.94534
5.3278
4.86782
4.582
4.45394
4.41257
4.38064
4.34002
4.29813
4.26721
4.25279
4.25343
4.26549
4.28525
4.30994
4.33972
4.37878
4.42341
4.46971
4.52061
4.57927
4.64743
4.72521
4.81136
4.90366
4.99824
5.09101
5.18327
5.27833
5.37484
5.46993
5.56528
5.66617
5.76733
5.8608
5.94779
6.03098
6.11165
6.19045
6.26701
6.33494
0.106072
1.54204
2.24863
2.56243
2.71474
2.85363
3.18718
3.83191
4.6826
5.5768
6.36433
6.92846
7.3664
7.96065
8.65762
9.03776
7.98927
6.90642
6.0128
5.28389
4.7389
4.4067
4.28289
4.29233
4.31722
4.31927
4.29268
4.25564
4.22767
4.21829
4.22729
4.25041
4.28365
4.32464
4.37362
4.43251
4.49755
4.56452
4.63444
4.70982
4.79221
4.88161
4.97668
5.07502
5.1733
5.26919
5.36453
5.46215
5.56156
5.66123
5.76236
5.8663
5.96776
6.06121
6.14781
6.23058
6.31125
6.39063
6.46794
6.53582
0.113348
1.6543
2.39566
2.71915
2.88809
3.0624
3.44115
4.1158
4.96756
5.84167
6.61623
7.221
7.80879
8.6802
9.65009
9.02467
7.43389
6.23206
5.31646
4.64379
4.23437
4.09507
4.15041
4.24356
4.29994
4.30715
4.27467
4.22769
4.19017
4.17472
4.18264
4.20972
4.25136
4.3046
4.36857
4.44299
4.52409
4.60765
4.69316
4.78201
4.87535
4.97316
5.07423
5.17645
5.27743
5.37623
5.47481
5.57548
5.67827
5.78237
5.88785
5.99352
6.09472
6.18823
6.27542
6.35896
6.44068
6.52139
6.59991
6.66804
0.121041
1.77473
2.55049
2.8805
3.06316
3.26837
3.68168
4.37818
5.22758
6.07481
6.83369
7.51737
8.3387
9.55779
10.5141
8.51977
6.78091
5.52822
4.63482
4.0858
3.89791
3.98904
4.15915
4.28124
4.32637
4.30939
4.25358
4.18607
4.131
4.1023
4.10281
4.12883
4.17509
4.23732
4.31278
4.39925
4.49274
4.58919
4.68712
4.78694
4.88928
4.994
5.1001
5.20597
5.31015
5.41267
5.51541
5.62019
5.72715
5.83552
5.94427
6.05117
6.1527
6.24722
6.33607
6.42155
6.5054
6.58828
6.6686
6.7373
0.130132
1.90442
2.71209
3.0465
3.23679
3.46609
3.90603
4.62141
5.47079
6.28858
7.01723
7.78257
8.90705
10.516
10.162
7.75919
6.02859
4.78961
4.00171
3.69434
3.80031
4.05983
4.24978
4.34393
4.34757
4.2895
4.20005
4.10602
4.02947
3.98402
3.97361
3.99527
4.04315
4.11142
4.1954
4.29117
4.39445
4.50132
4.60977
4.71937
4.83015
4.94182
5.05351
5.16412
5.27302
5.3808
5.48912
5.59925
5.71116
5.8238
5.93551
6.04396
6.14681
6.24339
6.33499
6.42354
6.51056
6.59649
6.6793
6.74901
0.139843
2.04268
2.88018
3.21696
3.4095
3.65077
4.10834
4.84826
5.71398
6.51017
7.17293
7.96565
9.37433
10.7739
9.17203
6.86851
5.17979
4.04185
3.50562
3.56439
3.9198
4.20255
4.34426
4.37662
4.32504
4.22085
4.09476
3.97209
3.87256
3.80892
3.78578
3.8008
3.84775
3.91943
4.00951
4.11277
4.22453
4.34084
4.45925
4.57863
4.69842
4.81805
4.93677
5.05396
5.16956
5.28441
5.39975
5.51633
5.63379
5.75085
5.86575
5.97658
6.0819
6.18167
6.27708
6.36977
6.46099
6.55095
6.63703
6.70826
0.15047
2.19213
3.05905
3.39324
3.57904
3.82203
4.28284
5.05365
5.97772
6.79641
7.34613
8.04026
9.17019
10.0597
7.83629
5.75909
4.25465
3.39066
3.27603
3.6968
4.11951
4.32602
4.3885
4.34992
4.24096
4.09146
3.92944
3.77798
3.65493
3.57234
3.53527
3.54194
3.58589
3.659
3.75371
3.86371
3.98376
4.10962
4.23836
4.36819
4.49799
4.62697
4.75448
4.88022
5.00444
5.12788
5.25139
5.37519
5.49866
5.62052
5.73925
5.85348
5.96251
6.06663
6.16696
6.26486
6.36136
6.45634
6.54656
6.61984
0.162493
2.35502
3.25081
3.57526
3.74343
3.97311
4.42314
5.21958
6.26346
7.06778
7.31385
7.75132
8.54115
8.55079
6.34289
4.61328
3.43219
3.00353
3.35581
3.94924
4.28064
4.38684
4.36435
4.25669
4.09322
3.90079
3.70411
3.52392
3.37676
3.27438
3.22235
3.21947
3.25925
3.33292
3.43187
3.54876
3.67757
3.81356
3.95321
4.09421
4.23501
4.3746
4.51241
4.6483
4.78254
4.91566
5.04803
5.17953
5.30946
5.43671
5.56016
5.67901
5.79302
5.9027
6.00909
6.11334
6.21625
6.31732
6.41249
6.48825
0.17337
2.51646
3.45317
3.76756
3.90758
4.09596
4.51203
5.29419
6.43626
6.99655
7.17234
7.51381
8.24023
6.98622
5.12702
3.69733
2.88728
2.94877
3.61869
4.1707
4.36974
4.37687
4.27411
4.10201
3.8874
3.65391
3.42311
3.21371
3.04142
2.9182
2.85049
2.83772
2.87341
2.948
3.05174
3.17612
3.31424
3.46072
3.61161
3.76414
3.91649
4.06754
4.21666
4.36368
4.50873
4.65203
4.7936
4.93317
5.07007
5.20351
5.33279
5.45754
5.57787
5.69441
5.8081
5.91993
6.03041
6.13855
6.23933
6.31786
0.179896
2.66898
3.66591
3.98445
4.08823
4.19687
4.52459
5.23159
6.27077
6.88569
7.08968
7.36405
7.79232
5.92851
4.22468
3.0434
2.63989
3.13728
3.90847
4.30675
4.38661
4.30258
4.12619
3.89418
3.63102
3.35748
3.0923
2.85263
2.65393
2.50906
2.42571
2.404
2.437
2.51386
2.62332
2.75566
2.90316
3.05999
3.22187
3.3858
3.54978
3.71251
3.87328
4.03176
4.18782
4.34141
4.49237
4.64035
4.78489
4.92548
5.06183
5.19389
5.32198
5.44677
5.56911
5.68977
5.80891
5.92492
6.03169
6.11299
0.186121
2.81046
3.89293
4.25236
4.307
4.31515
4.4751
4.98752
5.86341
6.6294
6.8835
7.01172
6.76839
4.90875
3.44921
2.59331
2.64501
3.42948
4.12913
4.36392
4.33711
4.17165
3.92838
3.64065
3.331
3.01773
2.71747
2.44633
2.22031
2.05386
1.95631
1.92815
1.96098
2.04179
2.15759
2.29768
2.4539
2.62023
2.7923
2.96696
3.14207
3.31617
3.48834
3.65804
3.82491
3.9887
4.14917
4.30602
4.459
4.60791
4.75272
4.8936
5.03099
5.16551
5.29785
5.42851
5.55718
5.68152
5.79426
5.87805
0.188255
2.89539
4.12807
4.57249
4.55516
4.4877
4.48233
4.7107
5.27494
5.98103
6.44473
6.57699
5.52729
3.97462
2.8232
2.37024
2.84997
3.72048
4.25044
4.34799
4.22831
3.99077
3.68707
3.34759
2.99318
2.64034
2.30433
2.00114
1.74826
1.5623
1.45436
1.42391
1.45953
1.54537
1.66705
1.81357
1.97686
2.15107
2.33183
2.51594
2.70109
2.88564
3.06844
3.24872
3.42597
3.5998
3.76998
3.93633
4.09876
4.25729
4.41207
4.56338
4.71164
4.85735
5.00091
5.14244
5.28111
5.41372
5.53194
5.61763
0.184599
2.91301
4.32074
4.83745
4.86091
4.76527
4.66427
4.6823
4.93233
5.40684
5.9646
6.21023
4.59066
3.26357
2.43401
2.39943
3.1584
3.96253
4.28641
4.2671
4.06724
3.76597
3.40764
3.01996
2.62235
2.23019
1.85852
1.52434
1.24824
1.04931
0.939052
0.91276
0.953593
1.0434
1.16828
1.31789
1.48498
1.6641
1.85094
2.04225
2.23553
2.42893
2.62108
2.81101
2.99807
3.18186
3.36211
3.53874
3.71178
3.88137
4.04771
4.21103
4.37162
4.52971
4.68536
4.83819
4.9867
5.1269
5.24956
5.33627
0.202127
2.98502
4.44894
5.1076
5.24002
5.14979
5.03462
4.98415
5.10383
5.47849
6.19289
5.64111
3.97197
2.82381
2.30246
2.63499
3.45006
4.0942
4.24758
4.12939
3.86009
3.50249
3.09463
2.66189
2.22266
1.79199
1.38761
1.02891
0.740045
0.544958
0.450683
0.438771
0.484567
0.571768
0.690719
0.834697
0.997986
1.1759
1.36369
1.55811
1.75624
1.9559
2.1555
2.35381
2.55005
2.74368
2.93446
3.12228
3.30717
3.48926
3.66862
3.84533
4.01936
4.19057
4.35855
4.52234
4.67981
4.82619
4.9517
5.03827
0.231656
3.25838
4.67867
5.38987
5.60142
5.507
5.46709
5.49718
5.65881
6.0101
6.47688
4.9398
3.50655
2.59846
2.38842
2.93843
3.66114
4.1175
4.14269
3.9429
3.61338
3.20536
2.75205
2.27694
1.79845
1.33566
0.90769
0.541734
0.277201
0.142402
0.103689
0.110099
0.143979
0.204585
0.293556
0.410347
0.551916
0.713912
0.891596
1.08069
1.2777
1.47918
1.6832
1.88796
2.09236
2.29565
2.49735
2.69722
2.8951
3.09088
3.28438
3.4753
3.66322
3.84751
4.02721
4.20077
4.36538
4.51577
4.64201
4.72707
0.25264
3.58476
5.04164
5.67499
5.8791
5.8649
5.94769
6.14189
6.39921
6.65276
6.12616
4.44767
3.22082
2.52885
2.58795
3.16194
3.8033
4.06394
3.98465
3.7161
3.3334
2.87942
2.38374
1.86944
1.36026
0.876636
0.449901
0.144521
0.0312265
0.0224355
0.0235059
0.0236705
0.0275296
0.0404292
0.0698334
0.124455
0.210226
0.327555
0.472434
0.639152
0.822163
1.01671
1.2192
1.42683
1.63744
1.84959
2.0622
2.27459
2.48613
2.69623
2.90422
3.10932
3.31058
3.50682
3.69654
3.87762
4.0467
4.1982
4.32255
4.40447
0.267561
3.78664
5.23307
5.832
6.10528
6.23177
6.44603
6.73132
6.90069
6.95913
5.56283
4.07405
2.99361
2.51782
2.75235
3.28707
3.84126
3.94995
3.78447
3.45637
3.0257
2.52898
1.99357
1.44944
0.921613
0.444661
0.105381
0.0188698
0.0392641
0.0426278
0.0415251
0.0386416
0.0336033
0.0272836
0.0237016
0.0282173
0.0475263
0.0914771
0.168851
0.281937
0.426807
0.596914
0.785853
0.988308
1.20016
1.41839
1.64061
1.86504
2.08994
2.3139
2.53561
2.7536
2.96635
3.17217
3.36906
3.55439
3.72441
3.87343
3.99271
4.06939
0.25739
3.71133
5.24306
5.91701
6.26765
6.51185
6.80566
7.01581
6.9974
6.54087
4.95673
3.61554
2.70621
2.48493
2.81937
3.391
3.79776
3.78979
3.55097
3.16985
2.6949
2.15783
1.59065
1.02781
0.506261
0.117623
0.0184122
0.0436875
0.0454164
0.0451295
0.0447301
0.0442375
0.0434705
0.0419261
0.0385729
0.0324647
0.0259718
0.025812
0.0393911
0.077033
0.150212
0.263986
0.415122
0.596085
0.798902
1.01679
1.24443
1.47781
1.71373
1.94939
2.1826
2.41075
2.63184
2.84368
3.04381
3.22924
3.39595
3.53819
3.64818
3.71621
0.236
3.50775
5.14951
5.91108
6.31878
6.60999
6.86644
6.88426
6.68615
5.57069
4.16412
3.00176
2.36604
2.42232
2.8599
3.4763
3.70438
3.59477
3.29083
2.861
2.34461
1.77176
1.18379
0.62184
0.17063
0.0161023
0.0426341
0.0449775
0.0448307
0.0446385
0.0444474
0.0442622
0.0440697
0.0438372
0.043469
0.0426555
0.0405754
0.0358149
0.02889
0.0265024
0.0380898
0.0760987
0.155618
0.283719
0.455208
0.658746
0.883166
1.11971
1.36196
1.6051
1.84536
2.07953
2.30469
2.51815
2.71696
2.89774
3.05615
3.1862
3.28048
3.33255
0.213108
3.23636
4.95089
5.79137
6.21549
6.45678
6.5601
6.38548
5.82442
4.47767
3.23816
2.33943
2.08581
2.38923
2.95328
3.48934
3.56389
3.36953
3.00767
2.53275
1.97743
1.37935
0.785058
0.26861
0.0220282
0.0383033
0.0438289
0.0438923
0.0438606
0.0438267
0.0437899
0.0437525
0.0437152
0.0436752
0.0436211
0.0435329
0.0433534
0.042871
0.0414219
0.0375147
0.0308843
0.0287948
0.044202
0.0951441
0.200303
0.361563
0.564779
0.793267
1.03426
1.27901
1.52136
1.75667
1.98112
2.19131
2.38382
2.55476
2.69915
2.81
2.87809
2.89627
0.194228
2.90938
4.65458
5.54521
5.93499
6.04601
5.93841
5.58803
4.57009
3.3594
2.34256
1.821
1.95642
2.43783
3.09951
3.43905
3.38871
3.11798
2.70364
2.18692
1.59902
0.988576
0.41749
0.05281
0.0282501
0.0422779
0.0425529
0.0426384
0.042728
0.0428234
0.0429234
0.0430231
0.0431174
0.0432016
0.0432726
0.0433301
0.0433684
0.0433782
0.0433215
0.0430014
0.0416913
0.037633
0.0313734
0.0343908
0.0663745
0.152601
0.303437
0.503349
0.730511
0.968652
1.20716
1.43881
1.65819
1.86084
2.04244
2.19827
2.32219
2.40512
2.43236
2.3778
0.175005
2.56347
4.28123
5.17134
5.47924
5.43595
5.16283
4.48401
3.36973
2.34106
1.64382
1.56393
1.97243
2.56726
3.19538
3.33442
3.17942
2.84258
2.38026
1.82479
1.21643
0.613104
0.134915
0.0145218
0.0404896
0.0412948
0.0413507
0.0414415
0.041574
0.041733
0.041911
0.0421008
0.0422976
0.0424956
0.0426868
0.0428642
0.0430213
0.0431588
0.043282
0.04339
0.0434368
0.0431159
0.0412106
0.0357555
0.0330192
0.0535986
0.125596
0.265442
0.457577
0.676495
0.903379
1.12614
1.33653
1.52816
1.69525
1.83157
1.92918
1.97588
1.94936
1.79823
0.167753
2.27933
3.86741
4.67857
4.86388
4.69597
4.28827
3.32559
2.32495
1.54238
1.24968
1.54447
2.08532
2.75212
3.18137
3.18025
2.93981
2.5449
2.03877
1.45151
0.837983
0.282879
0.0184609
0.036475
0.0403949
0.0403739
0.0403719
0.0404306
0.0405384
0.0406931
0.0408819
0.0410981
0.0413385
0.0415988
0.0418715
0.0421486
0.0424184
0.0426734
0.0429134
0.0431439
0.0433754
0.0436057
0.0437045
0.0428896
0.0389054
0.0339991
0.0473626
0.107767
0.23464
0.413431
0.616615
0.823558
1.02081
1.19875
1.34923
1.46385
1.53218
1.53846
1.45436
1.21608
0.167668
2.24385
3.51288
4.10693
4.13798
3.88041
3.25425
2.29746
1.48571
1.03999
1.1626
1.65893
2.25597
2.90005
3.10903
2.98836
2.67307
2.22603
1.68004
1.07472
0.480499
0.0663804
0.023545
0.0395512
0.0396764
0.0396259
0.0396049
0.0396221
0.0396878
0.0398004
0.0399563
0.0401498
0.0403775
0.0406375
0.0409278
0.0412453
0.0415811
0.0419263
0.0422727
0.0426133
0.0429536
0.043311
0.0436937
0.044043
0.0438597
0.041128
0.0355837
0.0433221
0.0919868
0.201737
0.360371
0.539876
0.718053
0.879725
1.01319
1.10733
1.14897
1.11933
0.987511
0.69714
0.161723
2.14287
3.12277
3.45562
3.39034
3.04027
2.21905
1.43094
0.909278
0.862207
1.27957
1.83013
2.46708
2.94528
2.97142
2.75437
2.37753
1.88566
1.30825
0.704348
0.184661
0.0113335
0.037887
0.0390269
0.0389855
0.0389623
0.0389623
0.0389815
0.0390221
0.0390936
0.0392015
0.0393474
0.039531
0.0397511
0.0400079
0.0403022
0.0406336
0.0410002
0.0413959
0.0418132
0.0422473
0.0426977
0.0431765
0.0437066
0.0442645
0.0445383
0.0429594
0.0376975
0.0400461
0.0747633
0.16119
0.291323
0.438459
0.578853
0.695062
0.772573
0.796317
0.747264
0.598792
0.322709
0.171603
1.95498
2.59482
2.71194
2.59337
2.05525
1.32825
0.804494
0.653021
0.958799
1.46719
2.03013
2.67389
2.88656
2.77848
2.48273
2.05453
1.52487
0.932934
0.362875
0.0302572
0.0311065
0.0385205
0.0384797
0.0384109
0.0383814
0.0383888
0.0384196
0.0384667
0.0385295
0.0386118
0.0387184
0.038854
0.0390217
0.0392233
0.0394617
0.0397404
0.0400629
0.0404327
0.0408501
0.0413113
0.041814
0.0423599
0.0429538
0.0436161
0.0443554
0.0450023
0.0445527
0.0406348
0.0381729
0.056693
0.113189
0.205176
0.310331
0.404303
0.467487
0.483433
0.436867
0.316122
0.134153
0.188675
1.70179
2.0126
2.04891
1.7605
1.14922
0.68269
0.506113
0.717073
1.1724
1.6664
2.25536
2.72209
2.75016
2.54036
2.17983
1.70739
1.14893
0.567769
0.107112
0.0148824
0.0378015
0.0381109
0.0380322
0.0379598
0.0379162
0.0379061
0.0379255
0.0379696
0.0380339
0.0381151
0.0382116
0.0383243
0.038456
0.038611
0.0387936
0.0390082
0.0392607
0.0395581
0.0399078
0.0403171
0.0407912
0.0413304
0.0419383
0.0426216
0.0433901
0.0442674
0.0451954
0.0457099
0.0441022
0.0398644
0.0432069
0.067579
0.1143
0.169202
0.211516
0.223144
0.192752
0.122493
0.0453332
0.213055
1.35683
1.55296
1.41172
0.894422
0.529282
0.394626
0.559927
0.955081
1.38015
1.87605
2.46821
2.66049
2.55187
2.26157
1.84774
1.33855
0.771718
0.246164
0.0134234
0.0350295
0.0377081
0.0376591
0.0376045
0.037562
0.0375366
0.0375274
0.0375344
0.0375615
0.0376115
0.0376826
0.0377723
0.037878
0.0379983
0.0381332
0.0382838
0.0384534
0.0386469
0.0388714
0.0391357
0.0394512
0.0398294
0.0402821
0.0408198
0.0414475
0.0421724
0.0430033
0.0439566
0.0450352
0.0461217
0.0465905
0.0450888
0.0421437
0.0436377
0.0528899
0.0643493
0.0681303
0.0584049
0.0411952
0.0337627
0.314652
1.135
0.909087
0.571965
0.357389
0.315537
0.48532
0.817442
1.17064
1.57998
2.10669
2.50515
2.51158
2.29909
1.9446
1.48861
0.955692
0.415198
0.0482145
0.0243418
0.0373118
0.0373402
0.0372667
0.037211
0.0371811
0.037176
0.0371868
0.0372072
0.0372359
0.0372761
0.0373314
0.0374038
0.0374939
0.0376012
0.037725
0.0378636
0.0380158
0.0381821
0.0383649
0.0385688
0.0388026
0.039079
0.039413
0.0398199
0.0403165
0.040916
0.0416257
0.0424536
0.043406
0.0444969
0.0457227
0.0469975
0.0480059
0.0483186
0.0478415
0.0472736
0.0470969
0.0470328
0.0461037
0.0421611
0.205555
0.329902
0.247617
0.236156
0.314024
0.500475
0.754349
1.02569
1.36184
1.7936
2.29033
2.4229
2.29153
1.99521
1.59065
1.10629
0.581364
0.135347
0.0104878
0.0362478
0.0370972
0.03702
0.0369543
0.0369028
0.0368709
0.036862
0.0368741
0.0369027
0.0369431
0.0369916
0.0370468
0.0371101
0.0371839
0.0372712
0.0373741
0.0374938
0.0376306
0.0377839
0.037952
0.0381335
0.0383299
0.0385454
0.0387894
0.0390767
0.0394252
0.0398536
0.0403807
0.0410181
0.0417724
0.0426436
0.0436336
0.0447393
0.0459709
0.0472725
0.0485424
0.0496094
0.050144
0.0495633
0.0470062
0.0419131
0.0366986
0.0405228
0.0447794
0.0498066
0.0559108
0.0634302
0.0727095
0.084182
0.0983498
0.115723
0.136854
0.162487
0.193827
0.233039
0.284053
0.353136
0.446258
0.555197
0.617218
0.455436
0.036492
0.0398859
0.0437053
0.0483029
0.0539985
0.0611475
0.0701206
0.0814006
0.0955858
0.113339
0.135409
0.162765
0.196864
0.240191
0.297239
0.375511
0.48306
0.612212
0.696249
0.583569
0.0362827
0.0392232
0.0425743
0.0466925
0.0519017
0.0585626
0.0670521
0.0778694
0.091667
0.109222
0.13146
0.159562
0.195187
0.240959
0.301355
0.383557
0.494607
0.626066
0.723116
0.645691
0.0360784
0.0385607
0.0414311
0.0450392
0.0497056
0.0557863
0.0636478
0.0737708
0.0868017
0.103558
0.125069
0.152658
0.188106
0.233979
0.294255
0.374763
0.480546
0.604661
0.707955
0.710716
0.0358864
0.0379232
0.0403201
0.04341
0.0475028
0.0529421
0.0600749
0.0693382
0.0813149
0.0967694
0.116716
0.142503
0.175915
0.219344
0.276102
0.350532
0.446041
0.55804
0.663321
0.720202
0.0357123
0.0373322
0.0392806
0.0418665
0.0453822
0.0501537
0.0565049
0.0648206
0.0755859
0.0894328
0.107233
0.130203
0.159982
0.198702
0.249061
0.314229
0.396581
0.493815
0.593902
0.674224
0.0355602
0.0368039
0.0383431
0.0404578
0.0434193
0.047531
0.0530939
0.060445
0.0699712
0.0821394
0.0975909
0.117261
0.142475
0.174983
0.216935
0.270689
0.338068
0.418426
0.50613
0.589839
0.0354326
0.036349
0.0375272
0.0392174
0.0416689
0.0451604
0.0499687
0.0563928
0.0647443
0.0753493
0.0886119
0.10512
0.125751
0.151736
0.184629
0.226145
0.277731
0.339662
0.409818
0.483153
0.0353308
0.0359724
0.0368407
0.0381598
0.0401608
0.0430969
0.0472193
0.0527943
0.0600831
0.0693258
0.0807635
0.0946964
0.111564
0.132017
0.156933
0.187335
0.224184
0.268015
0.318394
0.373532
0.035255
0.0356731
0.0362775
0.037278
0.0388982
0.0413664
0.0449034
0.0497408
0.0561013
0.0641837
0.0741628
0.0862008
0.100473
0.117202
0.136664
0.159154
0.184961
0.214346
0.247392
0.283723
0.0352056
0.0354427
0.0358181
0.0365524
0.0378624
0.0399472
0.0430014
0.047218
0.0527644
0.0597872
0.0684221
0.0787912
0.0909922
0.105086
0.121014
0.138486
0.157057
0.176414
0.196071
0.213117
0.0350846
0.035227
0.0352845
0.0355553
0.0361539
0.0371376
0.0385523
0.040413
0.0426852
0.0453207
0.0482776
0.0515246
0.0551103
0.0589804
0.0626764
0.0664941
0.0721781
0.0860155
0.111841
0.151247
0.0092176
0.0196318
0.0127511
0.00939491
0.00828185
0.00902953
0.0117472
0.016871
0.0248691
0.0360751
0.0511129
0.0702345
0.093177
0.120189
0.152864
0.192665
0.23857
0.287634
0.337053
0.395582
0.0507105
0.0368842
0.0543688
0.0706523
0.0871975
0.104394
0.122245
0.141162
0.161564
0.183796
0.207786
0.232623
0.255483
0.285237
0.33739
0.400129
0.464138
0.517748
0.55648
0.631548
0.0353215
0.0675185
0.0913659
0.115939
0.141914
0.168445
0.195107
0.221725
0.248603
0.275874
0.302502
0.325396
0.344952
0.380809
0.415659
0.449371
0.479694
0.499084
0.520473
0.559541
0.0215847
0.0464045
0.0576896
0.0744872
0.0945817
0.116315
0.139063
0.162189
0.185105
0.207268
0.228357
0.249707
0.27689
0.312311
0.339095
0.353599
0.356783
0.349771
0.341474
0.339285
0.0127419
0.0240789
0.0342312
0.0466602
0.061151
0.0768982
0.0931419
0.109325
0.125007
0.139909
0.154238
0.169317
0.187159
0.206475
0.221249
0.226479
0.220867
0.20614
0.186475
0.164621
0.00877405
0.0123296
0.0214158
0.027186
0.033487
0.0420368
0.0518935
0.0621482
0.0721466
0.0815015
0.0901501
0.0983597
0.106234
0.112767
0.11593
0.11357
0.104876
0.0910534
0.0747065
0.058268
0.00747669
0.00964022
0.0215652
0.0276944
0.0269207
0.0271678
0.029075
0.0321048
0.0356543
0.0392302
0.0424877
0.0451917
0.0470709
0.047679
0.0465525
0.0435371
0.0391466
0.0346484
0.0315589
0.0308295
0.0074659
0.00944547
0.0220604
0.0326066
0.0330321
0.0319902
0.0309755
0.0302004
0.0297599
0.0296308
0.029723
0.0299367
0.0302043
0.0305372
0.0310776
0.0320573
0.0336239
0.0356235
0.037601
0.0391375
0.00789228
0.00965931
0.0229404
0.0339313
0.0348847
0.034754
0.0346501
0.0345703
0.0345255
0.0345476
0.0346722
0.0349301
0.0353425
0.035912
0.0366082
0.0373589
0.0380686
0.0386581
0.0390931
0.0393799
0.00712274
0.0104584
0.0258965
0.0347043
0.0351296
0.0350762
0.0350984
0.0351605
0.0352531
0.03538
0.0355494
0.0357698
0.036047
0.036378
0.036746
0.0371217
0.0374714
0.0377687
0.0379999
0.0381628
0.00842189
0.0127983
0.0308028
0.0352437
0.0352005
0.0351445
0.0351535
0.035192
0.0352524
0.0353354
0.0354441
0.0355818
0.0357503
0.0359476
0.0361649
0.0363876
0.0365984
0.0367824
0.03693
0.0370373
0.0110614
0.0210478
0.0348209
0.0353254
0.0352013
0.0351662
0.0351654
0.0351806
0.0352075
0.0352457
0.0352959
0.0353592
0.035436
0.0355252
0.035623
0.0357237
0.0358202
0.035906
0.0359763
0.0360286
0.0609467
0.0787413
0.0882367
0.0969408
0.104711
0.110014
0.112972
0.114042
0.11361
0.112557
0.111568
0.11028
0.108998
0.108119
0.108278
0.2687
0.308791
0.48009
0.643667
0.740096
0.78318
0.801151
0.802498
0.792107
0.773304
0.748601
0.720407
0.690576
0.660097
0.628797
0.50052
0.327254
0.364077
0.473511
0.579632
0.63856
0.658331
0.658506
0.649657
0.63704
0.623387
0.610532
0.600248
0.594867
0.597934
0.610421
0.50027
0.429921
0.410103
0.416638
0.436561
0.464131
0.492676
0.51969
0.544493
0.567277
0.589076
0.611778
0.637753
0.668531
0.688716
0.631688
0.588725
0.566453
0.563779
0.57398
0.590591
0.61092
0.631811
0.651134
0.668486
0.684974
0.701937
0.718494
0.730853
0.710154
0.708705