/*--------------------------------*- C++ -*----------------------------------*\
| =========                 |                                                 |
| \\      /  F ield         | OpenFOAM: The Open Source CFD Toolbox           |
|  \\    /   O peration     | Version:  v1912                                 |
|   \\  /    A nd           | Website:  www.openfoam.com                      |
|    \\/     M anipulation  |                                                 |
\*---------------------------------------------------------------------------*/
FoamFile
{
    version     2.0;
    format      ascii;
    class       volScalarField;
    location    "34";
    object      p;
}
// * * * * * * * * * * * * * * * * * * * * * * * * * * * * * * * * * * * * * //

dimensions      [1 -1 -2 0 0 0 0];


internalField   nonuniform List<scalar> 
20320
(
419520
429774
429800
429852
429924
430012
430114
430229
430353
430483
430616
430750
430880
431005
431120
431224
431313
431387
431443
431477
399598
409510
409545
409599
409671
409760
409863
409978
410103
410233
410367
410501
410632
410756
410871
410974
411062
411132
411183
411213
380274
389875
389910
389965
390038
390127
390230
390345
390470
390600
390733
390866
390996
391119
391233
391334
391420
391489
391540
391572
361550
370851
370886
370940
371013
371101
371204
371318
371441
371571
371703
371835
371962
372084
372195
372294
372379
372447
372498
372534
343413
352423
352457
352510
352581
352668
352769
352882
353003
353131
353261
353391
353516
353635
353744
353841
353924
353992
354043
354082
325850
334574
334607
334659
334728
334813
334912
335022
335141
335266
335393
335520
335643
335758
335864
335958
336039
336105
336156
336197
308848
317292
317324
317374
317441
317523
317618
317724
317838
317959
318082
318205
318323
318435
318537
318627
318704
318767
318818
318860
292394
300565
300596
300643
300706
300784
300874
300974
301083
301197
301314
301430
301543
301648
301744
301829
301901
301960
302009
302052
276477
284380
284408
284452
284511
284583
284666
284759
284859
284965
285072
285179
285282
285379
285466
285542
285607
285660
285706
285748
261085
268726
268752
268791
268843
268908
268982
269065
269154
269247
269342
269436
269525
269608
269682
269745
269798
269843
269882
269921
246208
253591
253613
253647
253692
253746
253809
253879
253953
254030
254107
254181
254251
254314
254368
254412
254448
254478
254508
254540
231836
238967
238984
239011
239047
239090
239138
239191
239246
239301
239354
239402
239444
239477
239502
239518
239527
239534
239548
239569
217958
224841
224853
224872
224897
224926
224957
224990
225021
225048
225069
225081
225084
225076
225057
225029
224997
224968
224955
224955
204564
211203
211210
211220
211232
211245
211256
211264
211265
211258
211238
211204
211154
211087
211005
210911
210814
210728
210670
210632
191645
198046
198046
198047
198045
198040
198028
198008
197975
197925
197856
197763
197643
197495
197321
197128
196929
196748
196614
196506
179192
185358
185352
185342
185326
185301
185265
185213
185141
185044
184915
184749
184540
184285
183983
183642
183282
182938
182667
182431
167191
173130
173117
173097
173065
173020
172958
172874
172760
172610
172414
172163
171846
171453
170977
170422
169806
169182
168648
168166
155635
161350
161331
161300
161254
161189
161101
160984
160827
160623
160356
160011
159570
159011
158313
157459
156451
155339
154274
153244
144510
150009
149984
149943
149883
149800
149687
149537
149340
149082
148744
148305
147733
146991
146031
144797
143228
141300
139127
136717
133805
139093
139063
139013
138940
138840
138706
138527
138293
137987
137585
137057
136361
135440
134211
132554
130292
127164
122819
116619
117377
120628
120370
119936
119603
119498
119692
120097
120455
120358
119686
117727
116124
113589
110911
110197
110262
109350
108483
108760
109412
108610
108742
110221
258266
218276
156142
112990
82224.1
60719.8
47682.7
40032.1
36009.4
33141.1
31454.9
30438.3
29807.9
29392.3
29094.9
28869.5
28768.7
28618.2
28547
28641.2
28718.4
28920.1
28877.9
28768.6
28857.2
29209.2
29168.6
29011.3
28813.7
28644.5
28510.8
28401
28312
28245.4
28201.4
28178
111758
114976
114779
114473
114240
114246
114543
115129
115872
116570
117806
116680
113776
112478
109988
109531
109457
109187
108391
108235
107942
108108
108240
110544
196220
178328
137216
101175
72686.3
53520.4
42729.8
36564
31542.4
28464.8
26627.7
25516.1
24810.5
24327.6
23973
23703.2
23542.2
23468.7
23503.1
23554.8
23570.5
23631.8
23910.5
24144.1
24317.3
24242.9
24171.9
24006.6
23792.4
23601.1
23446.7
23322.7
23224.4
23149.3
23099.5
23069.7
106356
109494
109484
109293
108984
108966
109315
109987
110874
111980
113171
114566
113578
111132
109570
109539
109448
109238
108624
108260
108006
108023
108141
121866
155769
147203
117785
87864.5
63431
46295
36018.7
30079.2
25974.2
23239.2
21513.7
20430.4
19718.7
19211.2
18819.8
18512.2
18297.8
18233
18273.7
18338.5
18384
18453.5
18637.2
18918.4
19126.1
19150.7
19084.3
18908.4
18667.8
18460.4
18289.4
18149.9
18041.1
17958.3
17907.1
17874.9
101606
104612
104589
104132
103895
103855
104141
104731
105852
107048
108362
110339
111781
109553
109507
109518
109474
109346
106735
107875
107902
108022
109475
114703
123025
117818
96303.2
72041.3
51578.6
37048
28057.8
22853.9
19544.5
17364.6
15939.8
15013.8
14382.4
13910.7
13524.7
13206.6
12977.6
12908.1
12939.5
13009.2
13090.2
13204.7
13386.1
13617.4
13826.2
13920
13881.9
13685.6
13396
13190
13016.2
12865.3
12749.7
12659.1
12612.4
12586.3
96666.5
99500.9
99145.5
98715.8
98427
98209.5
98309.6
98911.3
100089
101629
103565
105585
107716
109476
109511
109516
109497
108585
107224
106102
107575
107725
101900
96383.9
96470.4
90278.1
73510.1
53946.8
37393.4
25902.4
18828.7
14811
12423.5
10938
9942.36
9275.71
8802.81
8424.57
8066.5
7749.58
7485.33
7438.13
7474.72
7552.38
7670.86
7834.21
8015.61
8191.32
8413.19
8594.34
8599.34
8356.22
7965.42
7797
7638.43
7476.2
7354.63
7250.69
7216.79
7208.92
90961.1
93892.9
93399.9
93062
92717.7
92339.1
92296
92788.7
93972.2
95681.9
97892.2
100551
106447
109439
109503
109502
109514
103825
106265
103493
105505
97494.5
86317.3
78351
73028.1
64724.4
50220.9
34051.4
20881.1
12632.5
8018.36
5655.56
4484.08
3884.08
3484.52
3204.06
2996.75
2722.69
2532.56
2271.38
1908.55
1950.41
2000.74
2046.21
2164.96
2384.36
2573.31
2644.16
2904.09
3238.14
3330.3
2984.23
2273.2
2285.22
2153.42
1940.17
1875.97
1807.1
1798.92
1819.09
85246.4
88122.2
87917.2
87841.2
87252
86696.6
86576.3
87014
87820.8
89264.7
91544.9
94590
100248
108121
108817
106352
100365
102422
103356
103055
96824.9
82570.4
70726
60416.2
51416.2
40888.8
26344.7
11542.2
2061.01
562.658
113.583
-13.6665
-32.4695
-24.9203
-17.6702
-12.2475
-13.3167
-15.1676
-16.27
-17.5426
-17.4021
-18.3976
-19.7339
-20.4816
-20.8176
-20.2923
-14.2878
3.36878
10.8858
9.0315
-2.23049
-16.6318
-18.0225
-17.3871
-16.7828
-15.662
-15.785
-15.2432
-14.5721
-13.8515
79720.8
82383.8
82662.6
81996.3
81195.7
80542
80304.5
80836.1
81978.7
83192.4
84830.9
87692.8
92383
99231.1
103467
103044
100186
101042
102819
94067.5
81136.7
68103
55032.5
42744.3
31062.9
17113.7
2574.86
49.9403
27.9325
17.1487
7.78474
0.758414
-4.34806
-8.16889
-10.7091
-9.47325
-13.6621
-15.8124
-17.7556
-19.476
-20.7934
-22.1293
-23.5651
-25.0964
-27.481
-31.083
-31.6161
-30.6219
-30.041
-30.0602
-28.9783
-22.6811
-22.0983
-23.122
-23.1182
-22.7159
-22.3972
-21.8865
-21.2561
-20.5504
74397.4
76486.9
76871.5
76013.6
75077.6
74221.5
73929.8
74187.2
75013.3
76031
77557.2
80145.2
84189.2
89998.3
96632.3
100979
106690
110150
98343.1
81017
67690
53688.2
39434.2
25402.3
10147.9
372.811
41.981
27.1503
15.458
3.89606
-4.88174
-11.3638
-15.8424
-18.6063
-19.8082
-18.5325
-19.8053
-21.9647
-23.8555
-25.544
-26.9394
-28.2813
-29.7038
-31.2542
-33.2414
-35.8104
-37.0846
-37.0406
-36.6647
-36.1582
-34.7232
-31.001
-29.3449
-29.3706
-29.2502
-28.9178
-28.5646
-28.0392
-27.3664
-26.5704
69248.5
71433.8
71089.8
70021.4
68924.9
67887.4
67391.6
67617.3
68383.2
69172.4
70161.1
72056.4
75311
80929.5
87740.5
96628.6
122160
116250
86435.2
70401.6
54878.7
39507.5
23980.1
7439.65
20.0384
17.2054
18.1053
9.35985
-0.471574
-8.91048
-15.5178
-20.4595
-23.9139
-26.0504
-27.0051
-26.4817
-26.9537
-28.3669
-29.9921
-31.5687
-32.9929
-34.3518
-35.7723
-37.3329
-39.1858
-41.2948
-42.6356
-42.9282
-42.6612
-42.0455
-40.6643
-38.0641
-36.4192
-35.9625
-35.6922
-35.3621
-34.9627
-34.4075
-33.6915
-32.8165
64336
66544.7
65526.6
64104.4
62711.4
61884.7
61289.7
61134.1
61289.8
62308.6
63051.6
63892
66708.2
71474.7
76948.5
109056
116624
95678.7
75463.5
59209.7
42260.1
25472.2
8091.35
68.1533
10.1112
4.02574
-2.20839
-8.95236
-15.6476
-21.5564
-26.3008
-29.8923
-32.4063
-33.9428
-34.5873
-34.3177
-34.4067
-35.2796
-36.5635
-37.9451
-39.2876
-40.6246
-42.0255
-43.5423
-45.236
-47.0259
-48.3262
-48.8197
-48.6904
-48.0917
-46.8732
-44.9565
-43.4599
-42.7599
-42.3445
-41.9632
-41.5174
-40.9292
-40.1782
-39.2302
59546.3
61785.5
60076.7
58336.9
57030.2
55851.8
54577.7
54244.8
54307.1
54487.6
54936.1
55627.6
57941.5
60151.3
68971.1
93855.7
100931
82724.3
65382
47739.7
29572.2
10879
193.665
-4.20714
-7.19496
-14.4866
-20.0952
-24.9745
-29.6348
-33.7136
-36.9681
-39.3922
-41.0339
-41.9839
-42.3207
-42.0983
-42.0112
-42.5088
-43.4535
-44.6048
-45.8274
-47.0962
-48.4409
-49.8823
-51.4265
-52.9825
-54.1908
-54.7748
-54.7582
-54.2423
-53.2166
-51.7495
-50.4642
-49.671
-49.1631
-48.7262
-48.2297
-47.6139
-46.8367
-45.8566
55503
56545.5
54713.6
53218.9
52348.7
49884.6
47807.1
46808.7
46577.6
46442.2
46573.4
46873.6
47495.2
49271.2
53427.2
72421.5
81884.4
69944.3
54010
35848
16129
541.533
-20.0477
-21.3455
-26.0149
-31.2306
-35.5274
-39.1138
-42.3786
-45.1447
-47.2626
-48.7374
-49.6436
-50.0868
-50.1405
-49.8809
-49.7023
-49.9416
-50.5953
-51.5175
-52.5879
-53.7592
-55.0179
-56.3562
-57.7548
-59.1264
-60.228
-60.835
-60.9081
-60.507
-59.6772
-58.5334
-57.4473
-56.6679
-56.1163
-55.631
-55.0978
-54.4594
-53.6657
-52.6577
51169.3
51562.9
49762.9
48987.1
46699.4
43920.1
41583.4
39916.5
38809.6
38278.7
38277.6
38045
37629.7
40321.5
49221
61637.2
66568.7
56747.4
41953.2
23441.8
2988.67
-14.2648
-30.6434
-37.1081
-41.971
-45.988
-49.1036
-51.7296
-54.0096
-55.8104
-57.0635
-57.8088
-58.1454
-58.1878
-58.0096
-57.6835
-57.4356
-57.4972
-57.9232
-58.6376
-59.5516
-60.5974
-61.7434
-62.9636
-64.2239
-65.4395
-66.432
-67.0298
-67.1735
-66.8939
-66.2473
-65.355
-64.4642
-63.7465
-63.1841
-62.6702
-62.1139
-61.4574
-60.6507
-59.6423
46403.8
46468.6
45172.3
43677.9
41343.7
38233.1
35326.3
33130.6
31088.8
30010.5
29819.2
29246
27853.9
33584.2
37005.6
51350.7
51701.8
43779
29837.3
9894.62
37.9995
-41.7874
-45.3749
-51.7559
-55.9774
-58.991
-61.293
-63.1917
-64.6987
-65.7557
-66.3602
-66.5724
-66.4969
-66.2452
-65.889
-65.4896
-65.183
-65.1245
-65.3822
-65.9221
-66.678
-67.5906
-68.6134
-69.7101
-70.8379
-71.9155
-72.8072
-73.3808
-73.5787
-73.4124
-72.935
-72.2514
-71.5299
-70.8951
-70.3492
-69.828
-69.2639
-68.5999
-67.7864
-66.7712
41560.9
41400.1
39813.1
38698.2
36443.5
32944
29165.9
25990
22454.2
18172.2
16629.6
17490.7
21623.5
27146.7
32324.9
40352.5
39278.3
31839.8
17959.6
768.559
-54.0607
-53.7375
-60.1345
-65.1739
-68.5307
-70.7801
-72.4491
-73.7137
-74.5918
-75.082
-75.2118
-75.0483
-74.69
-74.2347
-73.7501
-73.2884
-72.9353
-72.7962
-72.932
-73.3298
-73.9464
-74.7279
-75.6256
-76.6023
-77.6068
-78.5603
-79.3599
-79.9045
-80.1403
-80.069
-79.7347
-79.2212
-78.6491
-78.1033
-77.5946
-77.0902
-76.5356
-75.8764
-75.0651
-74.0558
36544.9
35905.2
34455.9
34980.2
31554.9
28341.7
23720.9
19398.2
15678.6
14883.3
13687.3
13821.5
17561.9
24035.3
24668.9
32967.3
29128.7
21467.7
6366.71
-18.7708
-64.8697
-68.8866
-73.9738
-77.6967
-80.1253
-81.6775
-82.7542
-83.4735
-83.8559
-83.9204
-83.7087
-83.2876
-82.7428
-82.1559
-81.5869
-81.082
-80.6977
-80.5067
-80.5558
-80.8428
-81.3381
-81.9989
-82.781
-83.6429
-84.5305
-85.373
-86.0903
-86.6025
-86.8616
-86.8656
-86.6493
-86.277
-85.8306
-85.3734
-84.9218
-84.4519
-83.9208
-83.2804
-82.4823
-81.4805
31207.3
30960.8
30356.5
30837.6
27031.4
25196.7
19134.2
15568.3
15584.3
15271.4
14260.6
15125
14062.5
19573.5
24221.1
25051.7
20886.8
12599.5
478.521
-78.7652
-78.597
-83.2819
-86.8918
-89.4437
-90.9401
-91.8363
-92.3918
-92.6567
-92.6486
-92.3975
-91.9459
-91.3522
-90.6898
-90.0256
-89.4098
-88.8822
-88.4826
-88.26
-88.2485
-88.4504
-88.846
-89.4012
-90.0761
-90.8288
-91.6079
-92.3516
-92.9933
-93.4705
-93.7425
-93.8036
-93.6813
-93.4227
-93.0858
-92.7186
-92.3327
-91.9099
-91.4153
-90.8039
-90.0301
-89.0462
25143.5
25981.9
26893.3
25794.9
25131.2
21747.8
16338.3
15021
15878.1
16552.6
15986.9
13930.5
14420.3
15870.2
21201.9
18649.9
14153.3
5206.74
-32.1919
-92.6995
-93.4162
-96.4979
-98.9334
-100.368
-101.066
-101.41
-101.523
-101.419
-101.111
-100.629
-100.011
-99.3061
-98.5754
-97.8736
-97.2414
-96.7093
-96.3068
-96.0674
-96.0143
-96.1518
-96.4653
-96.9278
-97.5042
-98.1555
-98.8348
-99.4883
-100.061
-100.502
-100.778
-100.883
-100.836
-100.672
-100.431
-100.149
-99.8326
-99.4647
-99.0154
-98.4424
-97.7007
-96.7423
18135.9
19986.9
22512.5
21337.4
23351.1
18313.2
14769.4
11670.5
18300
15850.9
12852.7
13397.9
13870.8
14165.8
15795.7
13451.7
8668.68
663.242
-113.893
-105.107
-106.817
-108.658
-109.987
-110.517
-110.619
-110.529
-110.286
-109.891
-109.356
-108.708
-107.977
-107.207
-106.445
-105.734
-105.106
-104.583
-104.186
-103.939
-103.858
-103.945
-104.19
-104.572
-105.059
-105.618
-106.206
-106.777
-107.284
-107.689
-107.963
-108.101
-108.115
-108.03
-107.872
-107.668
-107.421
-107.113
-106.716
-106.189
-105.486
-104.562
11967.4
14263.9
16270.7
17376.7
19461.3
19537.1
13753.8
10875.4
17017.9
12909.4
12507.4
12840.9
13629.7
11163.8
11674.2
9263.39
4189.58
-46.5234
-115.04
-117.712
-118.707
-119.708
-120.124
-120.03
-119.723
-119.308
-118.791
-118.175
-117.475
-116.711
-115.91
-115.108
-114.342
-113.641
-113.03
-112.524
-112.137
-111.888
-111.785
-111.832
-112.021
-112.331
-112.739
-113.213
-113.717
-114.212
-114.66
-115.03
-115.298
-115.459
-115.521
-115.501
-115.416
-115.283
-115.102
-114.856
-114.514
-114.038
-113.381
-112.498
10833.8
11298.7
11505
11786.8
14040.4
16854.8
13568.2
11462.9
10929.5
12707.3
12261.9
12556.1
12443.2
9614.99
8608.61
5902.07
1071.54
-112.436
-129.265
-128.892
-129.466
-129.737
-129.536
-129.062
-128.487
-127.84
-127.122
-126.348
-125.533
-124.695
-123.858
-123.051
-122.3
-121.623
-121.035
-120.548
-120.173
-119.923
-119.803
-119.816
-119.956
-120.203
-120.539
-120.937
-121.365
-121.792
-122.185
-122.52
-122.778
-122.956
-123.055
-123.088
-123.065
-122.995
-122.877
-122.691
-122.406
-121.984
-121.377
-120.545
10797.4
10835.9
10853.7
10873.6
10856.2
11737.8
14669.1
13201.7
13078.1
12012.8
11947.8
12769.8
11171.3
8033.03
6323.57
3170.36
-9.47435
-147.526
-139.046
-139.225
-139.24
-138.998
-138.441
-137.756
-137.01
-136.204
-135.352
-134.473
-133.585
-132.707
-131.862
-131.071
-130.348
-129.7
-129.137
-128.668
-128.304
-128.054
-127.919
-127.902
-127.997
-128.189
-128.461
-128.791
-129.151
-129.515
-129.858
-130.16
-130.406
-130.592
-130.72
-130.794
-130.823
-130.81
-130.749
-130.62
-130.391
-130.023
-129.472
-128.699
10729.8
10780.7
10691.4
10720.7
10579.4
10559.1
10584.3
10949.4
10942.6
11195.3
11585.8
11516.1
9050.17
6781.39
4462.81
1010.73
-135.318
-146.067
-148.888
-148.574
-148.306
-147.755
-147.02
-146.221
-145.371
-144.469
-143.536
-142.596
-141.67
-140.781
-139.952
-139.191
-138.5
-137.883
-137.345
-136.894
-136.538
-136.286
-136.136
-136.091
-136.147
-136.29
-136.506
-136.775
-137.075
-137.383
-137.679
-137.95
-138.182
-138.37
-138.517
-138.622
-138.692
-138.727
-138.717
-138.64
-138.466
-138.155
-137.665
-136.958
10425.3
10684.1
10596.9
10603
10590.4
10561.1
10545.5
10603.9
10809.1
11015.7
11266.7
10889.8
7547.81
5552.59
2795.66
-202.457
-155.733
-158.336
-157.743
-157.394
-156.909
-156.204
-155.397
-154.546
-153.644
-152.695
-151.724
-150.759
-149.829
-148.961
-148.16
-147.429
-146.768
-146.178
-145.663
-145.227
-144.879
-144.622
-144.458
-144.389
-144.41
-144.509
-144.675
-144.89
-145.137
-145.395
-145.651
-145.89
-146.105
-146.291
-146.448
-146.575
-146.676
-146.749
-146.782
-146.752
-146.63
-146.376
-145.954
-145.322
10400.5
10402.8
10459
10550
10572.6
10507.8
10523.1
10554.8
10702.5
10823.2
11110.4
8170.19
6243.97
4246.78
1256.52
-162.617
-171.719
-166.682
-166.306
-165.815
-165.229
-164.478
-163.661
-162.8
-161.887
-160.932
-159.959
-159.009
-158.111
-157.275
-156.503
-155.798
-155.158
-154.587
-154.086
-153.663
-153.321
-153.062
-152.886
-152.795
-152.785
-152.846
-152.967
-153.137
-153.337
-153.552
-153.77
-153.98
-154.176
-154.355
-154.515
-154.656
-154.778
-154.878
-154.943
-154.952
-154.878
-154.685
-154.336
-153.791
10389.1
10381.1
10405.9
10469.2
10447.2
10445.6
10479
10514
10614.3
10611.4
10392.6
6648.52
5187.1
2975.74
45.2726
-167.229
-173.859
-175.158
-174.484
-174.018
-173.402
-172.665
-171.879
-171.043
-170.151
-169.219
-168.277
-167.368
-166.51
-165.708
-164.965
-164.284
-163.665
-163.11
-162.622
-162.207
-161.868
-161.605
-161.419
-161.311
-161.275
-161.302
-161.385
-161.514
-161.674
-161.852
-162.036
-162.218
-162.395
-162.563
-162.722
-162.867
-163
-163.115
-163.201
-163.241
-163.211
-163.078
-162.811
-162.367
10376.3
10374.1
10379.2
10395.2
10387
10404.7
10434.6
10472.9
10513.7
10582.4
8338.88
5747.35
4204.65
1740.37
-440.814
-196.926
-183.611
-183.158
-182.601
-182.134
-181.529
-180.839
-180.106
-179.32
-178.474
-177.582
-176.688
-175.829
-175.014
-174.249
-173.537
-172.882
-172.285
-171.747
-171.272
-170.864
-170.527
-170.26
-170.065
-169.94
-169.88
-169.877
-169.928
-170.023
-170.149
-170.293
-170.446
-170.603
-170.761
-170.917
-171.067
-171.21
-171.344
-171.464
-171.561
-171.623
-171.628
-171.552
-171.375
-171.054
10362.6
10363.8
10361.5
10364.2
10344.1
10367.6
10391.8
10433.8
10480.7
10180.1
6132.96
5067.98
3249.45
533.517
-166.04
-187.922
-191.906
-191.144
-190.699
-190.25
-189.679
-189.052
-188.387
-187.666
-186.869
-186.031
-185.198
-184.394
-183.626
-182.9
-182.221
-181.592
-181.018
-180.498
-180.037
-179.638
-179.303
-179.033
-178.828
-178.689
-178.607
-178.576
-178.598
-178.663
-178.759
-178.873
-178.999
-179.132
-179.27
-179.411
-179.55
-179.683
-179.811
-179.929
-180.027
-180.1
-180.129
-180.103
-180.017
-179.85
10350.2
10352.9
10349.8
10329
10325.4
10339.2
10360.4
10397
10458
8238.24
5618.67
4371.12
2237.61
-238.851
-187.796
-200.874
-199.654
-199.147
-198.842
-198.424
-197.903
-197.348
-196.756
-196.094
-195.35
-194.58
-193.815
-193.069
-192.349
-191.664
-191.019
-190.419
-189.868
-189.368
-188.92
-188.53
-188.2
-187.928
-187.716
-187.561
-187.459
-187.405
-187.4
-187.436
-187.503
-187.59
-187.693
-187.804
-187.922
-188.045
-188.168
-188.287
-188.404
-188.512
-188.606
-188.678
-188.717
-188.722
-188.713
-188.742
10336.8
10341.1
10334.9
10322.3
10315.5
10319.5
10334.1
10373.3
10095.2
6287.06
5252.16
3569.71
1126.15
-248.654
-218.293
-207.958
-207.614
-207.311
-207.082
-206.691
-206.233
-205.756
-205.233
-204.616
-203.941
-203.246
-202.548
-201.858
-201.188
-200.545
-199.934
-199.365
-198.839
-198.357
-197.923
-197.544
-197.219
-196.946
-196.728
-196.562
-196.442
-196.368
-196.339
-196.349
-196.388
-196.449
-196.529
-196.619
-196.716
-196.821
-196.925
-197.027
-197.128
-197.222
-197.303
-197.365
-197.398
-197.405
-197.417
-197.539
10328
10329.8
10323.5
10315.2
10308
10306.4
10315.9
10349.9
8040.15
6008.5
4667.97
2616.86
38.9406
-183.417
-212.764
-216.207
-215.785
-215.651
-215.43
-215.076
-214.697
-214.299
-213.825
-213.266
-212.662
-212.037
-211.403
-210.77
-210.149
-209.547
-208.973
-208.435
-207.934
-207.472
-207.054
-206.685
-206.364
-206.094
-205.872
-205.697
-205.563
-205.471
-205.422
-205.408
-205.421
-205.458
-205.513
-205.582
-205.659
-205.742
-205.826
-205.909
-205.99
-206.066
-206.128
-206.171
-206.185
-206.168
-206.132
-206.07
10301.5
10320.7
10313.8
10308.1
10302.7
10300.2
10308.9
9966.09
6802.99
5643.96
3873.11
1504.77
-385.098
-237.126
-224.904
-224.548
-224.239
-224.124
-223.897
-223.606
-223.313
-222.983
-222.553
-222.056
-221.522
-220.962
-220.387
-219.809
-219.235
-218.675
-218.138
-217.632
-217.157
-216.715
-216.313
-215.955
-215.641
-215.373
-215.15
-214.968
-214.823
-214.718
-214.65
-214.614
-214.604
-214.619
-214.652
-214.698
-214.753
-214.815
-214.878
-214.939
-215
-215.055
-215.094
-215.114
-215.101
-215.051
-214.956
-214.781
10289
10295.4
10300.3
10300.7
10297.9
10300
10311.5
7886.62
6447.41
4974.27
2895.69
326.433
-162.213
-229.343
-233.67
-232.983
-232.839
-232.729
-232.525
-232.311
-232.097
-231.806
-231.43
-230.999
-230.528
-230.028
-229.509
-228.983
-228.455
-227.937
-227.437
-226.962
-226.512
-226.091
-225.706
-225.36
-225.054
-224.79
-224.566
-224.379
-224.227
-224.11
-224.027
-223.973
-223.944
-223.939
-223.951
-223.974
-224.008
-224.047
-224.088
-224.128
-224.167
-224.2
-224.217
-224.214
-224.177
-224.1
-223.971
-223.768
10280.9
10284.3
10287
10292.8
10291.9
10320
9512.2
7115.19
5895.53
4071.07
1745.71
-300.675
-240.527
-241.755
-241.959
-241.682
-241.623
-241.508
-241.353
-241.214
-241.049
-240.799
-240.477
-240.103
-239.69
-239.245
-238.779
-238.299
-237.816
-237.339
-236.875
-236.429
-236.004
-235.605
-235.238
-234.905
-234.608
-234.349
-234.126
-233.936
-233.778
-233.652
-233.556
-233.487
-233.442
-233.419
-233.411
-233.416
-233.43
-233.449
-233.467
-233.486
-233.503
-233.514
-233.514
-233.495
-233.445
-233.362
-233.241
-233.093
10255
10260.7
10270.6
10284
10293.9
10076.7
7829.79
6645.9
5059.29
2982.63
506.181
-172.251
-253.235
-250.943
-250.735
-250.657
-250.611
-250.501
-250.402
-250.323
-250.181
-249.971
-249.699
-249.377
-249.014
-248.62
-248.201
-247.767
-247.325
-246.886
-246.457
-246.04
-245.64
-245.263
-244.914
-244.595
-244.308
-244.055
-243.834
-243.642
-243.479
-243.346
-243.24
-243.158
-243.099
-243.06
-243.037
-243.025
-243.023
-243.025
-243.026
-243.023
-243.019
-243.011
-242.998
-242.972
-242.925
-242.859
-242.784
-242.717
10214.7
10231.4
10248.9
10266.6
10252.4
8520.86
7250.19
5857.54
3998.3
1743.86
-246.02
-252.66
-261.136
-260.327
-259.906
-259.865
-259.8
-259.719
-259.676
-259.618
-259.505
-259.331
-259.101
-258.823
-258.505
-258.156
-257.782
-257.389
-256.987
-256.584
-256.187
-255.799
-255.424
-255.069
-254.738
-254.433
-254.156
-253.911
-253.692
-253.499
-253.333
-253.194
-253.08
-252.988
-252.918
-252.865
-252.828
-252.803
-252.787
-252.776
-252.762
-252.746
-252.726
-252.703
-252.68
-252.651
-252.612
-252.564
-252.514
-252.461
10174.8
10204.9
10227.4
10230.1
8903.25
7760.67
6428.09
4795.91
2795.48
442.852
-168.854
-271.995
-270.178
-269.601
-269.34
-269.27
-269.207
-269.172
-269.164
-269.121
-269.031
-268.886
-268.691
-268.45
-268.172
-267.861
-267.527
-267.173
-266.808
-266.439
-266.074
-265.714
-265.364
-265.03
-264.716
-264.425
-264.16
-263.922
-263.707
-263.515
-263.347
-263.203
-263.083
-262.983
-262.903
-262.84
-262.791
-262.754
-262.727
-262.704
-262.678
-262.653
-262.624
-262.595
-262.566
-262.534
-262.497
-262.456
-262.412
-262.367
10112.6
10166.3
10201
8971.48
8067.38
6818.94
5362.62
3578.12
1464.05
-224.585
-279.505
-280.213
-279.648
-279.128
-278.956
-278.883
-278.852
-278.859
-278.857
-278.828
-278.756
-278.634
-278.468
-278.259
-278.013
-277.739
-277.44
-277.123
-276.792
-276.455
-276.119
-275.787
-275.46
-275.147
-274.851
-274.573
-274.321
-274.09
-273.879
-273.689
-273.521
-273.375
-273.25
-273.146
-273.058
-272.987
-272.928
-272.881
-272.843
-272.809
-272.775
-272.741
-272.709
-272.676
-272.643
-272.608
-272.571
-272.534
-272.497
-272.46
7795.1
9760.63
9123.31
8295.7
7099.01
5814.71
4271.22
2367.82
150.622
-127.016
-290.631
-290.11
-289.305
-288.953
-288.809
-288.759
-288.754
-288.766
-288.768
-288.744
-288.681
-288.578
-288.433
-288.25
-288.035
-287.793
-287.526
-287.242
-286.942
-286.636
-286.329
-286.021
-285.718
-285.425
-285.146
-284.884
-284.643
-284.419
-284.213
-284.026
-283.859
-283.713
-283.586
-283.479
-283.386
-283.308
-283.241
-283.185
-283.137
-283.093
-283.053
-283.014
-282.978
-282.943
-282.907
-282.871
-282.834
-282.799
-282.766
-282.735
123509
128591
128556
128499
128415
128301
128147
127945
127680
127333
126878
126278
125482
124413
122956
120928
118010
113585
106222
92613.6
113334
118402
118363
118299
118207
118080
117912
117691
117402
117025
116532
115882
115017
113853
112258
110019
106755
101722
93396.8
78517.5
103188
108240
108198
108129
108029
107893
107714
107478
107173
106777
106261
105584
104689
103493
101868
99619.6
96431.4
91773.5
84776.2
73967.1
93070.8
98106.8
98062.2
97989.6
97884.9
97742.7
97555.1
97311.4
96996.9
96591.5
96067.8
95387.9
94498.9
93326.3
91764.2
89660
86791.7
82832.1
77310.2
69651.6
82985.5
88004.9
87958.8
87883.7
87775.8
87629.8
87438.2
87190.8
86873.9
86469
85951.1
85286.8
84430.6
83321.3
81876.3
79984.9
77500.5
74231.1
69942.8
64453.3
72932.5
77935.3
77888.3
77812
77702.8
77555.5
77363.3
77116.5
76802.9
76405.8
75903.6
75267.7
74461
73435
72128.1
70463.1
68346.5
65669.4
62320.7
58233.6
62912
67898.5
67851.5
67775.2
67666.2
67519.9
67329.7
67087.1
66781
66397
65916.6
65316.3
64566.1
63628.9
62459.6
61005
59205.9
57000.4
54334.1
51181.4
52924
57894.6
57848.3
57773.2
57665.9
57522.2
57336.2
57100.4
56804.7
56437
55981.7
55419.4
54726.4
53874.3
52829.9
51556.7
50017
48174.9
46002.9
43492
42967.5
47923.2
47878.4
47805.5
47701.3
47561.7
47381.5
47154
46870.5
46520.7
46091.3
45566.6
44927.5
44151.6
43214.5
42090.4
40755.6
39189.9
37379.4
35320.3
33041.1
37983.3
37941.3
37871.9
37771.7
37637.1
37463.7
37245.4
36975
36643.2
36239.4
35750.3
35160
34450.1
33601.2
32594.8
31417.4
30060.3
28518.4
26787.6
23141.2
28073.4
28036.4
27972.1
27876.6
27747.5
27581.2
27372.4
27114.8
26800.8
26421.5
25965.8
25419.9
24767.1
23988.7
23070.1
22009.4
20813.3
19481.1
18007.8
13258.8
18192
18164.5
18105.9
18015
17891.6
17732.9
17534
17289.2
16993
16638.5
16216.7
15715.3
15116.6
14397.4
13546
12571.2
11497.5
10332.7
9058.98
3357.91
8339.15
8326.73
8274.11
8188.08
8070.65
7919.38
7727.83
7491.72
7206.45
6866.99
6467
5999.8
5446.88
4744.26
3906.72
3028.15
2216.05
1528.34
990.58
-430.203
269.835
269.365
242.89
199.967
144.783
81.3095
10.9741
-64.9235
-144.875
-227.318
-309.81
-389.922
-428.273
-427.981
-428.304
-428.072
-426.637
-421.576
-421.727
-439.278
-433.984
-433.969
-433.947
-433.929
-433.92
-433.919
-433.923
-433.93
-433.949
-433.998
-434.102
-434.29
-434.72
-435.1
-435.193
-435.113
-434.845
-434.412
-434.187
-448.923
-443.886
-443.89
-443.894
-443.902
-443.916
-443.932
-443.948
-443.963
-443.979
-443.997
-444.016
-444.024
-444.058
-444.133
-444.188
-444.221
-444.229
-444.22
-444.231
-458.7
-453.75
-453.749
-453.753
-453.76
-453.77
-453.783
-453.794
-453.804
-453.813
-453.822
-453.832
-453.839
-453.846
-453.87
-453.906
-453.945
-453.977
-454.001
-454.024
-468.513
-463.589
-463.587
-463.588
-463.592
-463.598
-463.605
-463.613
-463.62
-463.627
-463.636
-463.645
-463.655
-463.666
-463.684
-463.711
-463.742
-463.772
-463.798
-463.824
-478.337
-473.42
-473.417
-473.416
-473.417
-473.419
-473.423
-473.429
-473.436
-473.443
-473.451
-473.461
-473.471
-473.483
-473.5
-473.524
-473.55
-473.576
-473.602
-473.628
-488.161
-483.246
-483.241
-483.24
-483.238
-483.238
-483.24
-483.245
-483.252
-483.258
-483.266
-483.275
-483.287
-483.301
-483.317
-483.338
-483.361
-483.385
-483.408
-483.434
-497.979
-493.065
-493.06
-493.058
-493.057
-493.056
-493.057
-493.062
-493.068
-493.074
-493.081
-493.09
-493.102
-493.116
-493.132
-493.151
-493.171
-493.193
-493.216
-493.241
-507.786
-502.876
-502.873
-502.873
-502.873
-502.873
-502.875
-502.879
-502.885
-502.89
-502.897
-502.906
-502.918
-502.931
-502.946
-502.962
-502.98
-503
-503.023
-503.046
-517.572
-512.679
-512.681
-512.684
-512.687
-512.689
-512.691
-512.696
-512.701
-512.707
-512.713
-512.722
-512.733
-512.745
-512.758
-512.773
-512.789
-512.807
-512.828
-512.85
-527.332
-522.476
-522.489
-522.496
-522.5
-522.504
-522.507
-522.511
-522.516
-522.522
-522.529
-522.537
-522.546
-522.557
-522.569
-522.582
-522.597
-522.614
-522.633
-522.654
40408.5
39594.6
38890.7
39195.5
42433.6
47960.4
54798.9
61741.9
67629.5
71576.4
73017.9
71664.9
67192.7
58693.4
43188.2
49053.8
33698.3
29244.4
29142.2
31825.3
36699.4
42972.4
49450.1
54971.9
58649.8
59939.1
58569.5
54321.4
46830.6
35857.4
58172
39405.2
28697.8
24802.7
25460.6
29175.9
34531.4
40167.9
44906.3
47936.7
48837
47464.6
43812.6
37986.6
30419.4
60022.6
47864.1
37758
31401.6
28867.7
29411.4
31973.9
35158.1
37872.1
39430.5
39483.9
37921.4
34783.2
30250.4
24717.7
57693.5
49694.2
42314.8
36628.1
33047
31444
31340.6
31937.2
32494.5
32497.9
31631.2
29750.6
26853.5
23071.6
18681.9
53323.8
47569.1
41994.3
37206.6
33530.1
30998.3
29406.5
28367.7
27455
26312.5
24693.5
22466.2
19608.8
16202.1
12415.4
47479.5
43129.5
38753.7
34702.5
31202.3
28338.7
26020.9
24069.4
22247
20331.5
18155.5
15615.8
12668.9
9341.73
5788.53
40587.7
37167.1
33629.2
30173
26957.5
24046.3
21420.7
18998.3
16654.9
14252.8
11667.4
8810.15
5678.68
2494.65
415.629
32961.1
30175.9
27237.9
24263.5
21344.9
18535.1
15841.1
13217.5
10573.1
7807.71
4926.02
2117.4
280.233
-403.986
-369.531
24815.2
22477.3
19987
17405.3
14774.2
12120
9433.98
6677.79
3893
1448.57
-60.6378
-395.055
-383.659
-387.069
-386.85
16336.1
14341.1
12179.4
9857.2
7396.89
4837.2
2406.89
768.031
-405.482
-394.757
-391.904
-396.22
-396.333
-396.106
-396.08
7565.87
5734.62
3815.02
2032.2
754.72
-332.707
-422.993
-398.64
-404.464
-406.546
-405.686
-405.637
-405.699
-405.751
-405.794
335.938
-284.028
-431.278
-415.304
-411.234
-414.171
-416.673
-415.499
-415.259
-415.332
-415.348
-415.395
-415.444
-415.494
-415.551
-422.659
-423.986
-426.024
-425.629
-424.96
-424.956
-424.998
-425.018
-425.043
-425.082
-425.121
-425.168
-425.22
-425.271
-425.321
-434.343
-434.497
-434.557
-434.639
-434.657
-434.709
-434.745
-434.782
-434.821
-434.864
-434.909
-434.953
-434.997
-435.044
-435.092
-444.272
-444.308
-444.341
-444.384
-444.428
-444.478
-444.525
-444.567
-444.606
-444.646
-444.691
-444.735
-444.777
-444.82
-444.865
-454.056
-454.093
-454.13
-454.173
-454.217
-454.264
-454.31
-454.352
-454.392
-454.432
-454.474
-454.517
-454.558
-454.599
-454.642
-463.854
-463.89
-463.927
-463.968
-464.01
-464.054
-464.098
-464.139
-464.179
-464.219
-464.26
-464.302
-464.342
-464.383
-464.423