/*--------------------------------*- C++ -*----------------------------------*\
| =========                 |                                                 |
| \\      /  F ield         | OpenFOAM: The Open Source CFD Toolbox           |
|  \\    /   O peration     | Version:  v1912                                 |
|   \\  /    A nd           | Website:  www.openfoam.com                      |
|    \\/     M anipulation  |                                                 |
\*---------------------------------------------------------------------------*/
FoamFile
{
    version     2.0;
    format      ascii;
    class       volScalarField;
    location    "34";
    object      p_rgh;
}
// * * * * * * * * * * * * * * * * * * * * * * * * * * * * * * * * * * * * * //

dimensions      [1 -1 -2 0 0 0 0];


internalField   nonuniform List<scalar> 
20320
(
434788
434863
434890
434941
435013
435101
435203
435318
435442
435572
435706
435839
435970
436094
436209
436313
436403
436477
436532
436567
434675
434774
434808
434862
434935
435024
435127
435242
435366
435497
435631
435765
435895
436020
436135
436237
436325
436396
436447
436477
434451
434590
434625
434680
434753
434842
434945
435061
435185
435315
435449
435582
435711
435835
435948
436049
436136
436205
436255
436288
434143
434322
434356
434411
434483
434571
434674
434788
434912
435041
435173
435305
435433
435554
435665
435765
435849
435918
435968
436004
433763
433976
434010
434063
434134
434221
434322
434435
434557
434684
434814
434944
435070
435188
435297
435394
435477
435545
435596
435635
433320
433562
433596
433647
433717
433802
433900
434010
434129
434254
434381
434508
434631
434747
434852
434946
435027
435093
435144
435185
432824
433091
433123
433173
433240
433322
433417
433523
433638
433758
433881
434004
434122
434234
434336
434426
434503
434566
434617
434660
432286
432573
432603
432650
432713
432791
432881
432982
433090
433205
433321
433438
433550
433656
433752
433836
433908
433967
434016
434059
431714
432015
432044
432087
432146
432218
432301
432394
432495
432600
432707
432814
432917
433014
433101
433177
433242
433295
433341
433383
431118
431429
431454
431494
431546
431610
431685
431768
431857
431950
432045
432138
432228
432311
432385
432448
432501
432545
432585
432624
430507
430823
430845
430878
430923
430978
431041
431111
431185
431262
431338
431413
431482
431545
431599
431644
431680
431709
431739
431772
429888
430205
430223
430250
430285
430328
430377
430430
430485
430540
430592
430641
430682
430716
430740
430756
430765
430773
430786
430807
429272
429585
429597
429616
429641
429670
429701
429734
429765
429792
429813
429825
429828
429820
429801
429773
429741
429712
429700
429699
428665
428970
428977
428987
428999
429012
429023
429031
429032
429024
429005
428971
428921
428854
428772
428678
428581
428494
428437
428399
428075
428368
428368
428369
428367
428362
428350
428330
428297
428247
428178
428085
427965
427817
427643
427450
427251
427070
426936
426828
427508
427786
427780
427770
427753
427729
427692
427641
427569
427472
427343
427177
426968
426712
426411
426070
425709
425366
425094
424858
426969
427229
427217
427196
427165
427120
427058
426973
426860
426710
426514
426263
425946
425552
425077
424521
423905
423282
422748
422265
426463
426704
426685
426654
426608
426543
426455
426337
426181
425976
425709
425365
424923
424365
423667
422813
421804
420693
419628
418597
425993
426213
426188
426147
426087
426004
425891
425741
425544
425286
424948
424509
423937
423195
422235
421001
419432
417504
415331
412921
425560
425759
425729
425679
425606
425506
425371
425193
424959
424652
424250
423723
423027
422106
420877
419220
416958
413830
409485
403285
121195
121901
121643
121210
120877
120772
120966
121351
121729
121632
120294
118639
116834
113820
111310
110595
110766
109861
108579
108764
109636
108834
108808
110607
259207
219433
157275
114261
83498.2
61537.7
48494.3
41083.7
37283.5
34415.2
32729
31712.4
31082
30666.4
30369.1
30143.6
30042.8
29822
29750.8
29914
29992.5
30194.3
29843.8
29713
29982.4
30483.4
30442.7
30285.4
30087.9
29918.5
29784.9
29675.1
29586.1
29519.6
29475.5
29452.2
120644
121326
121170
120865
120631
120600
120929
121515
122264
122952
123273
118570
117599
113995
109994
109538
109464
109194
108403
108245
107949
108115
108246
110658
202611
184719
143607
107566
79077.9
59912
49121.5
42955.6
37934.1
34856.4
33019.3
31907.7
31202
30719.3
30364.6
30094.8
29933.8
29860.4
29894.7
29946.4
29962.2
30023.4
30302
30535.7
30708.9
30634.5
30563.5
30398.2
30184
29992.7
29838.3
29714.3
29616
29540.9
29491.1
29461.3
117964
120834
119637
119414
119294
119622
119413
120084
120971
123439
124772
121671
115786
117444
109582
109551
109463
109251
108635
108271
108029
108035
108153
131201
167370
158804
129386
99465.4
75031.9
57895.9
47619.6
41680.1
37575.2
34840.2
33114.6
32031.3
31319.6
30812.1
30420.8
30113.1
29898.7
29833.9
29874.6
29939.4
29984.9
30054.4
30238.1
30519.3
30727
30751.6
30685.2
30509.3
30268.7
30061.4
29890.3
29750.8
29642
29559.2
29508
29475.9
117454
118286
119104
121035
120600
120608
121041
121634
122713
123919
123311
127092
127696
110380
109545
109559
109493
109363
116154
109299
107920
108039
118283
131606
139928
134722
113207
88944.9
68482.2
53951.6
44961.4
39757.5
36448.1
34268.2
32843.3
31917.4
31286
30814.3
30428.3
30110.2
29881.2
29811.7
29843.1
29912.8
29993.8
30108.3
30289.7
30521
30729.8
30823.6
30785.5
30589.2
30299.6
30093.6
29919.8
29768.9
29653.3
29562.7
29516
29489.9
119326
121802
121447
118910
119474
120511
120611
121213
122391
123656
125253
127887
118174
109875
109534
109539
109520
116613
129525
109302
107598
111324
124202
118685
118772
112579
95811.4
76248.1
59694.8
48203.7
41130
37112.4
34724.8
33239.3
32243.6
31577
31104.1
30725.8
30367.8
30050.9
29786.6
29739.4
29776
29853.7
29972.2
30135.5
30316.9
30492.6
30714.5
30895.7
30900.7
30657.5
30266.7
30098.3
29939.7
29777.5
29655.9
29552
29518.1
29510.2
121541
121679
121196
118668
119462
119401
119510
120476
121768
123478
125688
128347
125265
109467
109531
109530
109541
131218
126850
103521
106733
125290
114113
106147
100824
92520.2
78016.7
61847.2
48677
40428.3
35814.2
33451.4
32279.9
31679.9
31280.3
30999.9
30792.6
30518.5
30328.4
30041.5
29475.7
29211.2
29220.9
29320.5
29538.8
29866.3
30333.5
30440
30699.9
31034
31126.2
30780
30069.1
30081.1
29949.3
29691.7
28737.8
26995.1
26962.1
27053.1
121467
121511
114600
117931
120464
118240
117132
114958
115765
118999
124934
127979
133487
138821
128118
129787
133544
135811
104781
103088
130214
115959
104115
93805.1
84805.1
74277.8
59733.6
44931.1
30599.3
18944.3
11401
7975.49
5640.24
3739.58
1729.48
95.9975
20.0722
18.2214
17.1189
15.8464
15.9868
14.9913
13.655
12.9073
12.5713
64.8638
307.923
911.421
1236.37
1141.66
756.658
202.642
15.3664
16.0018
16.6061
17.727
17.604
18.1458
18.8169
19.5374
121688
121466
120584
121079
120275
119592
119109
119836
120356
122129
123913
126594
130762
138313
142549
142121
139264
120666
102858
129542
120219
107185
94114.8
81826.6
70145.2
56195.9
24569.3
89.0226
67.0148
56.2309
46.867
39.8407
34.7342
30.9134
28.3731
29.6091
25.4202
23.2699
21.3267
19.6063
18.2889
16.953
15.5172
13.9859
11.6013
7.99926
7.46617
8.46034
9.04125
9.02203
10.1039
16.4012
16.984
15.9603
15.9642
16.3664
16.6851
17.1958
17.8262
18.5318
122212
116774
121442
120890
119942
119099
116979
116078
114433
120695
122435
125020
129067
134876
140077
145653
151436
110195
131021
125895
112568
98566.1
84312.1
70280.1
55025.7
2519.07
86.8588
72.0281
60.3359
48.7738
39.9961
33.514
29.0354
26.2715
25.0696
26.3452
25.0726
22.9131
21.0223
19.3337
17.9384
16.5965
15.174
13.6236
11.6365
9.0674
7.79327
7.83716
8.21312
8.71962
10.1546
13.8768
15.533
15.5072
15.6276
15.9599
16.3133
16.8387
17.5114
18.3074
123015
104768
121867
120771
119702
115829
114209
118136
118969
111917
115401
122834
126088
120135
134081
147404
122210
133651
137212
121179
105656
90284.7
74757.3
58216.8
70.8155
67.9826
68.8824
60.137
50.3056
41.8667
35.2594
30.3177
26.8633
24.7268
23.7721
24.2954
23.8235
22.4102
20.7851
19.2085
17.7842
16.4254
15.0049
13.4443
11.5914
9.48232
8.14159
7.849
8.11597
8.73166
10.1129
12.713
14.358
14.8147
15.085
15.415
15.8144
16.3697
17.0856
17.9607
124161
103821
122309
120387
119494
114009
114945
109606
114704
118865
119834
120674
110446
121888
133731
122345
116680
152461
132246
115992
99042.5
82254.5
64873.6
332.472
66.8936
60.808
54.5739
47.83
41.1348
35.2259
30.4816
26.8901
24.376
22.8395
22.1951
22.4647
22.3756
21.5027
20.2189
18.8373
17.4947
16.1577
14.7569
13.2401
11.5463
9.75652
8.45611
7.96268
8.09192
8.69067
9.90919
11.8258
13.3224
14.0225
14.4378
14.8191
15.2649
15.8531
16.6042
17.5521
124595
113267
122859
121125
102285
115439
117473
117140
117171
117383
117831
117640
120837
123047
109151
93918.6
158207
145619
128277
110635
92467.4
73774.2
5124.88
58.6881
55.7002
48.4087
42.8
37.9207
33.2604
29.1816
25.9271
23.503
21.8614
20.9114
20.5745
20.7969
20.884
20.3863
19.4416
18.2904
17.0679
15.7991
14.4544
13.0128
11.4687
9.91264
8.70436
8.12041
8.13701
8.65293
9.6786
11.1457
12.431
13.2242
13.7321
14.169
14.6656
15.2813
16.0585
17.0386
111874
125663
123777
104522
112084
119002
113163
115401
115695
115255
113782
115952
116613
118389
53496.3
76213.7
151002
139062
123128
104966
85246.7
17640.8
49.07
47.7722
43.1028
37.8871
33.5904
30.004
26.7391
23.973
21.8551
20.3803
19.4741
19.0309
18.9772
19.2369
19.4154
19.1761
18.5224
17.6002
16.5298
15.3585
14.0998
12.7615
11.3629
9.99129
8.88969
8.28266
8.20962
8.61071
9.44049
10.5843
11.6704
12.4499
13.0014
13.4867
14.0198
14.6583
15.452
16.4601
129831
127015
116225
97397.2
122151
118069
107864
106632
114219
113506
113503
113497
113081
50967.9
49298.9
124552
142020
132199
117405
98893.5
56618.7
61.1869
44.8084
38.3436
33.4807
29.4637
26.3482
23.7222
21.4421
19.6414
18.3883
17.6429
17.3064
17.264
17.4422
17.7682
18.0162
17.9545
17.5286
16.8142
15.9001
14.8543
13.7084
12.4882
11.2278
10.0123
9.01975
8.42196
8.27823
8.55788
9.20449
10.0967
10.9876
11.7052
12.2676
12.7815
13.3379
13.9943
14.801
15.8095
131570
128128
105229
125577
123157
120133
117226
115030
112977
111910
111719
111145
109753
33745
37087.5
133250
133601
125678
111737
91794
119.899
40.112
36.5245
30.1435
25.922
22.9084
20.6064
18.7077
17.2007
16.1437
15.5392
15.327
15.4024
15.6542
16.0104
16.4098
16.7164
16.7749
16.5172
15.9773
15.2214
14.3088
13.286
12.1893
11.0614
9.98398
9.09215
8.5186
8.3207
8.48693
8.96439
9.64801
10.3695
11.0043
11.5502
12.0714
12.6354
13.2995
14.113
15.1282
133349
128382
128276
120127
124906
121407
117610
114435
109283
76740.7
63319.6
69565.3
22162.2
27573.6
57407
128815
127741
120302
106422
20911.3
34.4019
34.7251
28.3281
23.2888
19.932
17.6825
16.0136
14.7489
13.8708
13.3806
13.2509
13.4143
13.7727
14.2279
14.7126
15.1743
15.5273
15.6664
15.5307
15.1329
14.5162
13.7348
12.837
11.8604
10.8559
9.90234
9.10277
8.55821
8.32238
8.39357
8.72802
9.24141
9.81351
10.3594
10.868
11.3725
11.927
12.5863
13.3976
14.4069
135074
129980
125917
74969.1
126699
123485
118756
113689
20188.4
14978.4
13782.4
13916.7
19215.2
24580.6
101887
128111
124272
116611
101510
76.3728
30.2739
26.257
21.1698
17.4469
15.0183
13.4662
12.3894
11.6701
11.2877
11.2232
11.435
11.856
12.4009
12.9877
13.5567
14.0616
14.4459
14.637
14.5878
14.3008
13.8055
13.1447
12.3626
11.5007
10.6131
9.77056
9.05332
8.54119
8.282
8.2781
8.49433
8.86662
9.31302
9.77022
10.2219
10.6917
11.2228
11.8632
12.6613
13.6631
136106
91038.3
106421
86149.8
125119
100614
121073
45411.1
15686.3
15386.6
32123.1
24971.5
19507.3
19675.5
125636
126996
122831
114544
22671.3
23.1792
23.3473
18.6624
15.0527
12.5006
11.0042
10.1081
9.55248
9.28765
9.29567
9.54681
9.99855
10.5921
11.2545
11.9188
12.5345
13.0621
13.4618
13.6843
13.6959
13.494
13.0983
12.5432
11.8683
11.1155
10.3364
9.59276
8.95101
8.47376
8.20178
8.14066
8.26306
8.52165
8.85851
9.22576
9.61167
10.0344
10.5291
11.1404
11.9142
12.8982
131760
97743.3
79045.9
124822
74330.2
130609
125200
31715.3
15987
48386.1
33132.3
14039.4
14529.1
20044.2
130069
127517
123021
114074
76.6754
16.1678
15.4511
12.3694
9.93383
8.49874
7.80095
7.45742
7.34404
7.44859
7.75646
8.23843
8.85674
9.5612
10.2919
10.9937
11.6259
12.158
12.5604
12.7999
12.853
12.7155
12.402
11.9395
11.363
10.7118
10.0325
9.37893
8.80677
8.36572
8.08924
7.98459
8.03152
8.19506
8.43619
8.71843
9.03472
9.4026
9.85185
10.4248
11.1666
12.1249
128129
112384
65158.8
136543
62926.6
131905
78551.4
74599.8
18415.9
49665.5
12968.7
13627
13987
92555.2
131710
129365
124583
60057.6
2.02097
10.8071
9.0969
7.25548
5.92691
5.39683
5.2945
5.38518
5.62767
6.02324
6.55768
7.20595
7.93648
8.70683
9.46905
10.1799
10.8079
11.3311
11.7278
11.9747
12.0563
11.9691
11.7236
11.3422
10.8545
10.2961
9.70811
9.13724
8.62942
8.22491
7.95037
7.81255
7.79879
7.88401
8.04134
8.24546
8.4925
8.80058
9.19789
9.72523
10.4277
11.3523
68519.5
36312.8
116125
80091.5
71654
60391.1
71389.1
97506.1
74913.9
13702.4
12644
13849.6
13752.8
132244
134762
132351
127277
7963.42
8.0475
5.37577
4.38072
3.37924
2.96355
3.05714
3.3649
3.77925
4.29626
4.91217
5.61232
6.37653
7.17735
7.97933
8.7459
9.44595
10.057
10.5636
10.95
11.1994
11.3022
11.2553
11.0666
10.7563
10.3488
9.87461
9.37017
8.87509
8.42693
8.05774
7.78965
7.62816
7.56599
7.58644
7.67133
7.80472
7.98494
8.2316
8.57306
9.04942
9.70681
10.5892
11405.8
18645.8
47543
13205.8
35618.2
144134
132627
44645.5
106013
23283.2
12410.1
13032.4
15152.4
140004
138998
136291
131461
17.9526
1.12402
1.49691
0.923199
0.652405
0.853207
1.32691
1.90159
2.54911
3.2666
4.04081
4.85578
5.69382
6.53064
7.33774
8.08874
8.76564
9.35389
9.84148
10.2161
10.4662
10.586
10.5728
10.4335
10.186
9.85014
9.45238
9.02387
8.59731
8.20407
7.86928
7.61071
7.43349
7.33357
7.30122
7.32427
7.39384
7.51155
7.69807
7.98292
8.40551
9.01217
9.84416
11436.1
14326.8
10991.5
15874.7
12626.8
29500.1
133009
143958
143834
68105.2
12085.7
12907.7
111648
145855
144146
140992
52804.2
-9.70363
-1.22359
-1.403
-1.41752
-1.17615
-0.619038
0.0665324
0.811644
1.61789
2.47051
3.34953
4.23721
5.11468
5.95968
6.75116
7.47452
8.12227
8.68478
9.15385
9.51796
9.76854
9.90347
9.9202
9.82513
9.63325
9.36069
9.03124
8.67102
8.30682
7.96401
7.66232
7.4158
7.22962
7.10171
7.02786
6.99936
7.01225
7.07302
7.20231
7.43113
7.79899
8.34954
9.12278
12886.2
11400.5
13865.4
11979.5
10724.8
10704.5
10729.7
19128.1
12018
11340.6
11732.1
11661.5
154438
152169
149851
146399
4744.15
-0.679289
-3.49997
-3.18635
-2.91819
-2.36675
-1.63145
-0.832912
0.0166404
0.918798
1.85249
2.79236
3.71771
4.60664
5.4364
6.19761
6.8881
7.50517
8.04266
8.49442
8.84951
9.10246
9.25245
9.29659
9.24067
9.09765
8.8818
8.61311
8.31317
8.0053
7.70863
7.43848
7.20639
7.01756
6.87121
6.76576
6.69604
6.66099
6.67096
6.74759
6.92203
7.23356
7.72294
8.42975
10960.4
15021.4
16557.7
10873.3
10743.5
10714.2
10738.5
10757
10962.2
11168.8
11420.2
56594.1
160638
158643
155886
152887
-2.64295
-5.24629
-4.65333
-4.30388
-3.81873
-3.11447
-2.30712
-1.45557
-0.553934
0.3947
1.36579
2.33118
3.2608
4.12895
4.92952
5.66053
6.32205
6.91193
7.42737
7.86306
8.21082
8.46767
8.63199
8.70124
8.67988
8.58057
8.41523
8.19964
7.95297
7.69458
7.4391
7.19976
6.98492
6.79878
6.64221
6.51449
6.41341
6.34079
6.30809
6.33782
6.46043
6.7136
7.13613
7.7675
10565.9
11992
10619.9
10711
10733.5
11772
10684
10715.7
11186.8
11154.1
11271.4
154730
167174
165176
162186
52714
-10.7897
-5.75226
-5.37673
-4.8853
-4.29908
-3.54829
-2.73176
-1.87086
-0.95727
-0.00201427
0.970791
1.92095
2.81835
3.65421
4.42631
5.13207
5.77139
6.34264
6.84327
7.26667
7.60833
7.8678
8.04388
8.1348
8.14429
8.08372
7.96235
7.7927
7.59272
7.37753
7.15937
6.94931
6.75337
6.57472
6.4143
6.27324
6.15121
6.05183
5.98696
5.97723
6.05122
6.24452
6.59332
7.13816
10562
10550
10575.1
10708.2
13115.2
10614.5
10647.9
10685.2
11162.6
10780.3
14686.8
175558
174097
171885
168955
1896.95
-4.94964
-6.24832
-5.57444
-5.10798
-4.49241
-3.75576
-2.96937
-2.13315
-1.24173
-0.309685
0.632403
1.54195
2.40003
3.20151
3.94467
4.62607
5.24437
5.79911
6.28717
6.70247
7.0419
7.30501
7.49085
7.599
7.63504
7.60798
7.52476
7.39539
7.23531
7.05789
6.87403
6.69131
6.51432
6.34639
6.18794
6.04213
5.90963
5.79472
5.70861
5.6681
5.69867
5.83169
6.09865
6.54209
10557.4
10552.1
10557.9
11952.1
11661.2
10581.7
10619.4
10664.2
11013.4
10759.4
158948
182781
181238
178774
164529
-19.8931
-6.57756
-6.12506
-5.56781
-5.10038
-4.49565
-3.80564
-3.07274
-2.28693
-1.44115
-0.548452
0.34484
1.20477
2.01956
2.78475
3.49623
4.15167
4.74818
5.28601
5.76102
6.16888
6.5063
6.77281
6.96876
7.09325
7.15354
7.15587
7.10525
7.01021
6.88414
6.74023
6.58716
6.43001
6.27231
6.1168
5.96579
5.82351
5.68939
5.56907
5.47235
5.41055
5.40555
5.48086
5.6583
5.97885
10552.1
10557.4
10546.8
13130.7
10529.4
10573.9
10598.6
10843.4
10666
10365.4
191436
190371
188552
185836
38012.1
-2.61966
-6.60372
-5.84149
-5.3965
-4.94712
-4.37633
-3.74955
-3.0845
-2.36285
-1.5665
-0.727834
0.104715
0.908141
1.67713
2.40314
3.08208
3.71021
4.28451
4.80423
5.26554
5.66494
5.99938
6.26924
6.47445
6.61354
6.69591
6.72619
6.70505
6.63967
6.54353
6.42965
6.30375
6.17027
6.03238
5.8915
5.75276
5.61996
5.49148
5.37394
5.27533
5.20281
5.17352
5.19993
5.28582
5.45242
10640.1
10546.8
10559
10522.7
10519.1
10545.9
10558.1
10735.5
10651.7
171939
199339
198091
195958
193481
5.92385
-7.15418
-5.93388
-5.4266
-5.12186
-4.70332
-4.18236
-3.62762
-3.03599
-2.37367
-1.63039
-0.85973
-0.0951504
0.651262
1.37154
2.05624
2.70163
3.30089
3.85197
4.35254
4.80043
5.19062
5.52063
5.79209
6.00465
6.15867
6.26111
6.31479
6.32016
6.28387
6.21679
6.1297
6.02746
5.91614
5.79834
5.67479
5.55224
5.4328
5.31594
5.20772
5.1142
5.04186
5.00295
4.9984
5.00736
4.97833
10635.9
10546
10538.3
10524.6
10517.7
10522.9
10559.3
10585.9
12501.6
208575
207540
205858
203414
109894
-16.0045
-5.66992
-5.32628
-5.02231
-4.79423
-4.40239
-3.94503
-3.46752
-2.94506
-2.32731
-1.65232
-0.957251
-0.259329
0.430077
1.1004
1.7432
2.35381
2.92332
3.44963
3.9312
4.36483
4.74446
5.06977
5.34183
5.55973
5.72608
5.84576
5.92035
5.94937
5.93898
5.90016
5.83933
5.75938
5.66922
5.57178
5.46771
5.36363
5.2612
5.16065
5.06667
4.98555
4.9236
4.89069
4.88322
4.87146
4.74931
10777.7
10540.9
10534.5
10526.2
10519
10517.4
10557.2
10560.9
190862
217019
215679
213628
211050
11616.7
-1.7527
-5.19599
-4.77429
-4.64058
-4.41879
-4.06544
-3.68601
-3.2886
-2.81376
-2.25508
-1.65135
-1.02627
-0.39185
0.240909
0.861917
1.46355
2.03761
2.57611
3.07669
3.53883
3.95695
4.32599
4.64636
4.91716
5.13838
5.31413
5.44778
5.53942
5.58925
5.60328
5.58996
5.55331
5.4973
5.42888
5.35165
5.26839
5.18451
5.10194
5.02054
4.94474
4.88269
4.83959
4.82585
4.84243
4.87906
4.94079
11086.6
10542.8
10533.7
10528
10522.6
10520.1
10530.8
30502.3
226692
225533
223762
221394
207684
-17.2371
-5.0152
-4.65926
-4.3498
-4.23533
-4.00815
-3.7175
-3.42401
-3.09419
-2.66405
-2.1674
-1.63276
-1.0727
-0.497959
0.0801262
0.65355
1.21387
1.7507
2.25698
2.73177
3.1737
3.57575
3.93383
4.24799
4.51592
4.7389
4.92143
5.06566
5.17128
5.23914
5.27491
5.28455
5.26988
5.23655
5.19111
5.1356
5.07386
5.01135
4.94992
4.88894
4.83446
4.79492
4.77531
4.78789
4.83838
4.93253
5.10792
10547.2
10779.9
10529.2
10529.6
10526.9
10531.6
10540.4
219131
235374
233901
231822
229253
35954.3
-0.416818
-4.74323
-4.0565
-3.91258
-3.80211
-3.59891
-3.38419
-3.17085
-2.87948
-2.5039
-2.07267
-1.6018
-1.10152
-0.582789
-0.0563506
0.471189
0.989659
1.48917
1.96427
2.41444
2.83528
3.22034
3.56651
3.87276
4.1364
4.35991
4.54721
4.69934
4.81641
4.89962
4.95368
4.98258
4.98767
4.97571
4.95198
4.9187
4.8794
4.83855
4.79851
4.75901
4.72693
4.70916
4.71229
4.74916
4.82649
4.9556
5.15811
10618.6
10652.3
10525.1
10530.9
10530
10558.2
98891.6
245241
244022
242197
239872
237826
-2.40034
-3.62883
-3.83283
-3.55583
-3.49665
-3.38214
-3.22631
-3.08813
-2.92302
-2.67284
-2.35049
-1.97705
-1.56346
-1.11875
-0.652175
-0.173196
0.310313
0.787747
1.25146
1.69696
2.12239
2.52124
2.88806
3.2212
3.51862
3.77711
4.00012
4.19051
4.34875
4.47465
4.57049
4.63977
4.68453
4.70771
4.71488
4.7105
4.69663
4.67744
4.65886
4.64078
4.62308
4.6121
4.61245
4.63151
4.68079
4.76385
4.8853
5.03354
11808.1
10729.6
10518.1
10531.5
10541.8
10324.2
255321
254137
252551
250474
247998
64065.4
-5.74357
-3.45109
-3.24335
-3.16548
-3.11993
-3.00961
-2.91068
-2.83153
-2.68984
-2.47976
-2.20779
-1.88566
-1.52285
-1.12858
-0.709917
-0.27559
0.165941
0.605316
1.03484
1.45124
1.85135
2.22808
2.57721
2.89634
3.1838
3.43596
3.65735
3.84978
4.01285
4.14589
4.25183
4.33369
4.39212
4.43128
4.45448
4.46602
4.46868
4.46619
4.46552
4.46814
4.47239
4.48003
4.49348
4.51921
4.56618
4.63214
4.70766
4.77474
11827
10488.5
10506
10524.9
10509.8
249657
264274
262881
261022
258767
256777
4.36299
-4.11265
-3.30403
-2.88257
-2.84138
-2.77624
-2.69605
-2.65249
-2.59504
-2.48154
-2.30764
-2.07799
-1.79993
-1.48216
-1.13271
-0.7583
-0.365923
0.036444
0.43987
0.836546
1.224
1.59896
1.95407
2.28555
2.59028
2.86692
3.11197
3.33111
3.52428
3.69
3.82935
3.94364
4.03554
4.10554
4.15799
4.19497
4.22011
4.23614
4.24741
4.26111
4.27715
4.29733
4.32038
4.34386
4.37213
4.41156
4.45918
4.50957
4.5623
11388.1
10471.8
10496
10497.1
233844
274488
273155
271523
269523
267170
70119.6
-5.26715
-3.45016
-2.87393
-2.61297
-2.54288
-2.47914
-2.44471
-2.43681
-2.39386
-2.30332
-2.15836
-1.96331
-1.723
-1.44412
-1.13396
-0.799086
-0.445794
-0.080745
0.288535
0.653943
1.01354
1.36337
1.69743
2.01156
2.30266
2.5675
2.80533
3.02089
3.21284
3.38033
3.52466
3.64495
3.74414
3.82419
3.88746
3.93614
3.97307
4.00021
4.02329
4.04891
4.07482
4.10302
4.13249
4.16148
4.19338
4.23075
4.27189
4.3155
4.36091
10430.3
10443.3
10477.6
249383
284673
283424
281968
280183
278069
276381
-2.89981
-3.60783
-3.04325
-2.52254
-2.35081
-2.27806
-2.24727
-2.25334
-2.25199
-2.22301
-2.15052
-2.02918
-1.86239
-1.6534
-1.40826
-1.13393
-0.834772
-0.517466
-0.186471
0.150379
0.485847
0.818724
1.14462
1.45821
1.75465
2.03176
2.28427
2.51552
2.72661
2.91615
3.08414
3.23072
3.35519
3.45923
3.54693
3.61856
3.67679
3.72422
3.76235
3.79624
3.8305
3.86381
3.89645
3.9295
3.9622
3.99681
4.03409
4.07105
4.10812
4.14534
70116.6
46247.1
295783
294955
293758
292474
290931
289027
286810
40621.1
-3.97178
-3.45091
-2.645
-2.2933
-2.14958
-2.09956
-2.09438
-2.10648
-2.10897
-2.08455
-2.02204
-1.91814
-1.7734
-1.59069
-1.37577
-1.13335
-0.866983
-0.582399
-0.282799
0.0236186
0.330818
0.638038
0.941181
1.23419
1.51309
1.77502
2.01626
2.24061
2.44677
2.63347
2.80006
2.94671
3.07333
3.18012
3.27314
3.35181
3.41817
3.47473
3.52284
3.56617
3.60681
3.64552
3.68125
3.71684
3.75268
3.7886
3.82583
3.86041
3.89309
3.92423
425166
425344
425309
425251
425168
425053
424900
424698
424433
424086
423631
423031
422234
421165
419709
417681
414763
410337
402974
389366
424802
424965
424926
424862
424769
424643
424474
424253
423965
423588
423094
422444
421580
420416
418821
416581
413317
408285
399959
385080
424465
424612
424570
424501
424402
424266
424086
423851
423546
423149
422633
421956
421062
419865
418240
415992
412804
408146
401149
390340
424158
424289
424245
424172
424067
423925
423738
423494
423179
422774
422250
421570
420681
419509
417947
415843
412974
409015
403493
395834
423883
423997
423951
423876
423768
423622
423431
423183
422866
422461
421944
421279
420423
419314
417869
415977
413493
410224
405935
400446
423640
423738
423691
423615
423505
423358
423166
422919
422605
422208
421706
421070
420263
419237
417931
416266
414149
411472
408123
404036
423430
423511
423464
423388
423279
423132
422942
422700
422393
422009
421529
420929
420179
419241
418072
416618
414818
412613
409947
406794
423251
423317
423271
423196
423088
422945
422759
422523
422227
421860
421404
420842
420149
419297
418252
416979
415439
413597
411425
408915
423105
423156
423111
423038
422934
422794
422614
422386
422103
421753
421324
420799
420160
419384
418447
417323
415988
414422
412612
410553
422989
423026
422984
422914
422814
422680
422506
422288
422017
421686
421282
420793
420202
419493
418644
417637
416460
415103
413561
411830
422899
422926
422889
422825
422729
422600
422434
422225
421967
421653
421274
420818
420272
419620
418841
417923
416862
415666
414334
412860
422826
422854
422827
422768
422677
422554
422395
422196
421952
421655
421301
420879
420378
419779
419060
418208
417234
416160
414995
413721
422735
422812
422799
422747
422661
422543
422392
422200
421964
421679
421339
420940
420472
419919
419208
414981
400700
372689
329186
256138
-1.0159
122052
122413
117937
110483
100746
89518.5
77093.1
63732.7
49715.7
35273.3
20727.4
6353.22
-3.9908
-3.69851
-4.02157
-3.78983
-2.35441
2.70684
2.55576
-0.280237
0.108271
0.123493
0.145055
0.16315
0.172397
0.173759
0.16988
0.162047
0.143878
0.0948565
-0.00960824
-0.197853
-0.627325
-1.008
-1.1006
-1.02081
-0.752683
-0.319231
-0.0948247
-0.115876
0.0162284
0.0124156
0.00841249
0.000152928
-0.0131051
-0.0293515
-0.0458704
-0.0609184
-0.0761717
-0.0947255
-0.113073
-0.121497
-0.155639
-0.230417
-0.285563
-0.318812
-0.326776
-0.317328
-0.328094
-0.0821207
-0.0374543
-0.0368258
-0.0402172
-0.0473744
-0.0578498
-0.0701248
-0.081904
-0.0915787
-0.100122
-0.109528
-0.119353
-0.126279
-0.133285
-0.157304
-0.193326
-0.23223
-0.264794
-0.288431
-0.311725
-0.0857565
-0.0665753
-0.0646267
-0.0657234
-0.0693168
-0.0751367
-0.082674
-0.0906548
-0.0978909
-0.104899
-0.113281
-0.122903
-0.13215
-0.143013
-0.161579
-0.188796
-0.219887
-0.249341
-0.275631
-0.301792
-0.0994053
-0.087877
-0.0844702
-0.0837233
-0.084223
-0.0860582
-0.090102
-0.096326
-0.103243
-0.110179
-0.118241
-0.128007
-0.138703
-0.150961
-0.167948
-0.191163
-0.217765
-0.243917
-0.269039
-0.295132
-0.113066
-0.103004
-0.0987612
-0.0970333
-0.0957653
-0.0950969
-0.0970008
-0.102364
-0.109236
-0.115896
-0.123222
-0.132843
-0.144666
-0.158207
-0.174726
-0.195332
-0.218604
-0.242198
-0.266
-0.291319
-0.121786
-0.112034
-0.107163
-0.105603
-0.104318
-0.103309
-0.104691
-0.109441
-0.115736
-0.121751
-0.128357
-0.137599
-0.149856
-0.163984
-0.179853
-0.198172
-0.218593
-0.24035
-0.263517
-0.288343
-0.118089
-0.113613
-0.110162
-0.110167
-0.110329
-0.110522
-0.112393
-0.11681
-0.122476
-0.127998
-0.134273
-0.143212
-0.155149
-0.168776
-0.183423
-0.199583
-0.21765
-0.237775
-0.26002
-0.283943
-0.0940845
-0.106151
-0.108832
-0.111923
-0.114389
-0.116293
-0.118906
-0.123233
-0.128706
-0.134344
-0.14072
-0.149383
-0.160407
-0.172741
-0.185946
-0.200367
-0.216548
-0.234818
-0.255303
-0.277626
-0.0443819
-0.0936204
-0.106291
-0.113198
-0.117776
-0.12121
-0.124588
-0.128823
-0.133991
-0.139642
-0.146046
-0.154013
-0.163602
-0.174468
-0.186508
-0.199905
-0.214968
-0.231929
-0.250909
-0.271783
337161
336347
335643
335948
339186
344713
351551
358494
364382
368329
369770
368417
363945
355446
339941
355616
340261
335807
335705
338388
343262
349535
356013
361534
365212
366502
365132
360884
353393
342420
374544
355778
345070
341175
341833
345548
350904
356540
361279
364309
365210
363837
360185
354359
346792
386205
374047
363941
357584
355050
355594
358156
361341
364055
365613
365666
364104
360966
356433
350900
393686
385687
378307
372621
369039
367437
367333
367930
368487
368490
367624
365743
362846
359064
354674
399126
393372
387797
383009
379333
376801
375209
374170
373257
372115
370496
368269
365411
362005
358218
403092
398742
394366
390315
386815
383951
381633
379682
377860
375944
373768
371228
368281
364954
361401
406010
402590
399052
395596
392380
389469
386843
384421
382077
379675
377090
374233
371101
363499
183121
408194
405408
402470
399496
396577
393768
391074
388450
385806
383040
380159
364626
158664
-28.7534
5.70116
409858
407520
405029
402448
399817
397163
394476
391720
388936
339387
81715.2
-10.0128
1.38331
-2.02676
-1.80762
411189
409194
407032
404710
402249
399690
387115
245226
-10.6297
0.0950601
2.94839
-1.36746
-1.4804
-1.25359
-1.22709
412228
410397
407783
370640
233626
16395.8
-18.3301
6.02266
0.198706
-1.88324
-1.02397
-0.974819
-1.03694
-1.08807
-1.13168
147000
28209.7
-16.8051
-0.831152
3.239
0.301503
-2.20076
-1.02665
-0.786581
-0.859615
-0.87583
-0.922778
-0.971405
-1.02147
-1.07829
1.62324
0.296645
-1.74187
-1.34608
-0.677483
-0.673122
-0.71505
-0.735768
-0.760207
-0.799451
-0.838088
-0.885341
-0.937274
-0.98835
-1.03848
-0.25039
-0.404905
-0.46417
-0.546627
-0.564209
-0.616779
-0.652341
-0.689939
-0.728228
-0.77143
-0.816037
-0.860048
-0.904501
-0.951309
-0.999286
-0.369065
-0.405291
-0.438296
-0.48191
-0.525291
-0.575383
-0.622341
-0.664719
-0.703275
-0.743778
-0.788164
-0.832434
-0.874601
-0.917104
-0.962243
-0.34345
-0.38013
-0.417751
-0.460195
-0.504987
-0.551595
-0.597051
-0.639557
-0.679171
-0.719322
-0.761803
-0.804674
-0.845873
-0.886584
-0.9295
-0.331845
-0.367241
-0.404817
-0.445318
-0.487941
-0.531627
-0.575271
-0.616998
-0.656579
-0.696401
-0.737733
-0.779262
-0.819957
-0.860143
-0.900941
-0.324545
-0.359067
-0.395454
-0.433508
-0.472767
-0.513258
-0.55497
-0.596094
-0.635552
-0.675069
-0.715825
-0.756766
-0.797108
-0.836589
-0.875396
-0.319371
-0.351581
-0.385498
-0.42141
-0.458889
-0.497866
-0.5381
-0.578018
-0.616651
-0.655271
-0.695095
-0.735766
-0.775653
-0.814149
-0.851389
-0.314806
-0.34409
-0.37526
-0.409406
-0.446276
-0.484956
-0.524264
-0.562677
-0.599906
-0.637119
-0.675635
-0.71529
-0.754371
-0.791896
-0.828081
-0.308964
-0.33622
-0.365583
-0.398392
-0.4343
-0.472027
-0.509912
-0.546783
-0.583141
-0.619995
-0.6579
-0.696101
-0.733609
-0.769893
-0.805794
-0.301589
-0.328351
-0.357065
-0.388713
-0.422827
-0.458402
-0.494229
-0.529855
-0.565963
-0.603217
-0.641119
-0.678474
-0.714381
-0.749436
-0.78534
-0.294944
-0.321638
-0.35007
-0.380538
-0.412866
-0.446356
-0.48051
-0.515294
-0.550946
-0.587611
-0.624811
-0.661589
-0.697177
-0.73228
-0.768054
309696
308206
306596
304591
303082
301512
299670
297555
185133
5.29673
-2.38006
-2.06282
-2.02748
-1.97469
-1.9575
-1.96901
-1.98924
-2.002
-1.99807
-1.96923
-1.90985
-1.81578
-1.68659
-1.52441
-1.33403
-1.11824
-0.880613
-0.624834
-0.35434
-0.0756357
0.205132
0.487345
0.767708
1.03968
1.30109
1.5463
1.77626
1.99203
2.19168
2.37305
2.53604
2.68131
2.80695
2.91454
3.01069
3.09452
3.16694
3.23042
3.2858
3.33636
3.38222
3.4244
3.4627
3.50089
3.53904
3.57469
3.6113
3.64519
3.67581
3.70343
328806
319735
316544
313979
311794
309688
307532