/*--------------------------------*- C++ -*----------------------------------*\
| =========                 |                                                 |
| \\      /  F ield         | OpenFOAM: The Open Source CFD Toolbox           |
|  \\    /   O peration     | Version:  v1912                                 |
|   \\  /    A nd           | Website:  www.openfoam.com                      |
|    \\/     M anipulation  |                                                 |
\*---------------------------------------------------------------------------*/
FoamFile
{
    version     2.0;
    format      ascii;
    class       surfaceScalarField;
    location    "34";
    object      phi;
}
// * * * * * * * * * * * * * * * * * * * * * * * * * * * * * * * * * * * * * //

dimensions      [0 3 -1 0 0 0 0];
oriented        oriented;


internalField   nonuniform List<scalar> 
40282
(
0.0027692
0.00264523
1.91889
-1.92549
1.91989
0.00559748
-1.91089
1.89871
0.0121755
-1.88354
1.86541
0.0181335
-1.84442
1.82056
0.0238537
-1.79391
1.76453
0.0293839
-1.73249
1.69789
0.0345975
-1.66074
1.62118
0.0395585
-1.57914
1.53481
0.044332
-1.48807
1.43918
0.0488848
-1.38801
1.3349
0.0531105
-1.27963
1.22261
0.057024
-1.16357
1.10293
0.0606411
-1.04045
0.976534
0.0639172
-0.910958
0.844043
0.0669157
-0.775661
0.70595
0.0697104
-0.634896
0.562047
0.0728491
-0.487961
0.41135
0.0766116
-0.33344
0.251106
0.0823344
-0.167599
0.0762784
0.0913206
-0.00422878
0.00560204
1.854
-1.84952
1.84259
-0.0141022
0.0210328
-1.83293
1.8205
-0.0256195
0.0380503
-1.80528
1.7873
-0.0369031
0.0548789
-1.7666
1.74322
-0.047955
0.0713379
-1.71719
1.68856
-0.0587493
0.0873821
-1.65737
1.62366
-0.0692145
0.102919
-1.5875
1.54891
-0.0792841
0.117875
-1.50794
1.46464
-0.0888858
0.132189
-1.41907
1.37128
-0.0980086
0.145798
-1.32136
1.26932
-0.106625
0.15866
-1.21527
1.15921
-0.114678
0.170731
-1.10125
1.04141
-0.12211
0.181957
-0.979766
0.916348
-0.128851
0.192268
-0.851253
0.784501
-0.134851
0.201603
-0.716176
0.6463
-0.140042
0.209918
-0.574954
0.502241
-0.144561
0.217274
-0.428256
0.35332
-0.149018
0.223953
-0.277513
0.201574
-0.154912
0.230851
-0.125504
0.0526714
-0.164895
0.237728
-0.00700815
0.00835898
1.78755
-1.78338
1.77656
-0.0281698
0.0349838
-1.76709
1.75498
-0.0506659
0.0627731
-1.74026
1.72292
-0.0729139
0.0902521
-1.70298
1.68046
-0.0947344
0.117253
-1.65539
1.62779
-0.116021
0.143616
-1.59771
1.56516
-0.136649
0.169195
-1.5302
1.49287
-0.156498
0.193826
-1.45324
1.41136
-0.175494
0.217367
-1.36731
1.32115
-0.193558
0.239721
-1.27294
1.22276
-0.210619
0.260804
-1.17067
1.11674
-0.226647
0.280573
-1.06105
1.00365
-0.241616
0.299017
-0.944596
0.883944
-0.25546
0.316112
-0.821741
0.758028
-0.268025
0.331738
-0.692842
0.626205
-0.278993
0.345631
-0.558139
0.488694
-0.28801
0.357455
-0.417977
0.34619
-0.295044
0.366831
-0.273608
0.20071
-0.300708
0.373606
-0.128049
0.0580168
-0.307836
0.377869
-0.00964312
0.0109196
1.72354
-1.71968
1.71326
-0.041694
0.0481142
-1.70428
1.69276
-0.0748005
0.0863259
-1.6787
1.66212
-0.107539
0.124115
-1.64305
1.62149
-0.139723
0.16128
-1.59747
1.57102
-0.171171
0.197625
-1.54216
1.51092
-0.201698
0.232934
-1.47735
1.44147
-0.231128
0.267005
-1.40333
1.36298
-0.259282
0.299633
-1.32047
1.27586
-0.286
0.330612
-1.22921
1.18061
-0.31115
0.359753
-1.13013
1.07786
-0.334653
0.386922
-1.02389
0.968323
-0.356497
0.412068
-0.91124
0.852728
-0.376702
0.435214
-0.792865
0.731714
-0.395229
0.45638
-0.669331
0.605761
-0.411806
0.475376
-0.54104
0.475179
-0.425789
0.491649
-0.408183
0.340086
-0.43628
0.504377
-0.271002
0.201179
-0.442803
0.512626
-0.130974
0.0621531
-0.447037
0.515857
-0.0121398
0.0133465
1.66182
-1.65817
1.65208
-0.0544845
0.0605695
-1.64357
1.63264
-0.0977657
0.108696
-1.6193
1.60356
-0.14058
0.156321
-1.58543
1.56493
-0.182708
0.203206
-1.54208
1.5169
-0.223935
0.249121
-1.4894
1.45961
-0.264022
0.293809
-1.42756
1.39329
-0.302738
0.337011
-1.35682
1.31821
-0.339856
0.378474
-1.27748
1.23468
-0.375132
0.417924
-1.18988
1.14313
-0.408328
0.455078
-1.0945
1.04406
-0.439246
0.489684
-0.991902
0.938114
-0.467771
0.521559
-0.8828
0.826064
-0.493888
0.550624
-0.768012
0.708743
-0.517649
0.576918
-0.648342
0.586875
-0.538968
0.600435
-0.524394
0.460935
-0.557348
0.620807
-0.396521
0.331163
-0.571656
0.637015
-0.264864
0.197654
-0.580308
0.647518
-0.129562
0.062382
-0.583663
0.650843
-0.0144937
0.0156215
1.60242
-1.59881
1.5931
-0.0665848
0.0723019
-1.5851
1.57482
-0.119503
0.129779
-1.56227
1.54746
-0.171893
0.186711
-1.53038
1.51104
-0.223502
0.242835
-1.48947
1.46566
-0.274086
0.297894
-1.43963
1.41141
-0.323366
0.351592
-1.381
1.34844
-0.371061
0.403624
-1.31375
1.27695
-0.41689
0.453685
-1.23809
1.1972
-0.460547
0.501439
-1.15432
1.10951
-0.50171
0.546523
-1.06281
1.0143
-0.540077
0.58859
-0.964038
0.912107
-0.575397
0.627328
-0.858598
0.80361
-0.607516
0.662504
-0.747253
0.689642
-0.636422
0.694032
-0.63089
0.571095
-0.662144
0.721939
-0.510341
0.44869
-0.684421
0.746072
-0.386181
0.322833
-0.702194
0.765541
-0.258637
0.193543
-0.713413
0.778508
-0.127357
0.0624061
-0.717404
0.782355
-0.0166869
0.0177263
1.54482
-1.5418
1.53649
-0.0779218
0.0832292
-1.52906
1.51951
-0.139885
0.149436
-1.50783
1.49403
-0.201299
0.2151
-1.47811
1.46006
-0.261889
0.279941
-1.43988
1.41758
-0.321393
0.343692
-1.39316
1.36663
-0.379495
0.406025
-1.338
1.30727
-0.435873
0.466599
-1.27447
1.23961
-0.490194
0.525058
-1.2027
1.16379
-0.542091
0.581002
-1.1229
1.08008
-0.591163
0.633991
-1.03535
0.988781
-0.637014
0.683584
-0.940423
0.890343
-0.679274
0.729354
-0.838618
0.785336
-0.717634
0.770916
-0.7306
0.674521
-0.751921
0.807999
-0.617223
0.558829
-0.782122
0.840516
-0.499454
0.439198
-0.808151
0.868407
-0.378142
0.31634
-0.829161
0.890963
-0.253806
0.190481
-0.842964
0.906289
-0.1259
0.063448
-0.848311
0.910763
-0.0187
0.0196405
1.48965
-1.48689
1.48204
-0.0884074
0.0932571
-1.47525
1.46651
-0.158762
0.167504
-1.45581
1.44314
-0.228591
0.241258
-1.4285
1.41187
-0.297617
0.314246
-1.39325
1.37261
-0.365572
0.386204
-1.34997
1.3253
-0.432116
0.456786
-1.2986
1.26987
-0.496892
0.52562
-1.23911
1.20633
-0.559523
0.59231
-1.17152
1.13471
-0.619576
0.65639
-1.0959
1.05513
-0.676567
0.717337
-1.01243
0.967826
-0.730009
0.77461
-0.921373
0.873121
-0.779417
0.827668
-0.823135
0.77149
-0.824329
0.875974
-0.718277
0.663601
-0.864379
0.919055
-0.607584
0.55036
-0.899394
0.956618
-0.492067
0.432838
-0.929324
0.988553
-0.372795
0.312041
-0.953539
1.01429
-0.250634
0.188551
-0.969942
1.03203
-0.124935
0.064792
-0.976947
1.03709
-0.0205111
0.0213406
1.43635
-1.43371
1.42937
-0.0979418
0.102278
-1.42329
1.41546
-0.175958
0.183794
-1.40585
1.39445
-0.25353
0.264927
-1.38124
1.36621
-0.330393
0.345431
-1.34931
1.33054
-0.406294
0.425065
-1.30987
1.28727
-0.480884
0.503485
-1.26272
1.2362
-0.553781
0.580301
-1.20769
1.17718
-0.62457
0.655082
-1.14465
1.1101
-0.692753
0.7273
-1.07353
1.03495
-0.757762
0.796344
-0.99437
0.951809
-0.819005
0.861566
-0.907299
0.86088
-0.875876
0.922295
-0.812602
0.762527
-0.92776
0.977835
-0.710734
0.657318
-0.97408
1.0275
-0.602396
0.546105
-1.01442
1.07072
-0.488593
0.430019
-1.04862
1.1072
-0.370533
0.310269
-1.07616
1.13642
-0.249313
0.187654
-1.09506
1.15672
-0.123879
0.0656357
-1.10406
1.16231
-0.0220961
0.0228023
1.3851
-1.38279
1.37903
-0.10641
0.110175
-1.37374
1.36692
-0.191274
0.1981
-1.35853
1.34854
-0.275834
0.285817
-1.33694
1.32367
-0.359868
0.373133
-1.30871
1.29201
-0.443157
0.459855
-1.27354
1.25324
-0.525363
0.545661
-1.23108
1.20701
-0.606096
0.630162
-1.181
1.153
-0.684911
0.712907
-1.12299
1.09093
-0.761252
0.793313
-1.0568
1.02058
-0.834461
0.870679
-0.982268
0.941861
-0.903835
0.944243
-0.899368
0.854811
-0.968631
1.01319
-0.808221
0.759647
-1.02806
1.07664
-0.709152
0.656821
-1.08133
1.13366
-0.602764
0.54712
-1.12773
1.18338
-0.490056
0.431762
-1.16686
1.22516
-0.372443
0.312309
-1.19821
1.25834
-0.251536
0.190213
-1.21996
1.28128
-0.126049
0.0700963
-1.23112
1.28707
-0.0234303
0.0240008
1.33553
-1.3336
1.33046
-0.113694
0.116826
-1.32606
1.32035
-0.204497
0.210205
-1.31331
1.30489
-0.295206
0.303619
-1.29507
1.28378
-0.385663
0.396953
-1.27097
1.25659
-0.475713
0.490093
-1.24057
1.22286
-0.565055
0.582768
-1.20339
1.18208
-0.653309
0.674614
-1.15888
1.13372
-0.740022
0.765182
-1.10654
1.07727
-0.824587
0.853849
-1.04588
1.0123
-0.906262
0.939836
-0.976514
0.938476
-0.984225
1.02226
-0.898175
0.855604
-1.05758
1.10015
-0.810771
0.763699
-1.12535
1.17242
-0.714433
0.66304
-1.18648
1.23787
-0.609617
0.5543
-1.23991
1.29523
-0.497264
0.438733
-1.2849
1.34343
-0.378969
0.318283
-1.32082
1.3815
-0.256991
0.195399
-1.34605
1.40765
-0.130037
0.0764951
-1.35978
1.41332
-0.0244901
0.0249142
1.28783
-1.28611
1.28367
-0.119673
0.122118
-1.28022
1.27573
-0.215411
0.2199
-1.27016
1.26347
-0.311331
0.318023
-1.2556
1.24649
-0.407368
0.41648
-1.23607
1.22426
-0.503462
0.515267
-1.21099
1.19617
-0.599377
0.614196
-1.17971
1.16152
-0.694776
0.712964
-1.14151
1.11958
-0.78922
0.811154
-1.09563
1.06957
-0.882082
0.90814
-1.04131
1.01077
-0.972546
1.00308
-0.977878
0.942555
-1.05968
1.095
-0.904748
0.864412
-1.14242
1.18275
-0.821519
0.776059
-1.21957
1.26503
-0.728041
0.677505
-1.28978
1.34032
-0.624526
0.569223
-1.35159
1.40689
-0.511776
0.452425
-1.40373
1.46308
-0.391487
0.329371
-1.44526
1.50737
-0.26655
0.203618
-1.47462
1.53756
-0.135399
0.0841164
-1.49156
1.54284
-0.0252557
0.0255257
1.24199
-1.24071
1.239
-0.124239
0.125951
-1.23657
1.23338
-0.223818
0.227002
-1.2294
1.22456
-0.323912
0.328753
-1.2188
1.21205
-0.424579
0.431326
-1.20423
1.19525
-0.525885
0.534866
-1.18501
1.1734
-0.627696
0.639303
-1.16032
1.14564
-0.729756
0.744437
-1.12924
1.11099
-0.831684
0.849935
-1.09075
1.06841
-0.932865
0.955212
-1.04381
1.01684
-1.03245
1.05942
-0.987367
0.955267
-1.12942
1.16152
-0.920431
0.88276
-1.22255
1.26022
-0.84217
0.798594
-1.31043
1.35401
-0.751991
0.702353
-1.39136
1.441
-0.64971
0.594153
-1.46339
1.51895
-0.535846
0.475051
-1.52458
1.58538
-0.412143
0.347671
-1.57344
1.63791
-0.282341
0.217204
-1.60835
1.67348
-0.144803
0.0960918
-1.6296
1.67831
-0.0257135
0.0258255
1.19745
-1.19681
1.19586
-0.127308
0.128257
-1.1945
1.19268
-0.229556
0.231376
-1.19035
1.18747
-0.332698
0.335584
-1.18395
1.17973
-0.436932
0.441157
-1.1747
1.16877
-0.542486
0.548414
-1.16183
1.15375
-0.649367
0.657445
-1.14441
1.13365
-0.757446
0.768202
-1.12133
1.10729
-0.866453
0.880496
-1.09135
1.07334
-0.975852
0.993858
-1.05309
1.03039
-1.08482
1.10751
-1.00508
0.976959
-1.1923
1.22043
-0.945845
0.911564
-1.29699
1.33127
-0.873949
0.832852
-1.39724
1.43833
-0.788144
0.739731
-1.49101
1.53943
-0.687567
0.63167
-1.57578
1.63167
-0.572157
0.509282
-1.64872
1.71159
-0.443475
0.375457
-1.70742
1.77544
-0.306266
0.23769
-1.74996
1.81854
-0.159375
0.113695
-1.77716
1.82284
-0.025858
0.0258132
1.15476
-1.15458
1.15441
-0.12883
0.129008
-1.15412
1.15369
-0.232522
0.232954
-1.15306
1.15218
-0.337505
0.338385
-1.15098
1.14938
-0.444135
0.445739
-1.14728
1.14457
-0.552827
0.55553
-1.14115
1.13687
-0.663768
0.668047
-1.13159
1.12516
-0.777005
0.78344
-1.11739
1.1081
-0.892447
0.901735
-1.09709
1.08414
-1.00972
1.02267
-1.06902
1.05149
-1.12812
1.14565
-1.0313
1.00817
-1.24667
1.26979
-0.981853
0.952057
-1.36407
1.39386
-0.918509
0.880934
-1.47857
1.51614
-0.839072
0.792687
-1.58785
1.63424
-0.741584
0.685641
-1.68876
1.7447
-0.624848
0.559373
-1.77736
1.84283
-0.489648
0.416555
-1.84981
1.9229
-0.341552
0.267524
-1.9034
1.97743
-0.180378
0.138798
-1.9397
1.98128
-0.0256943
0.0254992
1.11355
-1.11364
1.11422
-0.128801
0.128225
-1.11499
1.11593
-0.232692
0.231757
-1.11698
1.11809
-0.33826
0.337145
-1.11921
1.12025
-0.446023
0.444983
-1.12113
1.12174
-0.556601
0.555992
-1.12196
1.12167
-0.670391
0.670682
-1.12072
1.11893
-0.78766
0.789442
-1.11614
1.11213
-0.908569
0.912581
-1.10667
1.09953
-1.033
1.04014
-1.09044
1.07909
-1.1605
1.17184
-1.06518
1.04837
-1.29032
1.30713
-1.02828
1.00454
-1.42136
1.44511
-0.97671
0.944368
-1.55202
1.58436
-0.907059
0.864326
-1.67991
1.72264
-0.815727
0.760873
-1.80139
1.85625
-0.69948
0.631466
-1.91131
1.97932
-0.557093
0.477288
-2.0037
2.08351
-0.393937
0.311207
-2.07402
2.15675
-0.211026
0.173729
-2.12527
2.16256
-0.0252379
0.0249041
1.07381
-1.07452
1.07581
-0.127269
0.125981
-1.07758
1.07982
-0.230132
0.227899
-1.08247
1.0855
-0.335019
0.331988
-1.08886
1.09248
-0.442596
0.438979
-1.09628
1.10017
-0.553688
0.549792
-1.10406
1.10782
-0.668915
0.665158
-1.11131
1.11438
-0.788802
0.785731
-1.11685
1.11852
-0.913815
0.912144
-1.11916
1.11852
-1.04418
1.04482
-1.11631
1.1122
-1.17984
1.18395
-1.10585
1.09685
-1.32048
1.32948
-1.08475
1.06906
-1.46548
1.48117
-1.04922
1.02462
-1.61375
1.63835
-0.994559
0.9583
-1.76333
1.79959
-0.915034
0.863925
-1.91072
1.96183
-0.804176
0.735139
-2.04983
2.11886
-0.65653
0.568928
-2.17205
2.25965
-0.47436
0.37816
-2.26889
2.36509
-0.260909
0.223874
-2.34366
2.3807
-0.0245143
0.0240583
1.03536
-1.03646
1.03839
-0.124332
0.122401
-1.04107
1.04449
-0.225006
0.22159
-1.04861
1.05341
-0.327979
0.323182
-1.05884
1.06487
-0.434041
0.428015
-1.07143
1.07845
-0.544202
0.537175
-1.08587
1.09357
-0.659298
0.651596
-1.10145
1.10938
-0.780115
0.772182
-1.11721
1.12477
-0.907455
0.899902
-1.13184
1.13819
-1.04196
1.03561
-1.14355
1.14761
-1.18407
1.18001
-1.15001
1.15033
-1.33408
1.33376
-1.14811
1.14279
-1.49217
1.4975
-1.13371
1.12014
-1.65826
1.67184
-1.10117
1.07576
-1.83166
1.85707
-1.0427
1.00055
-2.01021
2.05235
-0.947741
0.882581
-2.18843
2.25359
-0.803532
0.709836
-2.35595
2.44965
-0.602425
0.487122
-2.49832
2.61362
-0.347549
0.305079
-2.61742
2.65989
-0.0235575
0.0229987
0.998369
-0.999993
1.00248
-0.120139
0.11765
-1.00596
1.0104
-0.217565
0.213117
-1.01581
1.02216
-0.317477
0.311126
-1.02944
1.03761
-0.420745
0.412568
-1.04666
1.05653
-0.528526
0.518654
-1.06718
1.07855
-0.641839
0.630471
-1.09056
1.10313
-0.761699
0.749129
-1.11615
1.12949
-0.88923
0.87589
-1.143
1.15649
-1.0255
1.01201
-1.16975
1.18252
-1.17148
1.15871
-1.1945
1.20534
-1.32819
1.31735
-1.21461
1.22181
-1.49679
1.48959
-1.22631
1.22737
-1.67866
1.6776
-1.22405
1.21518
-1.8753
1.88417
-1.19928
1.17449
-2.08771
2.1125
-1.13843
1.08817
-2.3144
2.36467
-1.02017
0.930685
-2.54798
2.63747
-0.816608
0.679429
-2.77071
2.90789
-0.510228
0.439555
-2.98072
3.0514
-0.0224072
0.0217668
0.962841
-0.964561
0.967507
-0.11487
0.111924
-0.97163
0.976929
-0.208132
0.202833
-0.983401
0.991048
-0.303964
0.296318
-0.999869
1.00986
-0.403271
0.393278
-1.02102
1.03334
-0.5073
0.494984
-1.04679
1.06137
-0.617194
0.602616
-1.07704
1.09378
-0.734135
0.717405
-1.11152
1.1302
-0.859506
0.840821
-1.14975
1.17005
-0.994728
0.97442
-1.191
1.21242
-1.14125
1.11983
-1.23414
1.25593
-1.30073
1.27894
-1.27751
1.29856
-1.4753
1.45426
-1.31864
1.33723
-1.66787
1.64928
-1.35365
1.36698
-1.88253
1.86919
-1.37602
1.3791
-2.12491
2.12183
-1.37388
1.35709
-2.40161
2.4184
-1.32414
1.26869
-2.71819
2.77364
-1.18253
1.05362
-3.07576
3.20467
-0.881649
0.798806
-3.49368
3.57652
0.0653071
-0.179813
0.114506
-0.174165
0.277617
-0.103452
-0.359837
0.42249
-0.0626533
-0.473296
0.514735
-0.0414391
-0.548003
0.573419
-0.0254168
-0.591479
0.59904
-0.00756105
-0.598043
0.589114
0.0089288
-0.574071
0.546146
0.0279256
-0.514794
0.461867
0.0529271
-0.370733
0.2751
0.0956326
-0.140316
-0.098773
0.239089
0.310348
-0.456402
0.146054
0.633562
-0.974278
0.340716
1.47749
-1.70112
0.22363
1.92924
-2.18128
0.252045
2.25593
-2.28494
0.0290097
2.27065
-2.17132
-0.0993303
2.1572
-2.16084
0.00364405
2.09418
-2.45466
0.360484
5.37978
-6.24452
0.864741
5.71391
-5.15745
-0.556457
4.56331
-4.24652
-0.316799
4.20709
-4.23154
0.0244419
3.62237
-1.89755
-1.72482
-0.89586
2.90355
-2.00769
-4.16492
4.94666
-0.78174
-5.4816
5.8599
-0.378305
-6.12527
6.32051
-0.19524
-6.4842
6.64598
-0.16179
-6.79805
6.91159
-0.113546
-6.97465
6.97692
-0.00227441
-6.9137
6.82718
0.0865129
-6.75358
6.69641
0.0571725
-6.65214
6.61688
0.0352666
-6.58783
6.56319
0.0246468
-6.54183
6.52317
0.0186603
-6.50691
6.4929
0.014007
-6.48106
6.47127
0.00978665
-6.46338
6.45711
0.00626888
-6.45225
6.44897
0.00327502
-6.4483
6.44977
-0.00146601
-6.4511
6.44989
0.00121856
-6.44529
6.43725
0.00804414
-6.42745
6.41792
0.00953409
-6.40973
6.40481
0.00491675
-6.40631
6.41596
-0.00964461
-6.42782
6.43199
-0.00417528
-6.42443
6.40514
0.0192982
-6.37689
6.35185
0.0250423
-6.33365
6.31914
0.0145098
-6.30645
6.29483
0.0116238
-6.28392
6.27383
0.0100876
-6.26474
6.25703
0.00770506
-6.25081
6.24611
0.00470166
-6.24269
6.24033
0.00236732
-6.23872
6.23772
0.000996921
-6.23708
6.23684
0.000239661
-6.23682
6.23707
-0.000255756
-6.23753
6.23823
-0.00070263
-6.23875
6.23971
-0.000962171
0.285749
-0.372619
0.0868702
-0.187967
0.260272
0.180499
-0.252804
-0.327703
0.387233
0.122687
-0.182218
-0.439392
0.483462
0.0837247
-0.127795
-0.519697
0.548315
0.0523784
-0.0809962
-0.56964
0.583993
0.018859
-0.0332124
-0.589317
0.58685
-0.0139966
0.0164634
-0.57717
0.560289
-0.0473754
0.0642557
-0.530566
0.491093
-0.0976052
0.137079
-0.446366
0.389266
-0.168589
0.225689
-0.331638
0.288233
-0.34288
0.386285
-0.196854
0.0256025
-0.331805
0.503057
0.125623
-0.188095
-0.362756
0.425227
0.156446
-0.0908923
-0.42675
0.361197
-0.0345446
-0.263378
-0.801665
1.09959
1.01936
-1.42562
-0.150569
0.556836
1.72286
-1.98913
0.059522
0.20675
2.08424
-2.03319
0.00180955
-0.052864
1.73164
-1.01387
-0.106333
-0.611438
-0.0759843
0.342759
-2.69081
2.42404
0.757719
-1.78609
0.208935
0.819433
1.93049
-1.51484
0.71597
-1.13163
0.796159
1.18987
0.507983
-2.49401
-2.11658
3.5567
3.48924
-4.92936
-3.69488
4.1616
3.01403
-3.48075
-4.68115
5.16403
1.39193
-1.8748
-5.56853
5.89794
0.732145
-1.06155
-6.16491
6.37739
0.408575
-0.621049
-6.54056
6.65988
0.287595
-0.406912
-6.74615
6.8106
0.187567
-0.252017
-6.85733
6.88995
0.024422
-0.0570437
-6.91282
6.92062
-0.0995404
0.0917349
-6.9116
6.89263
-0.089974
0.108944
-6.86973
6.84641
-0.0642193
0.0875401
-6.82435
6.80423
-0.0471118
0.0672233
-6.78636
6.77077
-0.0358069
0.0513959
-6.75747
6.74643
-0.0264954
0.0375385
-6.73755
6.73076
-0.0179958
0.0247853
-6.72596
6.72296
-0.0106545
0.0136506
-6.72143
6.72085
-0.00425376
0.00482641
-6.72104
6.72127
0.000981012
-0.001211
-6.7219
6.72218
-0.00177898
0.00149963
-6.72236
6.72229
-0.0103629
0.0104279
-6.72171
6.72078
-0.012956
0.0138918
-6.71993
6.71927
-0.00521085
0.00586589
-6.71779
6.71485
0.00874054
-0.00579908
-6.71131
6.7071
-0.000522573
0.00473236
-6.70262
6.6987
-0.0271767
0.0311025
-6.69471
6.68895
-0.0350414
0.0408049
-6.68154
6.67387
-0.0258709
0.0335408
-6.66633
6.65869
-0.0216923
0.0293363
-6.65066
6.6422
-0.0197081
0.028164
-6.63374
6.62582
-0.0159254
0.0238413
-6.61894
6.61327
-0.0103366
0.0160004
-6.60879
6.60531
-0.00570639
0.00919257
-6.60261
6.6005
-0.0029099
0.00502158
-6.59883
6.59744
-0.00137302
0.00276689
-6.5963
6.59533
-0.000386165
0.0013577
-6.59454
6.59383
0.000417328
0.000295323
-6.59327
6.59275
0.000913435
-0.000388344
0.445582
-0.497927
0.052345
-0.151344
0.224117
0.324674
-0.397447
-0.289187
0.349751
0.240987
-0.301551
-0.405555
0.453712
0.173839
-0.221997
-0.493907
0.526374
0.111048
-0.143515
-0.551334
0.568945
0.0494905
-0.0671022
-0.578533
0.579795
-0.0167464
0.0154849
-0.573891
0.560896
-0.0789051
0.0919007
-0.538706
0.508071
-0.171519
0.202154
-0.473923
0.433935
-0.272255
0.312243
-0.391808
0.367633
-0.410197
0.434372
-0.355489
0.335712
-0.585149
0.604925
-0.274229
0.155728
-0.547322
0.665823
-0.0528742
-0.001768
-0.347139
0.401781
-0.0468162
0.285798
-0.722879
0.483898
-0.558628
0.477614
-0.962331
1.04334
-0.421299
0.565927
-0.0720753
-0.0725526
-0.893375
1.26761
0.499193
-0.873423
-1.40858
1.27053
0.386134
-0.24808
-1.52479
2.01501
-1.89473
1.40451
-1.78318
1.35748
-1.57859
2.00429
-1.46626
2.32522
1.68029
-2.53926
-4.01979
4.63015
4.21634
-4.82669
-4.75499
4.6964
4.94217
-4.88358
-4.6769
4.82468
3.72077
-3.86855
-5.08603
5.38431
2.24854
-2.54681
-5.67537
5.93991
1.35582
-1.62037
-6.16896
6.35931
0.822236
-1.01259
-6.50976
6.62178
0.521997
-0.634012
-6.70202
6.75991
0.311744
-0.369631
-6.80341
6.83853
0.0918699
-0.126985
-6.86764
6.88803
-0.0754305
0.0550362
-6.89699
6.89569
-0.117521
0.118816
-6.8875
6.8756
-0.104934
0.116834
-6.86233
6.84919
-0.0840048
0.0971486
-6.83712
6.82668
-0.0645936
0.0750348
-6.81816
6.81162
-0.0465301
0.0530666
-6.80704
6.80435
-0.0296912
0.0323812
-6.80343
6.80404
-0.0149831
0.0143721
-6.80573
6.80791
-0.00405138
0.00187414
-6.81018
6.81243
0.00235442
-0.00459914
-6.81485
6.81755
-1.38042e-05
-0.00267724
-6.82036
6.82313
-0.00900507
0.00624274
-6.82557
6.82749
-0.0131905
0.0112675
-6.82871
6.82893
-0.00612722
0.00590598
-6.82781
6.82513
0.0028937
-0.000212554
-6.82165
6.81823
-0.00850482
0.0119278
-6.81556
6.81393
-0.0336444
0.0352695
-6.81311
6.81231
-0.0436763
0.0444814
-6.81119
6.80995
-0.0377504
0.038997
-6.80845
6.80615
-0.0342893
0.0365865
-6.8025
6.79729
-0.0350173
0.040226
-6.79105
6.78473
-0.0309804
0.0372945
-6.7791
6.77446
-0.0212073
0.0258479
-6.77079
6.76791
-0.0124356
0.0153178
-6.76563
6.76379
-0.0070399
0.0088784
-6.76224
6.76084
-0.00419488
0.00559313
-6.75954
6.75832
-0.00247801
0.0036971
-6.75717
6.75606
-0.00123695
0.00235338
-6.75508
6.75411
-0.000394147
0.00135972
0.547665
-0.609946
0.0622803
-0.125948
0.198204
0.471839
-0.544095
-0.264681
0.326363
0.363083
-0.424765
-0.37979
0.42686
0.269414
-0.316484
-0.469171
0.506381
0.177899
-0.215109
-0.536356
0.558601
0.0866703
-0.108916
-0.573677
0.579914
-0.0109
0.00466303
-0.575925
0.564058
-0.103927
0.115794
-0.545208
0.520883
-0.229053
0.253377
-0.492365
0.457711
-0.348965
0.38362
-0.41892
0.387517
-0.462433
0.493837
-0.37069
0.365538
-0.609548
0.6147
-0.363063
0.35297
-0.716912
0.727005
-0.31981
0.233278
-0.497399
0.583931
-0.123974
0.124308
-0.394042
0.393707
-0.313714
0.464131
-0.92317
0.772752
-0.534006
0.559152
0.160307
-0.185454
-0.492782
0.395804
0.731086
-0.634108
-0.426944
0.514529
0.410034
-0.497619
-0.674893
0.97707
-0.740414
0.438237
-1.71168
2.41049
-1.99753
1.29871
-3.56638
4.67216
3.64308
-4.74886
-5.20296
5.17759
5.16722
-5.14185
-5.1584
5.13291
4.83321
-4.80772
-5.13275
5.21518
3.97062
-4.05305
-5.37314
5.57497
2.78676
-2.9886
-5.78976
5.99804
1.85272
-2.06099
-6.18624
6.34767
1.18722
-1.34865
-6.47788
6.57746
0.73956
-0.839143
-6.6503
6.70356
0.424786
-0.478042
-6.74394
6.77714
0.160858
-0.194059
-6.80572
6.82897
-0.0330681
0.00981274
-6.84525
6.85428
-0.114539
0.105515
-6.85744
6.85666
-0.123149
0.123929
-6.85371
6.84988
-0.105862
0.109689
-6.84622
6.84348
-0.0818519
0.0845928
-6.84212
6.84224
-0.0564926
0.0563733
-6.84385
6.84688
-0.0323947
0.0293642
-6.85124
6.85675
-0.011479
0.00596732
-6.86291
6.86895
0.00206906
-0.00810781
-6.87444
6.87958
0.00820712
-0.0133513
-6.88476
6.89011
0.00663223
-0.0119879
-6.89553
6.90074
-0.00227411
-0.00293443
-6.90541
6.90925
-0.00836901
0.00453276
-6.91201
6.91353
-0.00506358
0.00354138
-6.91379
6.91293
-0.00160888
0.00246804
-6.91141
6.90978
-0.0145106
0.0161431
-6.90864
6.90847
-0.0361079
0.0362782
-6.90949
6.91158
-0.043681
0.0415932
-6.91455
6.91819
-0.0376221
0.0339835
-6.92201
6.92504
-0.0361659
0.0331377
-6.92611
6.92445
-0.0436391
0.045298
-6.92059
6.91604
-0.0426437
0.0471887
-6.91199
6.9088
-0.0297306
0.0329153
-6.90638
6.9044
-0.0177178
0.0196915
-6.90273
6.90133
-0.0104686
0.0118729
-6.90007
6.89881
-0.00690811
0.00817793
-6.89745
6.89609
-0.00497516
0.00634358
-6.89471
6.8933
-0.0036025
0.00500882
-6.89195
6.89067
-0.00246665
0.00374685
0.696077
-0.794898
0.0988213
-0.145219
0.196887
0.608051
-0.659718
-0.247546
0.298741
0.480558
-0.531753
-0.348168
0.396342
0.363266
-0.41144
-0.442027
0.483271
0.253769
-0.295012
-0.518193
0.544791
0.133458
-0.160056
-0.563329
0.572892
0.00337886
-0.0129417
-0.571908
0.56121
-0.127116
0.137814
-0.54307
0.520023
-0.276334
0.299382
-0.493451
0.462569
-0.415746
0.446628
-0.428881
0.395847
-0.525896
0.55893
-0.368548
0.349125
-0.625596
0.645019
-0.338993
0.32947
-0.726648
0.736171
-0.304043
0.273283
-0.634467
0.665227
-0.180499
0.0845122
-0.455271
0.551257
-0.172603
0.341102
-0.617804
0.449305
-0.44762
0.364751
0.121931
-0.0390614
-0.326208
0.302607
0.616432
-0.592831
-0.307846
0.329626
0.545023
-0.566803
-0.37195
0.467052
-0.268599
0.173496
-1.01495
3.99616
0.218134
-3.19934
-5.28588
5.27179
5.41444
-5.40035
-5.30181
5.32255
5.15006
-5.1708
-5.33968
5.35554
4.80284
-4.81869
-5.38616
5.45682
4.12505
-4.19571
-5.57256
5.72209
3.15857
-3.30811
-5.886
6.04933
2.24374
-2.40707
-6.19922
6.32941
1.49314
-1.62333
-6.43511
6.51726
0.929499
-1.01165
-6.57979
6.62764
0.528022
-0.575879
-6.66601
6.6993
0.226427
-0.259717
-6.72957
6.75691
0.0146923
-0.0420263
-6.78052
6.79939
-0.0919393
0.0730663
-6.81409
6.82554
-0.118839
0.107394
-6.83466
6.84225
-0.10805
0.100462
-6.84906
6.85602
-0.0826698
0.0757189
-6.86354
6.87184
-0.0522981
0.0440031
-6.88086
6.89059
-0.0230788
0.0133442
-6.90088
6.91184
0.00222694
-0.0131915
-6.92313
6.93366
0.0162994
-0.0268287
-6.94267
6.95071
0.0199325
-0.0279687
-6.95855
6.96646
0.0186261
-0.0265369
-6.97433
6.98177
0.009251
-0.0166979
-6.9884
6.99389
0.000117
-0.00560591
-6.99802
7.00075
-0.00138768
-0.00134619
-7.00238
7.00334
-0.00234836
0.00138904
-7.00396
7.00436
-0.0167403
0.0163402
-7.00483
7.00589
-0.0358171
0.0347536
-7.00816
7.01199
-0.0385225
0.0346936
-7.01738
7.02407
-0.0285877
0.0218988
-7.03157
7.03891
-0.0277854
0.0204515
-7.04444
7.04628
-0.045207
0.0433655
-7.04441
7.04131
-0.0509348
0.0540361
-7.03865
7.03682
-0.035368
0.037195
-7.0355
7.03419
-0.021264
0.0225753
-7.03274
7.03143
-0.0131502
0.0144606
-7.03025
7.02898
-0.00941496
0.0106915
-7.02747
7.02587
-0.00780026
0.00939516
-7.02425
7.02254
-0.00655308
0.00826213
-7.02075
7.01906
-0.00520528
0.00690054
0.890429
-0.966837
0.0764086
-0.143546
0.184677
0.703722
-0.744853
-0.223874
0.267962
0.578814
-0.622902
-0.315457
0.365294
0.459948
-0.509785
-0.413217
0.456898
0.337097
-0.380778
-0.495211
0.525749
0.188529
-0.219067
-0.548141
0.561356
0.0241927
-0.0374084
-0.563552
0.555035
-0.147421
0.155938
-0.537936
0.51478
-0.32226
0.345417
-0.487814
0.458064
-0.476318
0.506068
-0.426239
0.39192
-0.592182
0.626502
-0.356056
0.320678
-0.672909
0.708286
-0.287034
0.252638
-0.790773
0.825169
-0.199622
0.0794908
-0.735059
0.85519
-0.0278396
-0.0105924
-0.579122
0.617554
0.00975698
0.0235266
-0.304364
0.27108
-0.0936711
0.230167
0.114269
-0.250765
-0.255574
0.264093
0.584513
-0.593031
-0.265989
0.290345
0.578667
-0.603023
-0.345959
2.03499
-0.253683
-1.43535
-5.02707
5.1759
5.5936
-5.74243
-5.23719
5.29319
5.45501
-5.51101
-5.34641
5.39519
5.20676
-5.25553
-5.44082
5.48668
4.85067
-4.89653
-5.53957
5.61313
4.26576
-4.33933
-5.71161
5.82979
3.43859
-3.55678
-5.95657
6.08059
2.54873
-2.67275
-6.19316
6.29051
1.73638
-1.83372
-6.37043
6.43435
1.08349
-1.14741
-6.48811
6.53484
0.62155
-0.668281
-6.57759
6.61859
0.295143
-0.336145
-6.65868
6.69756
0.0734545
-0.112337
-6.73351
6.7665
-0.0482451
0.0152498
-6.79513
6.82053
-0.0892934
0.0639009
-6.84297
6.86292
-0.086833
0.0668835
-6.88092
6.89775
-0.0638108
0.046981
-6.91395
6.92989
-0.0317514
0.0158132
-6.94561
6.96119
-0.00048216
-0.0150963
-6.97643
6.99149
0.0264235
-0.0414846
-7.00667
7.02111
0.0393894
-0.053835
-7.03314
7.04326
0.0371069
-0.0472291
-7.05273
7.06205
0.0353192
-0.0446452
-7.07137
7.08031
0.0249659
-0.033904
-7.08846
7.09535
0.0117716
-0.0186689
-7.10064
7.1041
0.00448312
-0.00794496
-7.1061
7.10762
8.76746e-05
-0.00160016
-7.10942
7.11139
-0.0150458
0.0130789
-7.11354
7.11609
-0.0330547
0.030501
-7.11953
7.12434
-0.0303735
0.0255663
-7.13047
7.13758
-0.0146776
0.00756129
-7.14554
7.1541
-0.0119728
0.00340773
-7.16267
7.16851
-0.0396987
0.0338595
-7.169
7.16765
-0.0564221
0.057774
-7.1664
7.16552
-0.0384578
0.0393335
-7.16486
7.16366
-0.0237451
0.0249392
-7.16162
7.15965
-0.0159698
0.0179404
-7.15801
7.15649
-0.0120374
0.0135637
-7.15482
7.15307
-0.0110932
0.0128415
-7.15129
7.14941
-0.0100826
0.011966
-7.14729
7.14499
-0.00884103
0.0111351
1.0261
-1.07178
0.045682
-0.10823
0.152178
0.786533
-0.830482
-0.18763
0.231506
0.66415
-0.708026
-0.284182
0.335633
0.560428
-0.611879
-0.384411
0.428928
0.425091
-0.469608
-0.468202
0.501978
0.25087
-0.284646
-0.527427
0.5433
0.052119
-0.067992
-0.549385
0.54545
-0.162621
0.166556
-0.531032
0.507899
-0.368103
0.391236
-0.479213
0.448562
-0.535831
0.566482
-0.416786
0.381577
-0.66083
0.696038
-0.343044
0.302289
-0.747429
0.788184
-0.262868
0.233946
-0.8523
0.881222
-0.213816
0.187668
-0.909476
0.935624
-0.146851
0.107198
-0.673868
0.713521
-0.0862889
0.0960367
-0.239166
0.229418
-0.126077
0.169404
0.315709
-0.359036
-0.220048
0.255047
0.616431
-0.65143
-0.282746
0.330069
0.621427
-0.66875
-3.0336
5.09266
4.13189
-6.19094
-5.06002
5.14673
5.77761
-5.86432
-5.22157
5.29469
5.57426
-5.64738
-5.3658
5.4354
5.31349
-5.38308
-5.50074
5.56659
4.95317
-5.01901
-5.63554
5.71258
4.41444
-4.49148
-5.80059
5.89432
3.66181
-3.75553
-5.98589
6.06987
2.77651
-2.86048
-6.13927
6.20509
1.91398
-1.97979
-6.26787
6.32489
1.20447
-1.2615
-6.38853
6.45234
0.719858
-0.783672
-6.51571
6.5777
0.385726
-0.447718
-6.63814
6.69635
0.15999
-0.218206
-6.75108
6.80116
0.0256079
-0.0756832
-6.8455
6.88353
-0.0317254
-0.00630923
-6.91666
6.94595
-0.041726
0.0124321
-6.97266
6.9961
-0.0264169
0.00297314
-7.01608
7.03439
0.00200056
-0.0203147
-7.05213
7.06937
0.0321373
-0.0493727
-7.08567
7.10038
0.0569255
-0.0716382
-7.11376
7.1268
0.0685437
-0.0815825
-7.13966
7.15119
0.0577369
-0.0692637
-7.16093
7.16994
0.05387
-0.0628823
-7.17892
7.18808
0.0430123
-0.0521787
-7.19714
7.20543
0.026128
-0.034417
-7.21222
7.21687
0.0116787
-0.0163228
-7.21896
7.21952
0.00285321
-0.00341324
-7.2204
7.22282
-0.0107008
0.00827966
-7.22731
7.23373
-0.0264836
0.0200595
-7.24107
7.24818
-0.0197572
0.0126418
-7.25463
7.26031
-0.00123458
-0.00444311
-7.26501
7.26947
0.00346939
-0.00792658
-7.27516
7.28305
-0.0261904
0.0182995
-7.29055
7.29413
-0.0573527
0.0537697
-7.29476
7.29384
-0.039986
0.040913
-7.29209
7.28966
-0.0261348
0.0285596
-7.28675
7.28379
-0.0205441
0.0235028
-7.28134
7.27952
-0.0152311
0.0170476
-7.27807
7.27654
-0.0144785
0.0160146
-7.27479
7.27302
-0.0137599
0.0155215
-7.27152
7.27065
-0.0136769
0.0145443
1.11086
-1.14766
0.0367929
-0.0714079
0.104695