/*--------------------------------*- C++ -*----------------------------------*\
| =========                 |                                                 |
| \\      /  F ield         | OpenFOAM: The Open Source CFD Toolbox           |
|  \\    /   O peration     | Version:  v1912                                 |
|   \\  /    A nd           | Website:  www.openfoam.com                      |
|    \\/     M anipulation  |                                                 |
\*---------------------------------------------------------------------------*/
FoamFile
{
    version     2.0;
    format      ascii;
    class       volVectorField;
    location    "34";
    object      U;
}
// * * * * * * * * * * * * * * * * * * * * * * * * * * * * * * * * * * * * * //

dimensions      [0 1 -1 0 0 0 0];


internalField   nonuniform List<vector> 
20320
(
(1.85453 0.00629129 0)
(1.85323 -0.00530128 0)
(1.83786 0.00433031 0)
(1.80845 0.0122342 0)
(1.76748 0.019381 0)
(1.71616 0.0263274 0)
(1.65451 0.0325281 0)
(1.58294 0.038254 0)
(1.50193 0.0440319 0)
(1.41186 0.0496602 0)
(1.31328 0.0546559 0)
(1.2068 0.0592578 0)
(1.09305 0.0636366 0)
(0.972614 0.067698 0)
(0.846152 0.0716506 0)
(0.714166 0.0756422 0)
(0.576917 0.0805852 0)
(0.433812 0.0881664 0)
(0.283339 0.101318 0)
(0.120827 0.124487 0)
(1.85465 0.0112826 0)
(1.84608 0.0356528 0)
(1.82677 0.0666818 0)
(1.79649 0.0977987 0)
(1.75523 0.128359 0)
(1.7032 0.158204 0)
(1.64086 0.187238 0)
(1.56858 0.215276 0)
(1.48669 0.242075 0)
(1.39558 0.267556 0)
(1.29575 0.29171 0)
(1.18765 0.314389 0)
(1.07174 0.335421 0)
(0.948462 0.354638 0)
(0.818272 0.371889 0)
(0.681631 0.387021 0)
(0.538983 0.400278 0)
(0.391098 0.412875 0)
(0.239339 0.428135 0)
(0.0859185 0.455423 0)
(1.85464 0.0170511 0)
(1.84615 0.0698745 0)
(1.82661 0.125425 0)
(1.79612 0.180468 0)
(1.75481 0.234642 0)
(1.70286 0.287577 0)
(1.64051 0.338984 0)
(1.56802 0.388487 0)
(1.48584 0.435809 0)
(1.39449 0.480794 0)
(1.29451 0.52329 0)
(1.18648 0.563206 0)
(1.07098 0.600498 0)
(0.948516 0.635052 0)
(0.819516 0.666552 0)
(0.684317 0.694307 0)
(0.543159 0.717298 0)
(0.396463 0.734762 0)
(0.24547 0.747594 0)
(0.0938451 0.776846 0)
(1.85464 0.0228358 0)
(1.84639 0.0997645 0)
(1.82722 0.179053 0)
(1.79706 0.257454 0)
(1.75606 0.334537 0)
(1.70444 0.409884 0)
(1.6424 0.483052 0)
(1.5702 0.553614 0)
(1.48818 0.621147 0)
(1.39675 0.685234 0)
(1.29641 0.745516 0)
(1.18782 0.801763 0)
(1.07172 0.85392 0)
(0.94893 0.902064 0)
(0.82017 0.946191 0)
(0.685994 0.985791 0)
(0.546757 1.01954 0)
(0.402579 1.04536 0)
(0.253586 1.06177 0)
(0.101663 1.09371 0)
(1.85464 0.0283022 0)
(1.84653 0.127791 0)
(1.82767 0.229376 0)
(1.79798 0.329886 0)
(1.75757 0.428808 0)
(1.70663 0.525656 0)
(1.64532 0.619872 0)
(1.57386 0.71091 0)
(1.49252 0.798233 0)
(1.40167 0.881267 0)
(1.30172 0.959427 0)
(1.19321 1.03221 0)
(1.07683 1.09929 0)
(0.953411 1.16056 0)
(0.823896 1.21615 0)
(0.689154 1.26597 0)
(0.549773 1.30906 0)
(0.405997 1.343 0)
(0.257718 1.36493 0)
(0.104453 1.40021 0)
(1.85464 0.0334404 0)
(1.84673 0.154257 0)
(1.82835 0.276946 0)
(1.79937 0.398453 0)
(1.75989 0.518193 0)
(1.71 0.63561 0)
(1.64981 0.75006 0)
(1.57948 0.860892 0)
(1.49922 0.967451 0)
(1.40931 1.06902 0)
(1.3101 1.16484 0)
(1.20205 1.25419 0)
(1.08573 1.33644 0)
(0.961892 1.41116 0)
(0.831471 1.47825 0)
(0.695521 1.5378 0)
(0.55495 1.58936 0)
(0.410252 1.63072 0)
(0.26136 1.65825 0)
(0.10625 1.69689 0)
(1.85464 0.0382107 0)
(1.84703 0.178984 0)
(1.82931 0.321433 0)
(1.80135 0.462678 0)
(1.76316 0.602094 0)
(1.71478 0.739089 0)
(1.65622 0.872946 0)
(1.58753 1.00292 0)
(1.50883 1.12825 0)
(1.42029 1.24808 0)
(1.32217 1.36147 0)
(1.21485 1.46749 0)
(1.09879 1.56526 0)
(0.974639 1.654 0)
(0.843262 1.73323 0)
(0.705752 1.80285 0)
(0.563267 1.86271 0)
(0.416692 1.91107 0)
(0.266256 1.94404 0)
(0.108661 1.98512 0)
(1.85464 0.0425688 0)
(1.84743 0.201766 0)
(1.83062 0.362483 0)
(1.80405 0.522081 0)
(1.76763 0.679936 0)
(1.72131 0.835451 0)
(1.66498 0.987861 0)
(1.59856 1.13635 0)
(1.52203 1.28007 0)
(1.43542 1.418 0)
(1.33886 1.54902 0)
(1.23258 1.67201 0)
(1.11697 1.7858 0)
(0.99255 1.88931 0)
(0.860092 1.98159 0)
(0.720664 2.06215 0)
(0.575583 2.13081 0)
(0.426096 2.18626 0)
(0.27284 2.22473 0)
(0.110688 2.26684 0)
(1.85465 0.0464645 0)
(1.84796 0.222373 0)
(1.83235 0.399694 0)
(1.80759 0.576108 0)
(1.77352 0.751036 0)
(1.72994 0.923922 0)
(1.6766 1.09399 0)
(1.61324 1.26038 0)
(1.53967 1.42215 0)
(1.45571 1.57816 0)
(1.36132 1.72709 0)
(1.25657 1.86757 0)
(1.14166 1.99817 0)
(1.01702 2.11744 0)
(0.883286 2.22399 0)
(0.741479 2.31672 0)
(0.592999 2.39513 0)
(0.43937 2.45803 0)
(0.281472 2.50173 0)
(0.111072 2.54448 0)
(1.85465 0.0498441 0)
(1.84863 0.240549 0)
(1.83456 0.432613 0)
(1.81213 0.624123 0)
(1.78108 0.814603 0)
(1.74105 1.00359 0)
(1.69161 1.19034 0)
(1.6323 1.37398 0)
(1.56268 1.55353 0)
(1.48234 1.7277 0)
(1.39097 1.89499 0)
(1.28841 2.05376 0)
(1.17464 2.20229 0)
(1.0499 2.33872 0)
(0.914693 2.46114 0)
(0.769942 2.56779 0)
(0.61715 2.65754 0)
(0.458268 2.72902 0)
(0.294788 2.77849 0)
(0.115088 2.82088 0)
(1.85465 0.0526532 0)
(1.84947 0.256027 0)
(1.8373 0.460764 0)
(1.81778 0.665452 0)
(1.79051 0.869771 0)
(1.75497 1.07342 0)
(1.71052 1.27574 0)
(1.65645 1.47591 0)
(1.59204 1.67293 0)
(1.51657 1.86543 0)
(1.4294 2.0517 0)
(1.33002 2.22986 0)
(1.21811 2.39783 0)
(1.0936 2.5533 0)
(0.956777 2.69379 0)
(0.8084 2.81672 0)
(0.650003 2.92008 0)
(0.483977 3.00205 0)
(0.312635 3.05875 0)
(0.12033 3.09896 0)
(1.85465 0.0548414 0)
(1.85047 0.268546 0)
(1.8406 0.483673 0)
(1.82459 0.699399 0)
(1.80193 0.915627 0)
(1.77194 1.13228 0)
(1.73373 1.34887 0)
(1.68634 1.56469 0)
(1.6287 1.77878 0)
(1.55972 1.98974 0)
(1.47833 2.19574 0)
(1.38357 2.39463 0)
(1.27467 2.58397 0)
(1.15111 2.76097 0)
(1.01277 2.92246 0)
(0.860137 3.06487 0)
(0.694641 3.18499 0)
(0.519043 3.27997 0)
(0.336429 3.34523 0)
(0.125207 3.38197 0)
(1.85466 0.0563684 0)
(1.85164 0.277876 0)
(1.84444 0.500915 0)
(1.83257 0.725325 0)
(1.81539 0.951288 0)
(1.79205 1.17903 0)
(1.76147 1.40831 0)
(1.7224 1.63862 0)
(1.67341 1.86916 0)
(1.61297 2.0986 0)
(1.5395 2.32504 0)
(1.45144 2.54617 0)
(1.34737 2.75923 0)
(1.22609 2.96091 0)
(1.08685 3.14728 0)
(0.929564 3.31364 0)
(0.755369 3.45513 0)
(0.567388 3.56734 0)
(0.369846 3.64436 0)
(0.133479 3.67706 0)
(1.85466 0.0572083 0)
(1.85296 0.283849 0)
(1.84879 0.51216 0)
(1.84162 0.742699 0)
(1.83075 0.975973 0)
(1.81519 1.21258 0)
(1.7937 1.45262 0)
(1.76476 1.69589 0)
(1.72659 1.94188 0)
(1.67721 2.18945 0)
(1.61443 2.43683 0)
(1.53598 2.68167 0)
(1.43955 2.92105 0)
(1.32296 3.15123 0)
(1.18439 3.36751 0)
(1.02271 3.56385 0)
(0.838291 3.73328 0)
(0.634343 3.86889 0)
(0.416518 3.96229 0)
(0.146107 3.99025 0)
(1.85466 0.0573551 0)
(1.85439 0.286377 0)
(1.85354 0.517218 0)
(1.85156 0.751168 0)
(1.84772 0.989095 0)
(1.84099 1.23202 0)
(1.83 1.48047 0)
(1.81306 1.73465 0)
(1.7881 1.99449 0)
(1.75271 2.25925 0)
(1.70411 2.52751 0)
(1.63918 2.79716 0)
(1.55454 3.06538 0)
(1.44667 3.32831 0)
(1.31205 3.58068 0)
(1.14773 3.81512 0)
(0.952296 4.02208 0)
(0.72817 4.19085 0)
(0.482135 4.30882 0)
(0.16282 4.33419 0)
(1.85467 0.0568257 0)
(1.85591 0.285478 0)
(1.85855 0.516081 0)
(1.86209 0.750637 0)
(1.86584 0.99037 0)
(1.86879 1.23676 0)
(1.86956 1.49081 0)
(1.8664 1.75324 0)
(1.85709 2.02458 0)
(1.83891 2.3047 0)
(1.80856 2.59281 0)
(1.76215 2.88743 0)
(1.69513 3.18632 0)
(1.60227 3.48608 0)
(1.47774 3.78154 0)
(1.31552 4.0645 0)
(1.11066 4.32272 0)
(0.862574 4.54025 0)
(0.577767 4.69723 0)
(0.187719 4.73095 0)
(1.85467 0.0556602 0)
(1.85744 0.281286 0)
(1.86364 0.508951 0)
(1.87286 0.741305 0)
(1.8845 0.979893 0)
(1.89768 1.22664 0)
(1.91114 1.48306 0)
(1.92323 1.75045 0)
(1.9318 2.03003 0)
(1.93402 2.32251 0)
(1.92637 2.628 0)
(1.90437 2.94612 0)
(1.86249 3.27584 0)
(1.79379 3.61518 0)
(1.68966 3.96031 0)
(1.53974 4.30384 0)
(1.33272 4.63203 0)
(1.06043 4.92303 0)
(0.725138 5.14466 0)
(0.241075 5.20432 0)
(1.85468 0.0539207 0)
(1.85893 0.274051 0)
(1.86864 0.496242 0)
(1.88347 0.72369 0)
(1.903 0.958191 0)
(1.92656 1.20207 0)
(1.95318 1.45731 0)
(1.98148 1.72577 0)
(2.0096 2.00943 0)
(2.03498 2.30994 0)
(2.05422 2.62857 0)
(2.06283 2.96634 0)
(2.05484 3.32416 0)
(2.02224 3.70255 0)
(1.95402 4.101 0)
(1.835 4.516 0)
(1.6448 4.93664 0)
(1.35991 5.33886 0)
(0.965359 5.6758 0)
(0.352307 5.80765 0)
(1.85468 0.0516856 0)
(1.86034 0.264119 0)
(1.87334 0.478557 0)
(1.8935 0.698608 0)
(1.92061 0.926228 0)
(1.9543 1.16405 0)
(1.99395 1.41441 0)
(2.03867 1.67968 0)
(2.08714 1.96252 0)
(2.13742 2.2655 0)
(2.18678 2.59108 0)
(2.23141 2.94188 0)
(2.26595 3.32104 0)
(2.28276 3.73248 0)
(2.27041 4.18089 0)
(2.21109 4.67077 0)
(2.07624 5.20229 0)
(1.82106 5.76263 0)
(1.38555 6.30562 0)
(0.594092 6.63479 0)
(1.85468 0.0490449 0)
(1.86161 0.251912 0)
(1.8776 0.456643 0)
(1.90263 0.66712 0)
(1.93671 0.88534 0)
(1.97981 1.11411 0)
(2.03177 1.35601 0)
(2.09228 1.61374 0)
(2.16077 1.89048 0)
(2.23625 2.18954 0)
(2.31712 2.51435 0)
(2.40102 2.86889 0)
(2.48446 3.25832 0)
(2.56217 3.68979 0)
(2.62583 4.17368 0)
(2.66113 4.72497 0)
(2.64148 5.3632 0)
(2.51478 6.10964 0)
(2.17019 6.97884 0)
(1.31392 7.80824 0)
(0.443206 -0.231977 0)
(0.952886 -0.14912 0)
(1.5528 -0.0779175 0)
(1.93091 -0.0496137 2.60869e-21)
(2.17832 -0.0302469 0)
(2.30831 -0.00729515 0)
(2.30227 0.0123447 0)
(2.19502 0.0410668 0)
(1.95236 0.0740877 0)
(1.15377 0.139652 -1.07625e-22)
(0.0678254 0.38305 0)
(-1.52637 0.167846 0)
(-2.99863 0.772271 -5.81903e-21)
(-6.4686 -0.271475 -3.6633e-20)
(-8.24359 0.00734132 0)
(-8.59284 -0.414542 3.73409e-21)
(-8.37207 -0.587347 -3.99873e-21)
(-8.39776 0.124534 1.85915e-20)
(-8.44195 1.73951 0)
(-26.4998 -11.8959 -6.26335e-19)
(-17.9524 -5.96192 -2.04883e-20)
(-15.7046 -1.5232 -1.17456e-20)
(-16.3118 -1.54624 -7.14772e-21)
(-12.8506 -4.20365 4.07657e-19)
(8.09626 -3.78798 0)
(18.0708 -1.38948 -1.94463e-19)
(22.2251 -0.631835 0)
(24.1029 -0.311755 8.66035e-20)
(25.3814 -0.373306 1.2209e-19)
(26.5562 -0.282735 0)
(26.9463 -0.00217139 3.47792e-20)
(26.4039 0.24218 -1.23022e-20)
(25.8718 0.0750946 3.72095e-21)
(25.5421 0.0245995 -2.37416e-21)
(25.3202 0.0105747 0)
(25.1559 0.00503016 0)
(25.0307 0.00135713 -5.79636e-22)
(24.9396 -0.0018087 0)
(24.8789 -0.00377984 3.24671e-22)
(24.8412 -0.00334945 0)
(24.8366 -0.0151431 0)
(24.8472 -0.00947232 2.02155e-22)
(24.8083 0.0125155 0)
(24.7323 0.0104247 0)
(24.6706 0.00516294 8.26971e-23)
(24.6889 -0.0495491 1.69021e-22)
(24.7808 -0.0426702 0)
(24.7123 0.0440139 -7.57807e-23)
(24.4967 0.0809345 2.81228e-22)
(24.3605 0.0199059 -7.62206e-23)
(24.2649 0.00939063 0)
(24.1814 0.00753709 -1.02554e-22)
(24.112 0.00538129 0)
(24.0644 0.00280795 4.09017e-23)
(24.0383 0.00102557 0)
(24.026 0.000167565 0)
(24.0213 -0.00037662 3.25359e-26)
(24.0212 -0.000714307 -1.22358e-26)
(24.025 -0.00116915 0)
(24.0291 -0.00146168 0)
(0.512747 -0.667832 0)
(1.05838 -0.42939 0)
(1.50562 -0.30476 -2.89422e-21)
(1.85252 -0.21113 0)
(2.08873 -0.133054 0)
(2.21401 -0.0514924 3.54265e-23)
(2.21929 0.0315422 1.51431e-21)
(2.1156 0.113205 0)
(1.84236 0.237312 3.84025e-24)
(1.41391 0.397384 -2.10059e-21)
(0.905282 0.735595 7.63549e-24)
(0.112239 0.834609 2.63332e-20)
(-1.05034 0.757816 -7.06787e-21)
(-0.790516 0.753342 0)
(-1.297 2.2479 0)
(-5.07766 0.524451 -1.38752e-19)
(-7.15633 -0.0433523 0)
(-7.86919 0.0414174 0)
(-6.07115 0.0756394 -4.0623e-22)
(0.438924 4.87001 0)
(-6.04501 1.2746 0)
(-6.38476 -1.64485 0)
(-2.19885 -2.60336 -3.29266e-19)
(17.9158 -9.42325 1.27256e-18)
(16.4563 -6.57487 -7.26078e-20)
(19.6223 -3.28404 1.01652e-19)
(22.2598 -1.79554 0)
(24.0522 -1.02476 0)
(25.1893 -0.685528 4.97502e-20)
(25.7786 -0.437347 -1.4731e-23)
(26.0402 -0.0815937 0)
(26.136 0.19328 1.27362e-23)
(26.0732 0.203739 -8.05689e-21)
(25.9117 0.154048 0)
(25.754 0.115334 0)
(25.6252 0.0877624 -1.57661e-21)
(25.5298 0.0644294 0)
(25.4671 0.0429585 0)
(25.4345 0.0240894 0)
(25.4257 0.00829745 -2.08538e-22)
(25.4286 -0.00510543 -7.32103e-23)
(25.4314 0.00136355 -1.95577e-24)
(25.4297 0.0209591 7.50604e-23)
(25.4245 0.0275918 0)
(25.4207 0.0104216 -4.68262e-23)
(25.4139 -0.0202658 0)
(25.3839 -0.00416534 3.68156e-22)
(25.344 0.0577807 -1.5308e-22)
(25.3107 0.080686 9.65942e-24)
(25.2583 0.0621453 -2.05415e-23)
(25.2022 0.0522986 4.98354e-23)
(25.1421 0.048496 9.43508e-23)
(25.079 0.0400284 -2.02579e-22)
(25.0281 0.0264621 0)
(24.9949 0.0149638 0)
(24.975 0.00795506 0)
(24.9625 0.00413396 0)
(24.9541 0.00169137 7.91532e-24)
(24.9485 -0.000214445 -6.69783e-24)
(24.9443 -0.00140947 0)
(0.532011 -0.935593 0)
(1.05311 -0.714598 -6.80529e-22)
(1.44971 -0.535654 0)
(1.78789 -0.390325 -1.95835e-21)
(2.01855 -0.249595 -1.49447e-21)
(2.14042 -0.113684 1.20153e-22)
(2.14545 0.0332617 0)
(2.04229 0.169816 4.31547e-21)
(1.79077 0.370556 0)
(1.44824 0.581232 0)
(1.04932 0.836006 0)
(0.825116 1.19643 0)
(0.324192 1.24397 0)
(-0.239812 0.729432 0)
(-0.240779 1.082 0)
(1.13039 2.12931 0)
(1.68702 -0.0185169 0)
(4.71011 -1.42845 -4.03187e-19)
(3.99485 -0.427242 0)
(5.55339 3.76083 0)
(4.38449 3.59456 0)
(7.67871 -4.11023 0)
(20.6033 -9.26975 0)
(20.6546 -9.72448 0)
(19.7408 -7.5487 0)
(20.8186 -4.78187 0)
(22.4454 -2.96505 0)
(23.8152 -1.82505 0)
(24.7396 -1.14856 4.16946e-20)
(25.2081 -0.676579 0)
(25.4125 -0.217327 -1.59238e-20)
(25.5416 0.130225 0)
(25.5851 0.236642 0)
(25.5294 0.222102 0)
(25.4412 0.181291 0)
(25.3614 0.139808 0)
(25.307 0.0999657 -5.59633e-22)
(25.2808 0.0626629 0)
(25.2803 0.0301412 0)
(25.2971 0.00674848 0)
(25.3162 -0.00617396 1.44508e-22)
(25.3336 -0.00201868 -5.21553e-24)
(25.3519 0.015722 -5.59593e-23)
(25.3688 0.0247359 0)
(25.3797 0.0122921 -5.99042e-23)
(25.3732 -0.00266742 0)
(25.3446 0.0207282 0)
(25.3198 0.0687551 0)
(25.3119 0.0879823 0)
(25.3057 0.0772323 -3.90653e-24)
(25.2955 0.0714672 0)
(25.2685 0.0753645 -2.07691e-22)
(25.2234 0.068081 0)
(25.1833 0.0469437 0)
(25.1573 0.0277032 -3.70104e-23)
(25.1411 0.0158805 2.91736e-23)
(25.1299 0.00973241 -4.62273e-23)
(25.1205 0.00608871 7.93037e-24)
(25.1122 0.00349041 0)
(25.105 0.00166631 7.89843e-25)
(0.676129 -1.12543 0)
(1.09065 -1.00588 0)
(1.45994 -0.779296 0)
(1.74962 -0.578234 0)
(1.96613 -0.387251 2.45204e-21)
(2.09324 -0.192236 0)
(2.10715 0.0160184 0)
(1.99283 0.216743 -7.78329e-24)
(1.74509 0.476973 0)
(1.43483 0.723163 -3.52701e-24)
(1.07066 0.940625 8.18144e-21)
(0.847475 1.20535 0)
(0.758433 1.4336 0)
(0.60269 1.04685 -5.27374e-23)
(-0.0668771 0.791505 -1.37735e-22)
(0.849701 1.63929 -4.83693e-23)
(2.19481 -0.356046 -3.88496e-20)
(1.76213 -1.29251 0)
(1.98086 -0.929635 5.3008e-21)
(2.532 1.10252 0)
(6.52693 3.7368 -1.2618e-21)
(17.4483 -8.05533 -5.65997e-23)
(22.1329 -10.1142 5.21879e-23)
(21.6888 -9.51008 6.89794e-22)
(21.174 -7.91384 -9.28641e-21)
(21.6066 -5.71134 0)
(22.617 -3.87216 0)
(23.5907 -2.50877 -1.37262e-22)
(24.2725 -1.56103 9.2921e-23)
(24.6223 -0.891922 0)
(24.776 -0.350687 1.44546e-20)
(24.8869 0.0425555 0)
(24.9651 0.218999 0)
(24.9839 0.246313 0)
(24.9709 0.215057 -4.79228e-21)
(24.956 0.166308 0)
(24.9578 0.113177 0)
(24.9801 0.0624927 -4.04838e-22)
(25.0204 0.0185661 6.60276e-22)
(25.0701 -0.00892797 -2.72356e-22)
(25.1122 -0.020459 -3.03647e-22)
(25.1494 -0.0176383 0)
(25.1862 -3.73569e-05 8.50345e-23)
(25.2184 0.0131738 0)
(25.2392 0.00881411 8.78282e-23)
(25.2417 0.00450942 -1.46858e-22)
(25.2276 0.0307374 0)
(25.2152 0.071709 -1.1004e-22)
(25.2219 0.084638 0)
(25.2455 0.0715511 1.99775e-23)
(25.2741 0.0695246 -4.55229e-23)
(25.2808 0.0885507 1.23177e-22)
(25.2537 0.0889895 -1.14656e-22)
(25.2263 0.0621139 -8.4323e-23)
(25.2102 0.0370743 0)
(25.199 0.0220931 2.95285e-23)
(25.1902 0.0148856 2.4087e-23)
(25.1806 0.0111079 -7.68563e-24)
(25.1708 0.00840762 0)
(25.161 0.00602779 0)
(0.995911 -1.46541 1.4281e-22)
(1.22249 -1.24841 1.42457e-21)
(1.45844 -0.99567 0)
(1.69703 -0.76147 -2.39085e-21)
(1.91452 -0.538728 2.16506e-21)
(2.04422 -0.287448 0)
(2.05314 -0.015206 0)
(1.92544 0.260638 -1.22922e-23)
(1.66635 0.565151 1.13968e-23)
(1.35993 0.84735 -5.99627e-21)
(1.03393 1.06543 -7.55796e-21)
(0.772948 1.24265 -1.2616e-23)
(0.638048 1.4183 1.17397e-20)
(0.562825 1.32184 0)
(-0.132314 0.998494 -6.74254e-25)
(0.53549 1.07299 5.76921e-21)
(1.86682 -0.166531 0)
(1.46647 -1.18847 -1.29226e-20)
(1.52478 -1.08894 7.1045e-21)
(1.23566 0.383703 0)
(8.58471 -1.69853 -1.29714e-18)
(22.239 -10.5692 -8.42107e-23)
(22.2422 -10.1333 0)
(22.069 -9.43486 0)
(21.8376 -8.16522 1.60697e-20)
(22.0691 -6.35594 2.23918e-22)
(22.6948 -4.57541 0)
(23.3243 -3.06734 0)
(23.7541 -1.91005 1.12302e-22)
(23.975 -1.08427 0)
(24.0911 -0.475918 -2.47979e-20)
(24.203 -0.0534757 -3.75544e-23)
(24.3205 0.164987 4.73554e-21)
(24.4136 0.225516 -6.02212e-21)
(24.4847 0.207824 4.0031e-21)
(24.5459 0.158043 2.6096e-21)
(24.6133 0.0966034 0)
(24.6902 0.0373565 -8.69404e-25)
(24.7738 -0.0140958 0)
(24.859 -0.0415376 3.16789e-22)
(24.9246 -0.0466434 1.69158e-22)
(24.98 -0.0441184 2.09508e-23)
(25.0332 -0.0252347 -3.05908e-23)
(25.0777 -0.00534377 7.09451e-23)
(25.1065 0.000270867 -1.17888e-22)
(25.1178 0.00393705 -1.69638e-22)
(25.1188 0.0328461 3.20933e-22)
(25.1186 0.0695205 3.69503e-25)
(25.1353 0.0720433 -9.98796e-23)
(25.1765 0.0498352 5.3063e-23)
(25.2309 0.0479278 3.96953e-23)
(25.2674 0.0878301 0)
(25.2549 0.103553 1.19484e-22)
(25.2383 0.07151 -6.64454e-23)
(25.2306 0.0432001 0)
(25.2215 0.0271469 2.90358e-23)
(25.2134 0.0198008 2.64011e-23)
(25.2029 0.0169611 2.32217e-26)
(25.1915 0.0146214 0)
(25.1787 0.011891 9.42022e-27)
(1.08041 -1.82182 1.73348e-22)
(1.27091 -1.41627 0)
(1.42653 -1.17567 -4.80197e-24)
(1.64729 -0.945246 0)
(1.86228 -0.699701 0)
(1.98652 -0.397334 -2.50551e-21)
(1.99029 -0.0599461 0)
(1.84908 0.296064 -1.09843e-21)
(1.57737 0.652453 3.48752e-21)
(1.26227 0.960501 -1.11506e-20)
(0.949437 1.19029 7.34385e-21)
(0.639544 1.34738 1.21905e-20)
(0.342404 1.58874 -6.29215e-20)
(-0.0724933 1.6886 -7.34846e-20)
(-0.450687 1.14769 0)
(-0.195752 0.514668 1.91705e-19)
(0.826057 -0.667908 0)
(1.34141 -1.1431 0)
(1.35792 -1.15115 3.66793e-21)
(0.340087 0.368131 0)
(21.7918 -11.1123 0)
(22.0135 -10.7167 -2.51665e-20)
(22.1432 -10.2151 -4.43174e-20)
(22.1652 -9.51677 0)
(22.1357 -8.40549 -2.17547e-20)
(22.3 -6.84079 0)
(22.6486 -5.11032 3.89271e-20)
(22.9596 -3.49352 0)
(23.1496 -2.18232 5.31525e-20)
(23.2736 -1.26436 0)
(23.4054 -0.621511 -9.63434e-21)
(23.5784 -0.185961 5.49556e-21)
(23.7752 0.0594583 0)
(23.9593 0.146466 -1.6872e-21)
(24.1183 0.14724 1.0843e-21)
(24.2554 0.105591 -5.91229e-22)
(24.3824 0.0441489 1.74637e-24)
(24.5051 -0.0152944 2.04006e-22)
(24.622 -0.0674392 -2.07263e-22)
(24.7318 -0.091395 -3.13944e-24)
(24.8157 -0.0823565 0)
(24.8805 -0.0777334 -1.09189e-22)
(24.9423 -0.0572037 -1.25078e-22)
(24.9954 -0.0295986 0)
(25.03 -0.0121706 4.83883e-25)
(25.043 -0.00157373 7.1526e-23)
(25.0516 0.0278324 3.5533e-23)
(25.0635 0.0620539 -7.04075e-24)
(25.0895 0.0544422 2.45257e-22)
(25.1359 0.0209061 1.01748e-22)
(25.1927 0.013814 1.89363e-23)
(25.2472 0.0717578 3.22273e-22)
(25.2534 0.110762 -1.60918e-22)
(25.2464 0.0761554 0)
(25.2431 0.0473533 1.42463e-22)
(25.2308 0.0322934 0)
(25.2194 0.0244584 3.19402e-23)
(25.2082 0.0226791 0)
(25.1957 0.0209273 0)
(25.1807 0.0189429 0)
(1.09962 -2.04019 -1.97822e-22)
(1.22189 -1.57338 0)
(1.36063 -1.33149 0)
(1.61365 -1.14204 3.08183e-21)
(1.81548 -0.871343 0)
(1.92258 -0.520786 0)
(1.91308 -0.115868 0)
(1.76228 0.323108 0)
(1.48538 0.738204 0)
(1.15351 1.07077 0)
(0.837706 1.31926 0)
(0.510555 1.49302 1.07279e-20)
(0.180789 1.68294 0)
(0.0100893 1.7963 0)
(-0.0879637 1.35926 7.34715e-21)
(0.130011 0.428666 0)
(0.730617 -0.645434 1.50066e-23)
(1.28458 -1.22278 0)
(1.45376 -1.35061 1.0952e-22)
(22.0836 -12.2738 0)
(21.4244 -11.3406 0)
(21.7268 -10.9067 -2.57731e-20)
(21.9663 -10.3985 -2.46391e-20)
(22.1241 -9.69359 2.40852e-20)
(22.2138 -8.65992 -2.62531e-20)
(22.3258 -7.2161 0)
(22.4158 -5.49088 2.01309e-22)
(22.4042 -3.82685 1.84283e-22)
(22.4529 -2.46331 0)
(22.6006 -1.46584 -5.9948e-21)
(22.8572 -0.782062 0)
(23.1596 -0.326547 3.11833e-21)
(23.4745 -0.0590937 -5.72941e-23)
(23.753 0.0612044 8.316e-21)
(23.9755 0.0924239 0)
(24.1653 0.0733974 -2.55434e-20)
(24.3164 0.0124825 2.55141e-20)
(24.4495 -0.0418549 2.37958e-20)
(24.5707 -0.0911409 1.12374e-20)
(24.6682 -0.11729 1.01855e-20)
(24.7508 -0.101848 0)
(24.8184 -0.0957142 -8.80967e-21)
(24.8769 -0.0753966 -8.29134e-21)
(24.9346 -0.0444493 2.20931e-23)
(24.9779 -0.0195669 0)
(24.9905 -0.00474995 -5.70708e-21)
(24.9937 0.0217657 4.28102e-21)
(25.0217 0.0531577 -2.70079e-21)
(25.0737 0.0413744 0)
(25.1226 0.00312101 -1.21162e-21)
(25.1559 -0.00525789 0)
(25.1917 0.056709 0)
(25.238 0.112135 0)
(25.2461 0.0777708 0)
(25.2361 0.0495553 0)
(25.216 0.0382903 0)
(25.2 0.0284782 0)
(25.1902 0.0270639 2.13532e-22)
(25.1783 0.0254725 6.90748e-23)
(25.1683 0.0250573 -1.15155e-23)
(1.16065 -2.18026 0)
(1.12797 -1.7218 7.17861e-25)
(1.34157 -1.51936 2.63141e-21)
(1.56466 -1.32635 3.91878e-21)
(1.74464 -1.03947 0)
(1.84397 -0.653777 0)
(1.82241 -0.182616 0)
(1.66027 0.324888 -8.50724e-22)
(1.39203 0.818125 0)
(1.06397 1.18993 0)
(0.717028 1.45419 0)
(0.37457 1.64612 8.64889e-21)
(0.0494084 1.79725 0)
(-0.115565 1.85889 0)
(-0.0777314 1.45776 4.08713e-21)
(0.149171 0.467062 0)
(0.672128 -0.798744 0)
(1.46736 -1.45775 0)
(19.5062 -12.3662 -2.23394e-19)
(20.6766 -11.9731 -2.97844e-20)
(21.0413 -11.5984 0)
(21.4296 -11.1727 -2.66787e-20)
(21.7586 -10.6449 -2.73393e-20)
(21.9916 -9.92726 -2.77826e-20)
(22.1186 -8.91224 -3.07144e-20)
(22.1064 -7.50708 0)
(21.864 -5.80038 0)
(21.5831 -4.03815 0)
(21.3863 -2.59389 0)
(21.5967 -1.81075 0)
(21.7707 -1.20568 0)
(22.0024 -0.768865 3.41228e-21)
(22.2605 -0.454728 0)
(22.4952 -0.2407 0)
(22.6273 -0.0476187 1.00919e-21)
(22.514 0.154872 -5.39105e-21)
(22.4372 0.00516317 -3.03399e-23)
(22.4111 -0.105369 0)
(22.4244 -0.159552 0)
(22.4428 -0.179755 0)
(22.4728 -0.16203 0)
(22.5186 -0.147946 0)
(22.5745 -0.132639 0)
(22.663 -0.113662 0)
(22.8176 -0.127102 0)
(23.0659 -0.175617 0)
(23.3107 -0.11926 0)
(23.4912 -0.0422785 0)
(23.5956 -0.0177589 0)
(23.6208 -0.0205816 -3.4553e-22)
(23.5351 0.0349521 0)
(23.3081 0.235272 0)
(23.144 0.182582 0)
(23.0811 0.0955236 0)
(23.0677 0.0608047 -1.05875e-22)
(23.0779 0.045916 0)
(23.0925 0.0320703 0)
(23.1097 0.0286447 0)
(23.129 0.0271179 0)
(23.1539 0.0205608 -1.63002e-23)
(1.2083 -2.30577 -1.91924e-22)
(1.07897 -1.79192 0)
(1.29595 -1.69859 6.76792e-21)
(1.49861 -1.50213 0)
(1.66296 -1.2116 0)
(1.75591 -0.794378 0)
(1.72551 -0.261491 -2.11353e-21)
(1.55269 0.317864 0)
(1.27641 0.872152 -1.88079e-21)
(0.946021 1.30416 0)
(0.577235 1.60074 2.80266e-21)
(0.217096 1.80506 -6.36541e-21)
(-0.115848 1.93104 0)
(-0.337652 1.93581 0)
(-0.378301 1.55731 -2.98622e-20)
(-0.220415 0.513546 1.37219e-20)
(0.410345 -0.903973 -1.50524e-19)
(3.58845 -3.93423 -1.87859e-18)
(19.8884 -12.4312 -2.07007e-20)
(20.2787 -12.2205 0)
(20.7035 -11.9129 2.57318e-20)
(21.1515 -11.4866 -2.87582e-20)
(21.5233 -10.9309 0)
(21.7668 -10.1789 3.23561e-20)
(21.8233 -9.16441 0)
(21.5873 -7.77817 -8.77582e-20)
(21.3509 -5.37552 1.55985e-19)
(20.5054 -3.99449 0)
(20.2199 -2.74905 0)
(20.0889 -1.83177 0)
(20.0445 -1.17946 1.66643e-20)
(20.0796 -0.729648 1.19777e-20)
(20.1629 -0.424819 -1.57066e-20)
(20.2618 -0.219393 0)
(20.3111 -0.0280524 2.10583e-22)
(20.3769 0.132929 -1.71575e-21)
(20.4213 0.0288072 -3.95153e-21)
(20.3969 -0.0834193 7.01296e-21)
(20.3707 -0.148448 -2.98616e-21)
(20.3529 -0.176369 -2.58729e-21)
(20.3552 -0.175454 1.13517e-21)
(20.3845 -0.171446 -9.12596e-25)
(20.4382 -0.170892 -1.24796e-21)
(20.5287 -0.179603 -1.42094e-21)
(20.6617 -0.223684 -1.9493e-21)
(20.7873 -0.266792 1.65173e-21)
(20.8902 -0.201063 0)
(20.9994 -0.098395 -2.19287e-22)
(21.0827 -0.0364796 -1.48658e-24)
(21.0986 0.0069709 0)
(21.0388 0.108662 0)
(21.0081 0.261481 0)
(21.065 0.204071 0)
(21.086 0.102829 -3.71578e-23)
(21.1083 0.0526999 0)
(21.1446 0.0296126 0)
(21.1841 0.0155894 1.53481e-22)
(21.2248 0.0102763 1.11945e-22)
(21.268 0.00667485 6.90961e-23)
(21.3141 -0.00365794 4.27767e-23)
(1.2314 -2.38631 0)
(1.05911 -1.82315 0)
(1.24959 -1.85993 0)
(1.42296 -1.66666 0)
(1.56618 -1.38266 0)
(1.65678 -0.944039 0)
(1.62713 -0.358391 0)
(1.45002 0.298518 0)
(1.16995 0.913846 0)
(0.822735 1.42745 0)
(0.423564 1.76168 0)
(0.0459815 1.97341 0)
(-0.316281 2.09479 0)
(-0.642834 2.08685 0)
(-0.840691 1.71243 0)
(-0.746804 0.589405 0)
(-1.24987 -0.0140566 0)
(18.653 -12.8194 0)
(19.269 -12.6908 0)
(19.8119 -12.5301 0)
(20.3759 -12.2652 0)
(20.8775 -11.8298 0)
(21.2383 -11.2253 0)
(21.3977 -10.4399 0)
(21.3569 -9.41576 0)
(20.2381 -7.20469 0)
(19.3103 -5.6024 1.61763e-20)
(18.7633 -4.02813 0)
(18.434 -2.77648 0)
(18.2438 -1.87181 0)
(18.1349 -1.23472 0)
(18.0929 -0.797528 0)
(18.0975 -0.497351 0)
(18.1282 -0.282093 0)
(18.1604 -0.0831368 0)
(18.2571 0.0645995 0)
(18.3469 0.0270088 0)
(18.3627 -0.062836 0)
(18.3492 -0.130395 0)
(18.3355 -0.168162 0)
(18.3397 -0.184001 0)
(18.3706 -0.195218 0)
(18.4282 -0.211107 0)
(18.5141 -0.238373 0)
(18.615 -0.284194 0)
(18.6881 -0.309752 0)
(18.7417 -0.25271 0)
(18.8124 -0.154896 0)
(18.8821 -0.0717049 3.21975e-22)
(18.9192 0.00469846 7.12926e-22)
(18.9367 0.110327 0)
(19.0194 0.204399 0)
(19.1491 0.162234 0)
(19.2324 0.079464 0)
(19.2936 0.0278242 9.76951e-23)
(19.3538 0.00119125 -6.12536e-23)
(19.4132 -0.0129399 8.31812e-23)
(19.4718 -0.0191141 0)
(19.5302 -0.0237426 7.41489e-23)
(19.586 -0.0331424 0)
(1.2591 -2.42517 1.97885e-21)
(1.02437 -1.90775 0)
(1.19951 -1.97804 -7.70448e-21)
(1.33301 -1.8156 5.54305e-21)
(1.45601 -1.54487 0)
(1.55731 -1.11714 0)
(1.54456 -0.474825 0)
(1.36255 0.272137 2.08201e-21)
(1.05122 0.9517 8.61358e-23)
(0.688412 1.53433 0)
(0.291348 1.9272 -1.84479e-21)
(-0.126259 2.16134 0)
(-0.565264 2.31579 0)
(-0.947093 2.30444 -7.21972e-21)
(-1.25884 1.95634 -3.32201e-20)
(-1.23237 0.885902 3.81315e-19)
(17.9057 -14.2346 -1.49687e-21)
(17.7275 -13.0721 0)
(18.5345 -13.1037 -5.31304e-20)
(19.3445 -12.9691 6.1641e-20)
(20.0638 -12.6831 1.22413e-22)
(20.5815 -12.1832 -6.95942e-20)
(20.8399 -11.5136 3.27969e-20)
(20.9252 -10.6705 9.46189e-20)
(19.7864 -8.84369 0)
(18.4517 -7.14076 1.00179e-22)
(17.4294 -5.44146 1.97256e-20)
(16.7808 -3.96507 0)
(16.3929 -2.78331 1.70096e-20)
(16.1797 -1.89573 1.35028e-20)
(16.067 -1.26506 -1.01144e-20)
(16.0177 -0.831949 7.27494e-21)
(16.009 -0.535335 0)
(16.0269 -0.321917 0)
(16.0673 -0.140399 0)
(16.1669 -0.0114308 0)
(16.276 -0.00639503 1.62442e-21)
(16.3357 -0.0641697 -2.37155e-21)
(16.3614 -0.124097 7.87958e-24)
(16.3791 -0.167771 -2.48651e-21)
(16.4079 -0.197285 -2.35415e-21)
(16.4568 -0.222907 0)
(16.5261 -0.25212 1.20396e-21)
(16.6108 -0.288429 0)
(16.694 -0.327722 0)
(16.7513 -0.339087 0)
(16.7963 -0.289062 0)
(16.8577 -0.201546 0)
(16.9312 -0.113247 0)
(17.0021 -0.028035 -6.80596e-22)
(17.0863 0.0611239 0)
(17.2232 0.118148 -6.72798e-22)
(17.3799 0.0905044 -3.45021e-22)
(17.499 0.0306135 1.6051e-22)
(17.5899 -0.0137742 1.21902e-22)
(17.67 -0.0388767 0)
(17.7443 -0.0514884 8.96584e-23)
(17.8144 -0.0566888 1.20092e-22)
(17.8803 -0.05972 0)
(17.9377 -0.0639599 2.67623e-23)
(1.14866 -2.38238 -5.87284e-22)
(0.976629 -2.01296 0)
(1.09685 -2.05621 0)
(1.1947 -1.94929 -5.91651e-21)
(1.32326 -1.7014 0)
(1.46092 -1.30299 5.40262e-21)
(1.43201 -0.612136 4.62465e-21)
(1.25549 0.212753 0)
(0.958332 0.991756 6.00687e-21)
(0.562882 1.63458 -1.91124e-21)
(0.141862 2.09691 5.67267e-21)
(-0.313999 2.3781 0)
(-0.761985 2.54053 0)
(-1.12332 2.53026 0)
(-1.65711 2.38154 4.44926e-20)
(1.8665 -2.31886 -8.37912e-20)
(15.7771 -13.8646 0)
(16.9685 -13.6905 0)
(18.0458 -13.6725 6.2304e-20)
(19.0256 -13.5199 0)
(19.7955 -13.1432 -7.25916e-20)
(20.2029 -12.5212 0)
(20.3379 -11.751 5.38621e-20)
(19.3948 -10.117 3.22968e-20)
(17.8659 -8.32046 2.13992e-20)
(16.5509 -6.6848 1.99325e-20)
(15.4978 -5.17777 0)
(14.7743 -3.84818 0)
(14.3282 -2.75552 -1.26442e-20)
(14.0836 -1.91126 0)
(13.9669 -1.29714 7.54441e-21)
(13.926 -0.869488 5.41472e-21)
(13.9302 -0.575933 0)
(13.9636 -0.367518 2.21915e-21)
(14.0261 -0.204171 9.7435e-22)
(14.1353 -0.0914038 -1.72025e-23)
(14.2616 -0.0640127 1.08043e-21)
(14.3622 -0.0951839 1.78773e-21)
(14.4356 -0.143331 0)
(14.4975 -0.18809 2.1995e-21)
(14.5629 -0.225997 -2.19403e-21)
(14.6392 -0.261513 2.22628e-21)
(14.726 -0.29845 -1.15953e-21)
(14.8168 -0.336477 1.22051e-21)
(14.8984 -0.367386 -1.26202e-21)
(14.9603 -0.369699 -1.11285e-21)
(15.0156 -0.326095 0)
(15.0861 -0.250702 -1.90019e-22)
(15.1749 -0.168129 -2.15106e-22)
(15.278 -0.0886519 -5.78905e-22)
(15.4045 -0.0182745 0)
(15.5649 0.0193884 0)
(15.7311 0.00415475 0)
(15.8685 -0.0352266 0)
(15.9788 -0.068388 0)
(16.0734 -0.0880677 7.76989e-23)
(16.158 -0.0968751 9.55594e-23)
(16.2345 -0.098655 0)
(16.3022 -0.0971205 3.94228e-25)
(16.3572 -0.0935452 2.68277e-23)
(1.03247 -2.28936 0)
(0.917561 -2.05141 0)
(0.926763 -2.09348 4.79273e-21)
(0.98211 -2.05103 0)
(1.1765 -1.90204 0)
(1.31883 -1.49222 -8.90977e-21)
(1.29497 -0.7625 1.53455e-20)
(1.12544 0.124275 0)
(0.840062 1.00525 0)
(0.437615 1.73796 3.1779e-23)
(-0.0127937 2.26796 0)
(-0.476973 2.60327 0)
(-0.922308 2.7637 -5.62765e-21)
(-1.27855 2.74326 9.30758e-22)
(-2.38102 3.78481 2.43944e-18)
(14.1296 -14.5978 2.203e-19)
(15.3826 -14.5756 -3.59624e-20)
(16.5925 -14.426 -1.10767e-22)
(17.7934 -14.3531 -6.56679e-20)
(18.8394 -14.1283 0)
(19.507 -13.5876 0)
(19.7087 -12.8228 -9.08126e-20)
(18.8495 -11.272 -9.25721e-21)
(17.2633 -9.60659 2.65608e-20)
(15.8194 -7.80907 1.73853e-20)
(14.5855 -6.24977 0)
(13.5725 -4.87444 -1.26599e-20)
(12.8324 -3.6801 1.10966e-20)
(12.3494 -2.68909 -9.29279e-21)
(12.0726 -1.90858 0)
(11.9418 -1.32723 5.35403e-21)
(11.9044 -0.914018 -3.75637e-21)
(11.924 -0.627636 0)
(11.9805 -0.426803 1.53838e-21)
(12.0696 -0.279015 -7.09067e-22)
(12.1967 -0.179715 -3.1781e-22)
(12.3437 -0.14284 1.40086e-21)
(12.4812 -0.155765 0)
(12.6004 -0.192109 1.73952e-21)
(12.7076 -0.234032 0)
(12.8119 -0.274952 -2.02567e-21)
(12.9183 -0.314761 -4.73309e-24)
(13.0259 -0.353782 -1.09592e-21)
(13.1292 -0.389108 1.13176e-21)
(13.2205 -0.412329 0)
(13.2976 -0.409493 9.9103e-22)
(13.3721 -0.371945 6.6122e-22)
(13.4602 -0.308758 7.80012e-25)
(13.5679 -0.23704 1.37934e-22)
(13.6954 -0.168695 0)
(13.8448 -0.113071 0)
(14.0139 -0.0841511 0)