/*--------------------------------*- C++ -*----------------------------------*\
| =========                 |                                                 |
| \\      /  F ield         | OpenFOAM: The Open Source CFD Toolbox           |
|  \\    /   O peration     | Version:  v1912                                 |
|   \\  /    A nd           | Website:  www.openfoam.com                      |
|    \\/     M anipulation  |                                                 |
\*---------------------------------------------------------------------------*/
FoamFile
{
    version     2.0;
    format      ascii;
    class       volScalarField;
    location    "2";
    object      alpha.water;
}
// * * * * * * * * * * * * * * * * * * * * * * * * * * * * * * * * * * * * * //

dimensions      [0 0 0 0 0 0 0];


internalField   nonuniform List<scalar> 
20320
(
1
1
1
1
1
1
1
1
1
1
1
1
1
1
1
1
1
1
1
1
1
1
1
1
1
1
1
1
1
1
1
1
1
1
1
1
1
1
1
1
1
1
1
1
1
1
1
1
1
1
1
1
1
1
1
1
1
1
1
1
1
1
1
1
1
1
1
1
1
1
1
1
1
1
1
1
1
1
1
1
1
1
1
1
1
1
1
1
1
1
1
1
1
1
1
1
1
1
1
1
1
1
1
1
1
1
1
1
1
1
1
1
1
1
1
1
1
1
1
1
1
1
1
1
1
1
1
1
1
1
1
1
1
1
1
1
1
1
1
1
1
1
1
1
1
1
1
1
1
1
1
1
1
1
1
1
1
1
1
1
1
1
1
1
1
1
1
1
1
1
1
1
1
1
1
1
1
1
1
1
1
1
1
1
1
1
1
1
1
1
1
1
1
1
1
1
1
1
1
1
1
1
1
1
1
1
1
1
1
1
1
1
1
1
1
1
1
1
1
1
1
1
1
1
1
1
1
1
1
1
1
1
1
1
1
1
1
1
1
1
1
1
1
1
1
1
1
1
1
1
1
1
1
1
1
1
1
1
1
1
1
1
1
1
1
1
1
1
1
1
1
1
1
1
1
1
1
1
1
1
1
1
1
1
1
1
1
1
1
1
1
1
1
1
1
1
1
1
1
1
1
1
1
1
1
1
1
1
1
1
1
1
1
1
1
1
1
1
1
1
1
1
1
1
1
1
1
1
1
1
1
1
1
1
1
1
1
1
1
1
0.0724973
0.87006
1
1
1
1
1
1
1
1
1
1
1
1
1
1
1
1
1
1
-3.30281e-37
3.06413e-19
0.00131086
0.20016
0.727848
0.995727
1
1
1
1
1
1
1
0.991512
0.934066
0.910305
0.971454
1
1
1
-5.53618e-22
-6.63888e-22
-4.43599e-21
1.51759e-39
-1.66694e-19
1.96282e-19
0.116236
0.366756
0.455075
0.305207
0.141167
0.0574344
0.00612149
4.78094e-20
5.87948e-19
1.54971e-19
-1.07565e-18
0.0707608
0.918699
1
-6.50339e-215
-3.6024e-224
-2.2146e-229
-1.51358e-234
-8.80547e-240
-4.27682e-245
-1.74003e-250
-5.92598e-256
-1.72662e-261
-4.38414e-267
-9.61819e-273
-1.82981e-278
-3.03531e-284
-4.40596e-290
-6.08356e-296
-7.93861e-302
-9.70182e-308
-1.10272e-313
-1.15839e-319
0
0
0
0
0
0
0
0
0
0
0
0
0
0
0
0
0
0
0
0
0
0
0
0
0
0
0
0
0
0
0
0
0
0
0
0
0
0
0
0
0
-4.90283e-208
-9.71671e-217
-7.73967e-222
-5.89049e-227
-3.70555e-232
-1.92206e-237
-8.3023e-243
-3.00954e-248
-9.32286e-254
-2.51358e-259
-5.91079e-265
-1.21858e-270
-2.21434e-276
-3.53757e-282
-5.22174e-288
-7.3659e-294
-9.80017e-300
-1.21597e-305
-1.39434e-311
-1.46898e-317
-9.88131e-324
0
0
0
0
0
0
0
0
0
0
0
0
0
0
0
0
0
0
0
0
0
0
0
0
0
0
0
0
0
0
0
0
0
0
0
0
0
0
0
-1.19987e-201
-4.86198e-210
-4.60576e-215
-3.88291e-220
-2.64854e-225
-1.47478e-230
-6.79553e-236
-2.6177e-241
-8.56266e-247
-2.41867e-252
-5.91739e-258
-1.26292e-263
-2.3657e-269
-3.89668e-275
-5.82538e-281
-8.3508e-287
-1.13345e-292
-1.44191e-298
-1.70732e-304
-1.87237e-310
-1.89305e-316
-1.67982e-322
0
0
0
0
0
0
0
0
0
0
0
0
0
0
0
0
0
0
0
0
0
0
0
0
0
0
0
0
0
0
0
0
0
0
0
0
0
0
-1.42246e-195
-1.00368e-203
-1.09274e-208
-1.01573e-213
-7.52412e-219
-4.505e-224
-2.21867e-229
-9.08635e-235
-3.13852e-240
-9.27991e-246
-2.35435e-251
-5.16835e-257
-9.89189e-263
-1.65803e-268
-2.51398e-274
-3.64218e-280
-4.99885e-286
-6.46294e-292
-7.85085e-298
-8.91825e-304
-9.39141e-310
-9.05759e-316
-7.85564e-322
0
0
0
0
0
0
0
0
0
0
0
0
0
0
0
0
0
0
0
0
0
0
0
0
0
0
0
0
0
0
0
0
0
0
0
0
0
-9.73188e-190
-1.11017e-197
-1.37521e-202
-1.40508e-207
-1.12834e-212
-7.24656e-218
-3.80132e-223
-1.64952e-228
-6.00883e-234
-1.86376e-239
-4.93742e-245
-1.12837e-250
-2.24093e-256
-3.89138e-262
-6.12421e-268
-9.18184e-274
-1.30115e-279
-1.7321e-285
-2.15888e-291
-2.50767e-297
-2.69504e-303
-2.65311e-309
-2.37151e-315
-1.91203e-321
0
0
0
0
0
0
0
0
0
0
0
0
0
0
0
0
0
0
0
0
0
0
0
0
0
0
0
0
0
0
0
0
0
0
0
0
-4.37997e-184
-7.64697e-192
-1.0755e-196
-1.20929e-201
-1.05418e-206
-7.27487e-212
-4.06968e-217
-1.8739e-222
-7.22375e-228
-2.36576e-233
-6.61454e-239
-1.59798e-244
-3.35859e-250
-6.18073e-256
-1.03042e-261
-1.63608e-267
-2.44189e-273
-3.39045e-279
-4.35241e-285
-5.14067e-291
-5.57255e-297
-5.54596e-303
-5.07268e-309
-4.26613e-315
-3.29048e-321
0
0
0
0
0
0
0
0
0
0
0
0
0
0
0
0
0
0
0
0
0
0
0
0
0
0
0
0
0
0
0
0
0
0
0
-1.40133e-178
-3.59374e-186
-5.74222e-191
-7.13648e-196
-6.78615e-201
-5.061e-206
-3.03562e-211
-1.49016e-216
-6.10296e-222
-2.11551e-227
-6.25195e-233
-1.59595e-238
-3.54314e-244
-6.88511e-250
-1.206e-255
-2.01086e-261
-3.13593e-267
-4.5233e-273
-5.99445e-279
-7.2744e-285
-8.086e-291
-8.26657e-297
-7.81975e-303
-6.86626e-309
-5.58402e-315
-4.17485e-321
0
0
0
0
0
0
0
0
0
0
0
0
0
0
0
0
0
0
0
0
0
0
0
0
0
0
0
0
0
0
0
0
0
0
-3.30468e-173
-1.21729e-180
-2.21439e-185
-3.0536e-190
-3.18034e-195
-2.57153e-200
-1.65647e-205
-8.66735e-211
-3.75806e-216
-1.36957e-221
-4.2325e-227
-1.1248e-232
-2.58894e-238
-5.20131e-244
-9.37689e-250
-1.60833e-255
-2.58569e-261
-3.85641e-267
-5.31495e-273
-6.75833e-279
-7.9222e-285
-8.55272e-291
-8.51119e-297
-7.81945e-303
-6.63937e-309
-5.20026e-315
-3.74008e-321
0
0
0
0
0
0
0
0
0
0
0
0
0
0
0
0
0
0
0
0
0
0
0
0
0
0
0
0
0
0
0
0
0
-5.91817e-168
-3.09878e-175
-6.44425e-180
-9.89693e-185
-1.13214e-189
-9.93634e-195
-6.86708e-200
-3.81799e-205
-1.74388e-210
-6.63249e-216
-2.12546e-221
-5.82294e-227
-1.3758e-232
-2.83164e-238
-5.21187e-244
-9.15114e-250
-1.52022e-255
-2.36598e-261
-3.43135e-267
-4.62483e-273
-5.77829e-279
-6.66287e-285
-7.0573e-291
-6.85096e-297
-6.10744e-303
-5.02165e-309
-3.81811e-315
-2.66795e-321
0
0
0
0
0
0
0
0
0
0
0
0
0
0
0
0
0
0
0
0
0
0
0
0
0
0
0
0
0
0
0
0
-8.34404e-163
-6.15415e-170
-1.47149e-174
-2.52988e-179
-3.19393e-184
-3.05549e-189
-2.27456e-194
-1.3493e-199
-6.51324e-205
-2.59466e-210
-8.6632e-216
-2.46147e-221
-6.01329e-227
-1.27852e-232
-2.41876e-238
-4.37169e-244
-7.56017e-250
-1.2385e-255
-1.905e-261
-2.7318e-267
-3.63223e-273
-4.46213e-279
-5.04536e-285
-5.23431e-291
-4.97838e-297
-4.34864e-303
-3.49955e-309
-2.59522e-315
-1.76381e-321
0
0
0
0
0
0
0
0
0
0
0
0
0
0
0
0
0
0
0
0
0
0
0
0
0
0
0
0
0
0
0
-9.52113e-158
-9.78806e-165
-2.70537e-169
-5.24074e-174
-7.35068e-179
-7.71875e-184
-6.24187e-189
-3.9885e-194
-2.05515e-199
-8.677e-205
-3.05495e-210
-9.10868e-216
-2.32616e-221
-5.15777e-227
-1.00861e-232
-1.87546e-238
-3.3617e-244
-5.75656e-250
-9.32335e-256
-1.41452e-261
-1.99541e-267
-2.60705e-273
-3.1465e-279
-3.50078e-285
-3.57898e-291
-3.35386e-297
-2.88117e-303
-2.27402e-309
-1.65474e-315
-1.09683e-321
0
0
0
0
0
0
0
0
0
0
0
0
0
0
0
0
0
0
0
0
0
0
0
0
0
0
0
0
0
0
-8.8736e-153
-1.26542e-159
-4.0648e-164
-8.92513e-169
-1.39815e-173
-1.62015e-178
-1.43164e-183
-9.91352e-189
-5.49279e-194
-2.47754e-199
-9.27501e-205
-2.92306e-210
-7.85722e-216
-1.82669e-221
-3.71651e-227
-7.13037e-233
-1.31634e-238
-2.32684e-244
-3.91876e-250
-6.2441e-256
-9.3321e-262
-1.29835e-267
-1.67302e-273
-1.99053e-279
-2.18121e-285
-2.19626e-291
-2.03058e-297
-1.72543e-303
-1.34912e-309
-9.68579e-316
-6.27463e-322
0
0
0
0
0
0
0
0
0
0
0
0
0
0
0
0
0
0
0
0
0
0
0
0
0
0
0
0
0
-6.78398e-148
-1.34817e-154
-5.06409e-159
-1.26621e-163
-2.22362e-168
-2.85193e-173
-2.76196e-178
-2.07812e-183
-1.24198e-188
-6.01232e-194
-2.40516e-199
-8.06428e-205
-2.3e-210
-5.65903e-216
-1.21501e-221
-2.42854e-227
-4.66266e-233
-8.5559e-239
-1.49718e-244
-2.48988e-250
-3.91161e-256
-5.75524e-262
-7.87931e-268
-9.99854e-274
-1.17423e-279
-1.27414e-285
-1.27581e-291
-1.17511e-297
-9.90539e-304
-7.6094e-310
-5.31115e-316
-3.35965e-322
0
0
0
0
0
0
0
0
0
0
0
0
0
0
0
0
0
0
0
0
0
0
0
0
0
0
0
0
-4.2982e-143
-1.20244e-149
-5.31525e-154
-1.51948e-158
-3.00042e-163
-4.27406e-168
-4.55244e-173
-3.7372e-178
-2.42044e-183
-1.26465e-188
-5.43813e-194
-1.95394e-199
-5.9595e-205
-1.56547e-210
-3.58062e-216
-7.54096e-222
-1.5227e-227
-2.93031e-233
-5.3576e-239
-9.28178e-245
-1.52078e-250
-2.34892e-256
-3.40756e-262
-4.62472e-268
-5.84932e-274
-6.86605e-280
-7.43565e-286
-7.38209e-292
-6.68152e-298
-5.49829e-304
-4.11341e-310
-2.80174e-316
-1.67982e-322
0
0
0
0
0
0
0
0
0
0
0
0
0
0
0
0
0
0
0
0
0
0
0
0
0
0
0
-2.28882e-138
-9.11433e-145
-4.76392e-149
-1.5621e-153
-3.47917e-158
-5.52333e-163
-6.49568e-168
-5.84197e-173
-4.12155e-178
-2.33444e-183
-1.08343e-188
-4.18587e-194
-1.36821e-199
-3.8377e-205
-9.33644e-211
-2.0697e-216
-4.39317e-222
-8.88438e-228
-1.70486e-233
-3.09896e-239
-5.33982e-245
-8.72104e-251
-1.34622e-256
-1.95527e-262
-2.65485e-268
-3.34468e-274
-3.87758e-280
-4.11229e-286
-3.97929e-292
-3.51781e-298
-2.84162e-304
-2.08891e-310
-1.39074e-316
-7.90505e-323
0
0
0
0
0
0
0
0
0
0
0
0
0
0
0
0
0
0
0
0
0
0
0
0
0
0
-1.04364e-133
-5.94624e-140
-3.68479e-144
-1.38916e-148
-3.49688e-153
-6.20254e-158
-8.07451e-163
-7.9785e-168
-6.14673e-173
-3.78126e-178
-1.89621e-183
-7.88728e-189
-2.76592e-194
-8.29278e-200
-2.1495e-205
-5.03566e-211
-1.13233e-216
-2.43235e-222
-4.97341e-228
-9.66855e-234
-1.78606e-239
-3.12796e-245
-5.1721e-251
-8.01968e-257
-1.15752e-262
-1.54756e-268
-1.9078e-274
-2.1621e-280
-2.24996e-286
-2.14723e-292
-1.87311e-298
-1.48158e-304
-1.05503e-310
-6.74509e-317
-3.45846e-323
0
0
0
0
0
0
0
0
0
0
0
0
0
0
0
0
0
0
0
0
0
0
0
0
0
-4.15978e-129
-3.375e-135
-2.47696e-139
-1.07412e-143
-3.06031e-148
-6.07871e-153
-8.79033e-158
-9.58655e-163
-8.11057e-168
-5.45646e-173
-2.98062e-178
-1.34786e-183
-5.13242e-189
-1.66958e-194
-4.69814e-200
-1.18799e-205
-2.89672e-211
-6.75988e-217
-1.505e-222
-3.18449e-228
-6.37801e-234
-1.20335e-239
-2.12773e-245
-3.50951e-251
-5.37398e-257
-7.62828e-263
-1.00362e-268
-1.22256e-274
-1.37283e-280
-1.41131e-286
-1.32022e-292
-1.11711e-298
-8.51796e-305
-5.85041e-311
-3.61655e-317
-1.4822e-323
0
0
0
0
0
0
0
0
0
0
0
0
0
0
0
0
0
0
0
0
0
0
0
0
-1.46619e-124
-1.67604e-130
-1.44604e-134
-7.19531e-139
-2.3207e-143
-5.17568e-148
-8.35677e-153
-1.01377e-157
-9.51692e-163
-7.09197e-168
-4.28901e-173
-2.14724e-178
-9.05605e-184
-3.26618e-189
-1.0201e-194
-2.84601e-200
-7.61398e-206
-1.94826e-211
-4.74712e-217
-1.09434e-222
-2.36938e-228
-4.79382e-234
-9.04329e-240
-1.5906e-245
-2.60601e-251
-3.97116e-257
-5.61876e-263
-7.35347e-269
-8.84965e-275
-9.71631e-281
-9.6844e-287
-8.75187e-293
-7.17003e-299
-5.31626e-305
-3.54556e-311
-2.11161e-317
-9.88131e-324
0
0
0
0
0
0
0
0
0
0
0
0
0
0
0
0
0
0
0
0
0
0
0
-4.53511e-120
-7.2504e-126
-7.25832e-130
-4.12185e-134
-1.50294e-138
-3.7696e-143
-6.82125e-148
-9.25458e-153
-9.70431e-158
-8.07248e-163
-5.45086e-168
-3.0484e-173
-1.43627e-178
-5.78447e-184
-2.01531e-189
-6.21663e-195
-1.81852e-200
-5.06264e-206
-1.33512e-211
-3.32027e-217
-7.74902e-223
-1.69091e-228
-3.44147e-234
-6.5338e-240
-1.15641e-245
-1.9016e-251
-2.89065e-257
-4.03756e-263
-5.15972e-269
-6.01581e-275
-6.39706e-281
-6.20549e-287
-5.47747e-293
-4.37549e-299
-3.13394e-305
-1.99359e-311
-1.12219e-317
-0
0
0
0
0
0
0
0
0
0
0
0
0
0
0
0
0
0
0
0
0
0
0
-1.19944e-115
-2.69818e-121
-3.09153e-125
-1.98828e-129
-8.16787e-134
-2.30131e-138
-4.6668e-143
-7.08164e-148
-8.28891e-153
-7.6795e-158
-5.765e-163
-3.57903e-168
-1.8692e-173
-8.33498e-179
-3.21171e-184
-1.08949e-189
-3.47792e-195
-1.05247e-200
-3.00662e-206
-8.09404e-212
-2.05245e-217
-4.89013e-223
-1.08916e-228
-2.25381e-234
-4.31599e-240
-7.61932e-246
-1.23672e-251
-1.83903e-257
-2.50335e-263
-3.12185e-269
-3.56752e-275
-3.7269e-281
-3.5358e-287
-3.02136e-293
-2.30932e-299
-1.56743e-305
-9.41464e-312
-4.99329e-318
-0
0
0
0
0
0
0
0
0
0
0
0
0
0
0
0
0
0
0
0
0
0
-2.65555e-111
-8.54686e-117
-1.10995e-120
-8.01389e-125
-3.68852e-129
-1.16207e-133
-2.63178e-138
-4.45391e-143
-5.80717e-148
-5.98333e-153
-4.98326e-158
-3.42287e-163
-1.97304e-168
-9.69867e-174
-4.12049e-179
-1.539e-184
-5.40501e-190
-1.80486e-195
-5.69175e-201
-1.68827e-206
-4.70112e-212
-1.22637e-217
-2.98178e-223
-6.70425e-229
-1.38542e-234
-2.62229e-240
-4.55067e-246
-7.25573e-252
-1.06347e-257
-1.43121e-263
-1.76251e-269
-1.97507e-275
-2.00045e-281
-1.81967e-287
-1.48141e-293
-1.07449e-299
-6.89933e-306
-3.90205e-312
-1.93039e-318
-0
0
0
0
0
0
0
0
0
0
0
0
0
0
0
0
0
0
0
0
0
-4.90125e-107
-2.29612e-112
-3.35778e-116
-2.70537e-120
-1.38767e-124
-4.86565e-129
-1.22641e-133
-2.31144e-138
-3.36042e-143
-3.86781e-148
-3.60344e-153
-2.76885e-158
-1.78466e-163
-9.79915e-169
-4.64655e-174
-1.93157e-179
-7.53804e-185
-2.79684e-190
-9.79843e-196
-3.21965e-201
-9.86285e-207
-2.80463e-212
-7.38096e-218
-1.79127e-223
-3.99833e-229
-8.19175e-235
-1.54055e-240
-2.66327e-246
-4.22975e-252
-6.14843e-258
-8.12904e-264
-9.7227e-270
-1.04865e-275
-1.01669e-281
-8.83708e-288
-6.85234e-294
-4.69719e-300
-2.82329e-306
-1.4797e-312
-6.73713e-319
-0
0
0
0
0
0
0
0
0
0
0
0
0
0
0
0
0
0
0
0
-7.5366e-103
-5.21551e-108
-8.53704e-112
-7.6554e-116
-4.36398e-120
-1.70016e-124
-4.76685e-129
-1.00128e-133
-1.62781e-138
-2.10251e-143
-2.2059e-148
-1.91474e-153
-1.39707e-158
-8.68549e-164
-4.65445e-169
-2.17766e-174
-9.4753e-180
-3.88245e-185
-1.49217e-190
-5.36141e-196
-1.79291e-201
-5.55192e-207
-1.58702e-212
-4.18294e-218
-1.01656e-223
-2.2768e-229
-4.68426e-235
-8.82346e-241
-1.51529e-246
-2.36482e-252
-3.34142e-258
-4.26372e-264
-4.90716e-270
-5.08227e-276
-4.71444e-282
-3.89243e-288
-2.8337e-294
-1.80474e-300
-1.002e-306
-4.83929e-313
-2.02918e-319
0
0
0
0
0
0
0
0
0
0
0
0
0
0
0
0
0
0
0
-9.55521e-99
-9.91336e-104
-1.80667e-107
-1.79972e-111
-1.13844e-115
-4.92462e-120
-1.53581e-124
-3.596e-129
-6.5358e-134
-9.46489e-139
-1.11623e-143
-1.09093e-148
-8.97233e-154
-6.28761e-159
-3.79336e-164
-1.99835e-169
-9.71399e-175
-4.39869e-180
-1.85292e-185
-7.26199e-191
-2.65215e-196
-9.01448e-202
-2.8422e-207
-8.27156e-213
-2.21376e-218
-5.43921e-224
-1.22233e-229
-2.5006e-235
-4.63316e-241
-7.75678e-247
-1.17347e-252
-1.60349e-258
-1.97555e-264
-2.18554e-270
-2.15702e-276
-1.88816e-282
-1.45533e-288
-9.82348e-295
-5.78995e-301
-2.97055e-307
-1.32095e-313
-5.06664e-320
0
0
0
0
0
0
0
0
0
0
0
0
0
0
0
0
0
0
-9.87746e-95
-1.56098e-99
-3.16144e-103
-3.49618e-107
-2.45225e-111
-1.17695e-115
-4.07636e-120
-1.06171e-124
-2.15083e-129
-3.48006e-134
-4.59496e-139
-5.03557e-144
-4.64408e-149
-3.64601e-154
-2.46181e-159
-1.45683e-164
-7.96168e-170
-4.04284e-175
-1.90584e-180
-8.3352e-186
-3.38683e-191
-1.27963e-196
-4.48628e-202
-1.45123e-207
-4.29679e-213
-1.15794e-218
-2.83192e-224
-6.2796e-230
-1.25956e-235
-2.27886e-241
-3.71666e-247
-5.45921e-253
-7.20201e-259
-8.49182e-265
-8.89665e-271
-8.25236e-277
-6.74994e-283
-4.84143e-289
-3.03236e-295
-1.65086e-301
-7.76499e-308
-3.13806e-314
-1.08447e-320
0
0
0
0
0
0
0
0
0
0
0
0
0
0
0
0
0
-8.27665e-91
-2.02538e-95
-4.57073e-99
-5.61898e-103
-4.37738e-107
-2.33496e-111
-8.99667e-116
-2.61029e-120
-5.90127e-125
-1.06823e-129
-1.5827e-134
-1.95362e-139
-2.0355e-144
-1.8088e-149
-1.38253e-154
-9.29659e-160
-5.78687e-165
-3.34524e-170
-1.79702e-175
-8.94769e-181
-4.11455e-186
-1.74273e-191
-6.78495e-197
-2.42363e-202
-7.89915e-208
-2.33438e-213
-6.23299e-219
-1.50378e-224
-3.27916e-230
-6.44245e-236
-1.13563e-241
-1.79109e-247
-2.52166e-253
-3.16176e-259
-3.51925e-265
-3.46987e-271
-3.02041e-277
-2.30562e-283
-1.53231e-289
-8.81597e-296
-4.3688e-302
-1.85711e-308
-6.74528e-315
-2.08002e-321
0
0
0
0
0
0
0
0
0
0
0
0
0
0
0
0
-5.57441e-87
-2.15164e-91
-5.43027e-95
-7.44046e-99
-6.46069e-103
-3.84992e-107
-1.66207e-111
-5.42084e-116
-1.38204e-120
-2.83123e-125
-4.76264e-130
-6.69868e-135
-7.98135e-140
-8.13834e-145
-7.15323e-150
-5.55828e-155
-3.99744e-160
-2.65317e-165
-1.62617e-170
-9.19668e-176
-4.78048e-181
-2.27182e-186
-9.83339e-192
-3.87471e-197
-1.38889e-202
-4.51545e-208
-1.32519e-213
-3.49822e-219
-8.30273e-225
-1.76723e-230
-3.35631e-236
-5.67085e-242
-8.51934e-248
-1.13806e-253
-1.35012e-259
-1.41786e-265
-1.31249e-271
-1.06311e-277
-7.46932e-284
-4.52493e-290
-2.35663e-296
-1.05261e-302
-4.01845e-309
-1.30542e-315
-3.60668e-322
0
0
0
0
0
0
0
0
0
0
0
0
0
0
0
-2.97919e-83
-1.85626e-87
-5.25338e-91
-8.04211e-95
-7.8107e-99
-5.22646e-103
-2.54757e-107
-9.44676e-112
-2.75436e-116
-6.48447e-121
-1.25808e-125
-2.04394e-130
-2.81382e-135
-3.31441e-140
-3.36299e-145
-3.0348e-150
-2.52747e-155
-1.93167e-160
-1.35129e-165
-8.64754e-171
-5.05747e-176
-2.69793e-181
-1.3076e-186
-5.74506e-192
-2.28595e-197
-8.21933e-203
-2.65884e-208
-7.69184e-214
-1.98427e-219
-4.5604e-225
-9.31801e-231
-1.68974e-236
-2.71989e-242
-3.88819e-248
-4.9258e-254
-5.50427e-260
-5.39647e-266
-4.6147e-272
-3.41505e-278
-2.17499e-284
-1.18956e-290
-5.57829e-297
-2.23632e-303
-7.62048e-310
-2.1927e-316
-4.94066e-323
0
0
0
0
0
0
0
0
0
0
0
0
0
0
-1.25309e-79
-1.29176e-83
-4.11678e-87
-7.07191e-91
-7.7088e-95
-5.81575e-99
-3.21935e-103
-1.36612e-107
-4.59414e-112
-1.25504e-116
-2.83514e-121
-5.37046e-126
-8.60829e-131
-1.17631e-135
-1.37838e-140
-1.44181e-145
-1.38558e-150
-1.21955e-155
-9.79113e-161
-7.15177e-166
-4.74767e-171
-2.86343e-176
-1.56573e-181
-7.73318e-187
-3.43721e-192
-1.37e-197
-4.87536e-203
-1.54151e-208
-4.32202e-214
-1.07503e-219
-2.37346e-225
-4.64764e-231
-8.0602e-237
-1.23609e-242
-1.67072e-248
-1.98006e-254
-2.04765e-260
-1.84123e-266
-1.4329e-272
-9.6042e-279
-5.51884e-285
-2.71231e-291
-1.1381e-297
-4.0524e-304
-1.21548e-310
-3.05612e-317
-0
0
0
0
0
0
0
0
0
0
0
0
0
0
-4.12065e-76
-7.20935e-80
-2.60999e-83
-5.07088e-87
-6.25433e-91
-5.36552e-95
-3.40348e-99
-1.66832e-103
-6.52544e-108
-2.08378e-112
-5.51906e-117
-1.22616e-121
-2.30184e-126
-3.67128e-131
-4.99649e-136
-6.10043e-141
-6.80902e-146
-6.93594e-151
-6.4336e-156
-5.41757e-161
-4.12628e-166
-2.83605e-171
-1.75421e-176
-9.73048e-182
-4.81999e-187
-2.1242e-192
-8.30205e-198
-2.87061e-203
-8.77466e-209
-2.37525e-214
-5.69759e-220
-1.20816e-225
-2.2568e-231
-3.69996e-237
-5.31188e-243
-6.64923e-249
-7.23734e-255
-6.83758e-261
-5.59704e-267
-3.94578e-273
-2.38082e-279
-1.22362e-285
-5.35141e-292
-1.98369e-298
-6.19035e-305
-1.61645e-311
-3.51742e-318
-0
0
0
0
0
0
0
0
0
0
0
0
0
-1.04496e-72
-3.19883e-76
-1.33083e-79
-2.95517e-83
-4.17532e-87
-4.13928e-91
-3.06607e-95
-1.77158e-99
-8.22697e-104
-3.12928e-108
-9.87216e-113
-2.60597e-117
-5.78954e-122
-1.08709e-126
-1.73231e-131
-2.49171e-136
-3.27015e-141
-3.89574e-146
-4.19824e-151
-4.08028e-156
-3.56362e-161
-2.78631e-166
-1.94393e-171
-1.20676e-176
-6.64731e-182
-3.24177e-187
-1.39753e-192
-5.31824e-198
-1.78384e-203
-5.27498e-209
-1.37519e-214
-3.15109e-220
-6.30973e-226
-1.10019e-231
-1.66966e-237
-2.20307e-243
-2.52309e-249
-2.50486e-255
-2.15091e-261
-1.58982e-267
-1.00359e-273
-5.37701e-280
-2.44096e-286
-9.38224e-293
-3.03781e-299
-8.22861e-306
-1.85514e-312
-3.46617e-319
0
0
0
0
0
0
0
0
0
0
0
0
-2.00855e-69
-1.11769e-72
-5.4202e-76
-1.3918e-79
-2.28755e-83
-2.67263e-87
-2.36713e-91
-1.65433e-95
-9.36131e-100
-4.34963e-104
-1.67134e-108
-5.33694e-113
-1.4219e-117
-3.17016e-122
-5.95608e-127
-1.00903e-131
-1.5585e-136
-2.17525e-141
-2.7254e-146
-3.05124e-151
-3.04206e-156
-2.69416e-161
-2.11606e-166
-1.47178e-171
-9.05271e-177
-4.91469e-182
-2.35082e-187
-9.89455e-193
-3.65313e-198
-1.17979e-203
-3.32935e-209
-8.19615e-215
-1.75233e-220
-3.24122e-226
-5.19474e-232
-7.22774e-238
-8.7155e-244
-9.08765e-250
-8.17002e-256
-6.30378e-262
-4.14611e-268
-2.30936e-274
-1.0862e-280
-4.31783e-287
-1.44708e-293
-4.06124e-300
-9.47425e-307
-1.8278e-313
-2.89522e-320
0
0
0
0
0
0
0
0
0
0
0
-2.87566e-66
-3.05059e-69
-1.75963e-72
-5.31286e-76
-1.03838e-79
-1.46808e-83
-1.59688e-87
-1.3832e-91
-9.73092e-96
-5.60757e-100
-2.65559e-104
-1.03491e-108
-3.32491e-113
-8.8247e-118
-1.9612e-122
-3.91135e-127
-7.06514e-132
-1.14864e-136
-1.66812e-141
-2.15048e-146
-2.45253e-151
-2.47104e-156
-2.19738e-161
-1.72379e-166
-1.19169e-171
-7.23794e-177
-3.84998e-182
-1.78925e-187
-7.24139e-193
-2.5413e-198
-7.72134e-204
-2.03184e-209
-4.62614e-215
-9.08695e-221
-1.53978e-226
-2.25758e-232
-2.86254e-238
-3.12765e-244
-2.93088e-250
-2.3478e-256
-1.60111e-262
-9.24442e-269
-4.50055e-275
-1.84711e-281
-6.3886e-288
-1.85091e-294
-4.45784e-301
-8.85326e-308
-1.43846e-314
-1.88733e-321
0
0
0
0
0
0
0
0
0
0
-3.01504e-63
-6.46817e-66
-4.56817e-69
-1.66131e-72
-3.98564e-76
-7.05594e-80
-9.71568e-84
-1.06602e-87
-9.43634e-92
-6.7726e-96
-3.94587e-100
-1.86828e-104
-7.20297e-109
-2.26603e-113
-5.95948e-118
-1.40654e-122
-2.97747e-127
-5.63142e-132
-9.46945e-137
-1.40689e-141
-1.84037e-146
-2.11744e-151
-2.14126e-156
-1.90108e-161
-1.47888e-166
-1.00449e-171
-5.92631e-177
-3.026e-182
-1.33463e-187
-5.07052e-193
-1.65632e-198
-4.65746e-204
-1.12973e-209
-2.35899e-215
-4.23193e-221
-6.53009e-227
-8.67297e-233
-9.88617e-239
-9.62158e-245
-7.97502e-251
-5.62088e-257
-3.35676e-263
-1.69e-269
-7.15323e-276
-2.54583e-282
-7.58898e-289
-1.87894e-295
-3.82712e-302
-6.35367e-309
-8.52555e-316
-8.39912e-323
0
0
0
0
0
0
0
0
0
-2.26607e-60
-1.06229e-62
-9.52389e-66
-4.31014e-69
-1.3202e-72
-3.03004e-76
-5.41371e-80
-7.62701e-84
-8.53057e-88
-7.60795e-92
-5.42325e-96
-3.09837e-100
-1.4249e-104
-5.29465e-109
-1.66312e-113
-4.67092e-118
-1.16655e-122
-2.58593e-127
-5.07068e-132
-8.74402e-137
-1.31875e-141
-1.73601e-146
-1.99395e-151
-1.99525e-156
-1.73576e-161
-1.30831e-166
-8.50173e-172
-4.74357e-177
-2.26998e-182
-9.31551e-188
-3.27314e-193
-9.84632e-199
-2.54146e-204
-5.62783e-210
-1.06567e-215
-1.72356e-221
-2.38504e-227
-2.82141e-233
-2.84303e-239
-2.43363e-245
-1.76876e-251
-1.09011e-257
-5.6639e-264
-2.46745e-270
-9.00224e-277
-2.74584e-283
-6.95473e-290
-1.44654e-296
-2.44519e-303
-3.32999e-310
-3.62115e-317
-0
0
0
0
0
0
0
0
0
-1.19338e-57
-1.35244e-59
-1.59615e-62
-9.35883e-66
-3.79846e-69
-1.15536e-72
-2.69797e-76
-4.87247e-80
-6.84975e-84
-7.54472e-88
-6.54731e-92
-4.49979e-96
-2.46423e-100
-1.08254e-104
-4.11706e-109
-1.39272e-113
-4.15108e-118
-1.08596e-122
-2.48889e-127
-4.97975e-132
-8.64942e-137
-1.29891e-141
-1.68492e-146
-1.88762e-151
-1.82444e-156
-1.51808e-161
-1.08311e-166
-6.59868e-172
-3.42741e-177
-1.51993e-182
-5.74764e-188
-1.84984e-193
-5.06912e-199
-1.18476e-204
-2.35792e-210
-3.98503e-216
-5.72512e-222
-7.00613e-228
-7.29182e-234
-6.44174e-240
-4.82275e-246
-3.05771e-252
-1.63375e-258
-7.30628e-265
-2.72484e-271
-8.46927e-278
-2.18188e-284
-4.61083e-291
-7.9012e-298
-1.08855e-304
-1.1944e-311
-1.03211e-318
0
0
0
0
0
0
0
0
-4.41428e-55
-1.35046e-56
-2.14056e-59
-1.69377e-62
-9.27908e-66
-3.72887e-69
-1.12178e-72
-2.55345e-76
-4.44783e-80
-5.99482e-84
-6.3058e-88
-5.21018e-92
-3.40503e-96
-1.79267e-100
-8.26238e-105
-3.36029e-109
-1.19622e-113
-3.70232e-118
-9.92241e-123
-2.29714e-127
-4.57702e-132
-7.81588e-137
-1.14187e-141
-1.42851e-146
-1.53049e-151
-1.40352e-156
-1.09907e-161
-7.31764e-167
-4.12932e-172
-1.97605e-177
-8.02059e-183
-2.75369e-188
-7.98551e-194
-1.96005e-199
-4.07804e-205
-7.17716e-211
-1.06878e-216
-1.3509e-222
-1.45049e-228
-1.31979e-234
-1.01572e-240
-6.60195e-247
-3.61187e-253
-1.65151e-259
-6.27504e-266
-1.97843e-272
-5.15936e-279
-1.10207e-285
-1.90669e-292
-2.64595e-299
-2.91845e-306
-2.53115e-313
-1.69712e-320
0
0
0
0
0
0
0
-1.26022e-52
-1.09263e-53
-2.2833e-56
-2.47966e-59
-1.79915e-62
-9.27248e-66
-3.49386e-69
-9.80007e-73
-2.08003e-76
-3.39276e-80
-4.30196e-84
-4.27407e-88
-3.34857e-92
-2.1518e-96
-1.20762e-100
-5.88998e-105
-2.4895e-109
-9.08251e-114
-2.84373e-118
-7.61086e-123
-1.73721e-127
-3.37132e-132
-5.55357e-137
-7.77308e-142
-9.24997e-147
-9.35647e-152
-8.0349e-157
-5.83441e-162
-3.56837e-167
-1.83635e-172
-7.95795e-178
-2.8996e-183
-8.86357e-189
-2.27738e-194
-4.93827e-200
-9.03827e-206
-1.39441e-211
-1.81749e-217
-2.00654e-223
-1.87474e-229
-1.47826e-235
-9.81421e-242
-5.47082e-248
-2.54532e-254
-9.81253e-261
-3.12548e-267
-8.20414e-274
-1.76205e-280
-3.06274e-287
-4.26446e-294
-4.71023e-301
-4.08236e-308
-2.73516e-315
-1.33398e-322
0
0
0
0
0
0
-3.08591e-50
-6.60576e-51
-1.86122e-53
-2.66591e-56
-2.42268e-59
-1.526e-62
-6.95101e-66
-2.34922e-69
-6.00194e-73
-1.17796e-76
-1.7987e-80
-2.15554e-84
-2.04932e-88
-1.64557e-92
-1.13015e-96
-6.62264e-101
-3.31308e-105
-1.41616e-109
-5.16003e-114
-1.59628e-118
-4.17786e-123
-9.22907e-128
-1.71744e-132
-2.69395e-137
-3.56437e-142
-3.97244e-147
-3.72516e-152
-2.93232e-157
-1.93184e-162
-1.06296e-167
-4.89045e-173
-1.88262e-178
-6.05379e-184
-1.62792e-189
-3.67387e-195
-6.97347e-201
-1.11239e-206
-1.49193e-212
-1.68832e-218
-1.61285e-224
-1.29797e-230
-8.76568e-237
-4.954e-243
-2.33317e-249
-9.09111e-256
-2.91621e-262
-7.67265e-269
-1.64785e-275
-2.86348e-282
-3.98351e-289
-4.39269e-296
-3.79142e-303
-2.52526e-310
-1.27144e-317
-0
0
0
0
0
0
-7.14126e-46
-2.00554e-48
-9.83169e-51
-1.74058e-53
-1.83105e-56
-1.31984e-59
-6.91356e-63
-2.7142e-66
-8.15269e-70
-1.90394e-73
-3.49975e-77
-5.1143e-81
-6.12489e-85
-6.13716e-89
-5.15243e-93
-3.63155e-97
-2.15422e-101
-1.07823e-105
-4.56042e-110
-1.62773e-114
-4.88441e-119
-1.22799e-123
-2.58081e-128
-4.53498e-133
-6.65512e-138
-8.13667e-143
-8.27242e-148
-6.99543e-153
-4.92039e-158
-2.87613e-163
-1.39852e-168
-5.66225e-174
-1.91072e-179
-5.37164e-185
-1.25978e-190
-2.46889e-196
-4.04701e-202
-5.55627e-208
-6.40645e-214
-6.21988e-220
-5.07479e-226
-3.47039e-232
-1.98025e-238
-9.39693e-245
-3.68687e-251
-1.18726e-257
-3.12051e-264
-6.6659e-271
-1.15182e-277
-1.59436e-284
-1.75031e-291
-1.5029e-298
-9.9349e-306
-4.95065e-313
-1.80828e-320
0
0
0
0
0
-1.61203e-22
-1.63621e-22
-9.43145e-22
-3.05219e-21
-3.77101e-21
-2.25406e-21
-1.7617e-20
-2.34422e-20
-1.21473e-36
-3.63908e-21
-3.90126e-20
-7.80355e-23
-2.3416e-20
-6.91961e-21
-1.2404e-20
-2.48746e-21
-1.6874e-20
-1.67564e-20
1.12431e-18
0.224152
-4.56188e-23
-5.72213e-23
-3.15048e-22
-1.25702e-21
-2.1606e-21
-2.89348e-21
-1.80057e-21
-6.45855e-21
-3.00986e-21
-4.9766e-21
-6.32667e-21
-4.54733e-21
-5.64739e-21
-5.25101e-21
-4.98955e-21
-4.3126e-21
-1.36236e-20
-1.36232e-20
-1.23232e-20
-4.3421e-20
-1.31014e-23
-1.79416e-23
-1.14153e-22
-4.2719e-22
-8.11758e-22
-1.56589e-21
-1.01767e-21
-1.88141e-21
-2.19041e-21
-2.59849e-21
-2.65205e-21
-2.39907e-21
-2.71034e-21
-2.73625e-21
-2.8058e-21
-3.48744e-21
-5.8286e-21
-5.99758e-21
-7.23191e-21
-7.28906e-21
-3.59971e-24
-5.06459e-24
-3.45995e-23
-1.24522e-22
-2.68861e-22
-5.41787e-22
-4.38265e-22
-5.86961e-22
-1.01875e-21
-1.21866e-21
-1.14355e-21
-1.2216e-21
-1.43656e-21
-1.54709e-21
-1.7183e-21
-2.11324e-21
-2.48608e-21
-2.77823e-21
-3.34435e-21
-3.58294e-21
-9.19128e-25
-1.28845e-24
-8.94618e-24
-3.18025e-23
-7.46018e-23
-1.49067e-22
-1.45559e-22
-2.08761e-22
-3.96914e-22
-4.84855e-22
-4.36515e-22
-5.24781e-22
-6.66275e-22
-7.59396e-22
-8.69706e-22
-1.03272e-21
-1.05883e-21
-1.22829e-21
-1.46545e-21
-1.55346e-21
-2.14644e-25
-2.96536e-25
-2.03321e-24
-7.28783e-24
-1.7427e-23
-3.55361e-23
-3.90272e-23
-6.71666e-23
-1.3155e-22
-1.59719e-22
-1.4038e-22
-1.85359e-22
-2.57861e-22
-3.07603e-22
-3.56115e-22
-4.11011e-22
-4.02362e-22
-4.83597e-22
-5.7149e-22
-5.85674e-22
-4.53468e-26
-6.19627e-26
-4.10661e-25
-1.50838e-24
-3.52322e-24
-7.43371e-24
-8.68025e-24
-1.76051e-23
-3.58503e-23
-4.31618e-23
-3.7412e-23
-5.40468e-23
-8.13394e-23
-1.00864e-22
-1.16859e-22
-1.32337e-22
-1.2823e-22
-1.60792e-22
-1.8877e-22
-1.8381e-22
-8.59478e-27
-1.17676e-26
-7.39083e-26
-2.82783e-25
-6.24354e-25
-1.3649e-24
-1.61747e-24
-3.72368e-24
-7.97375e-24
-9.53379e-24
-8.18455e-24
-1.29459e-23
-2.06338e-23
-2.64288e-23
-3.0452e-23
-3.40773e-23
-3.30936e-23
-4.30473e-23
-5.06467e-23
-4.70186e-23
-1.45189e-27
-2.02777e-27
-1.1849e-26
-4.8092e-26
-9.72995e-26
-2.20464e-25
-2.53911e-25
-6.42839e-25
-1.4562e-24
-1.72757e-24
-1.46562e-24
-2.52984e-24
-4.18391e-24
-5.49818e-24
-6.26515e-24
-6.94313e-24
-6.76228e-24
-9.01937e-24
-1.06994e-23
-9.55623e-24
-2.17494e-28
-3.15814e-28
-1.69088e-27
-7.41669e-27
-1.33473e-26
-3.1447e-26
-3.38111e-26
-9.17692e-26
-2.20448e-25
-2.58888e-25
-2.15441e-25
-4.01557e-25
-6.77837e-25
-9.07525e-25
-1.01617e-24
-1.11224e-24
-1.08081e-24
-1.4616e-24
-1.74511e-24
-1.50353e-24
-2.87834e-29
-4.42255e-29
-2.1482e-28
-1.03453e-27
-1.61383e-27
-3.97491e-27
-3.85308e-27
-1.09585e-26
-2.79372e-26
-3.23888e-26
-2.61599e-26
-5.17886e-26
-8.80901e-26
-1.19289e-25
-1.30277e-25
-1.39939e-25
-1.34604e-25
-1.82777e-25
-2.17751e-25
-1.80043e-25
-3.35633e-30
-5.53822e-30
-2.43483e-29
-1.29943e-28
-1.72375e-28
-4.46157e-28
-3.795e-28
-1.10542e-27
-2.99125e-27
-3.41204e-27
-2.64558e-27
-5.45435e-27
-9.24931e-27
-1.25734e-26
-1.32833e-26
-1.38803e-26
-1.30932e-26
-1.7692e-26
-2.07668e-26
-1.63131e-26
-3.44254e-31
-6.17187e-31
-2.47273e-30
-1.4621e-29
-1.63145e-29
-4.44978e-29
-3.26259e-29
-9.49927e-29
-2.72867e-28
-3.04655e-28
-2.24849e-28
-4.7304e-28
-7.92015e-28
-1.0725e-27
-1.08678e-27
-1.09351e-27
-1.00137e-27
-1.33399e-27
-1.52093e-27
-1.1212e-27
-3.10407e-32
-6.09846e-32
-2.26432e-31
-1.46641e-30
-1.37317e-30
-3.94214e-30
-2.4706e-30
-7.0055e-30
-2.13804e-29
-2.32344e-29
-1.62094e-29
-3.41218e-29
-5.58947e-29
-7.48211e-29
-7.21178e-29
-6.91155e-29
-6.07878e-29
-7.90211e-29
-8.62396e-29
-5.88835e-29
-2.46081e-33
-5.33095e-33
-1.88288e-32
-1.30576e-31
-1.03172e-31
-3.09987e-31
-1.66055e-31
-4.48203e-31
-1.44529e-30
-1.52421e-30
-1.00012e-30
-2.06835e-30
-3.2864e-30
-4.31652e-30
-3.92699e-30
-3.54501e-30
-2.96098e-30
-3.71249e-30
-3.82173e-30
-2.38452e-30
-1.71667e-34
-4.11951e-34
-1.43034e-33
-1.02949e-32
-6.94549e-33
-2.16111e-32
-9.97679e-33
-2.50812e-32
-8.47109e-32
-8.65668e-32
-5.32533e-32
-1.06397e-31
-1.62664e-31
-2.0816e-31
-1.77498e-31
-1.4927e-31
-1.17007e-31
-1.39591e-31
-1.33524e-31
-7.51006e-32
-1.05563e-35
-2.81743e-35
-9.95846e-35
-7.17508e-34
-4.21555e-34
-1.32974e-33
-5.39163e-34
-1.23485e-33
-4.3256e-33
-4.28073e-33
-2.46477e-33
-4.68523e-33
-6.84126e-33
-8.47256e-33
-6.72932e-33
-5.2143e-33
-3.78704e-33
-4.23032e-33
-3.70261e-33
-1.86039e-33
-5.73877e-37
-1.71637e-36
-6.35625e-36
-4.41199e-35
-2.33004e-35
-7.20893e-35
-2.62637e-35
-5.3776e-35
-1.93261e-34
-1.85192e-34
-9.97551e-35
-1.77915e-34
-2.46395e-34
-2.93384e-34
-2.15802e-34
-1.52363e-34
-1.01089e-34
-1.03845e-34
-8.25171e-35
-3.7622e-35
-2.76869e-38
-9.36593e-38
-3.69722e-37
-2.39436e-36
-1.17766e-36
-3.44714e-36
-1.15376e-36
-2.0805e-36
-7.58365e-36
-7.0362e-36
-3.54668e-36
-5.85936e-36
-7.64416e-36
-8.69188e-36
-5.88712e-36
-3.74433e-36
-2.23977e-36
-2.10326e-36
-1.54365e-36
-6.51817e-37
-1.19147e-39
-4.58903e-39
-1.94463e-38
-1.14803e-37
-5.44827e-38
-1.4569e-37
-4.56868e-38
-7.17617e-38
-2.62219e-37
-2.35478e-37
-1.11135e-37
-1.68021e-37
-2.05041e-37
-2.21015e-37
-1.37146e-37
-7.81106e-38
-4.22316e-38
-3.67421e-38