/*--------------------------------*- C++ -*----------------------------------*\
| =========                 |                                                 |
| \\      /  F ield         | OpenFOAM: The Open Source CFD Toolbox           |
|  \\    /   O peration     | Version:  v1912                                 |
|   \\  /    A nd           | Website:  www.openfoam.com                      |
|    \\/     M anipulation  |                                                 |
\*---------------------------------------------------------------------------*/
FoamFile
{
    version     2.0;
    format      ascii;
    class       surfaceScalarField;
    location    "2";
    object      alphaPhi0.water;
}
// * * * * * * * * * * * * * * * * * * * * * * * * * * * * * * * * * * * * * //

dimensions      [0 3 -1 0 0 0 0];
oriented        oriented;


internalField   nonuniform List<scalar> 
40282
(
0.0035813
0.0010437
3.04558
-3.04959
3.04184
0.00775064
-3.03437
3.01819
0.0161861
-2.98786
2.94676
0.0411006
-2.89907
2.84666
0.0524102
-2.78583
2.70787
0.0779559
-2.60736
2.4866
0.120761
-2.35243
2.21172
0.140711
-2.06963
1.92954
0.140088
-1.79347
1.66257
0.130896
-1.53753
1.41869
0.118836
-1.30616
1.19983
0.106327
-1.09948
1.00478
0.0946917
-0.915381
0.830813
0.0845675
-0.750646
0.674483
0.0761633
-0.601941
0.53263
0.0693104
-0.466156
0.402137
0.0640192
-0.340196
0.279953
0.0602429
-0.221015
0.162978
0.0580367
-0.105612
0.0501378
0.0554738
-0.00231456
0.0033787
2.93987
-2.93993
2.93639
-0.0139991
0.0175369
-2.91907
2.88895
-0.0356739
0.0658
-2.84717
2.79208
-0.0770759
0.132166
-2.72359
2.64259
-0.118889
0.19988
-2.55231
2.45807
-0.173604
0.267841
-2.36329
2.26791
-0.232358
0.327741
-2.17026
2.06888
-0.265773
0.367151
-1.96306
1.85275
-0.27341
0.383719
-1.7384
1.62074
-0.263404
0.381059
-1.50069
1.37941
-0.242051
0.363337
-1.2585
1.1402
-0.215066
0.333361
-1.02731
0.922626
-0.188885
0.293568
-0.828065
0.74387
-0.167438
0.251633
-0.668606
0.599953
-0.150668
0.219321
-0.535722
0.474512
-0.137059
0.198269
-0.415671
0.358971
-0.126391
0.183092
-0.304245
0.251281
-0.118559
0.171523
-0.199845
0.149688
-0.113465
0.163622
-0.100424
0.0510463
-0.109246
0.158624
-0.0165054
0.0476779
2.8044
-2.79068
2.74496
-0.0450841
0.0908013
-2.69039
2.62977
-0.118952
0.179571
-2.5646
2.49587
-0.20039
0.26912
-2.42433
2.35066
-0.279577
0.353243
-2.27563
2.19994
-0.352169
0.427866
-2.12393
2.04761
-0.412691
0.489019
-1.97064
1.89259
-0.45513
0.533179
-1.81302
1.73157
-0.477437
0.558885
-1.64803
1.56231
-0.481105
0.566825
-1.47442
1.38443
-0.468893
0.558883
-1.29242
1.19847
-0.443293
0.537245
-1.10265
1.00509
-0.406414
0.503969
-0.906035
0.805705
-0.360326
0.460655
-0.704333
0.602902
-0.307148
0.408579
-0.504662
0.415589
-0.260642
0.349716
-0.341434
0.283067
-0.23454
0.292907
-0.236008
0.194237
-0.21986
0.261631
-0.154267
0.115115
-0.209659
0.248811
-0.0765544
0.0382546
-0.203956
0.242256
-0.0890524
0.137031
2.68602
-2.64172
2.58446
-0.145279
0.202535
-2.52286
2.45829
-0.244271
0.308842
-2.3917
2.32379
-0.338954
0.406867
-2.25508
2.18595
-0.425529
0.494655
-2.11669
2.04746
-0.500913
0.57014
-1.97833
1.90923
-0.562275
0.631371
-1.84004
1.77054
-0.607368
0.676862
-1.70053
1.62977
-0.635202
0.70596
-1.55807
1.48529
-0.646154
0.718939
-1.4113
1.33605
-0.641554
0.716803
-1.25952
1.18171
-0.623158
0.700966
-1.10267
1.02247
-0.592771
0.672972
-0.941185
0.858901
-0.552015
0.634299
-0.775719
0.691756
-0.502315
0.586279
-0.607117
0.521881
-0.444788
0.530025
-0.436279
0.35073
-0.380949
0.466498
-0.266107
0.186681
-0.317564
0.39699
-0.120897
0.0745648
-0.282786
0.329118
-0.0444358
0.0213691
-0.273846
0.296912
-0.186894
0.238735
2.5842
-2.53127
2.4726
-0.262315
0.320981
-2.41125
2.34804
-0.374366
0.437583
-2.28358
2.21837
-0.474887
0.540101
-2.15276
2.08702
-0.563379
0.62912
-2.02132
1.95576
-0.638703
0.704265
-1.89036
1.8251
-0.699632
0.764893
-1.7599
1.69464
-0.745228
0.810483
-1.6292
1.56344
-0.775106
0.840873
-1.49721
1.43038
-0.789526
0.856349
-1.36286
1.29455
-0.789294
0.857606
-1.22538
1.15533
-0.775569
0.845623
-1.08437
1.01251
-0.749658
0.821515
-0.93979
0.866253
-0.712849
0.786387
-0.791976
0.717057
-0.666297
0.741216
-0.641622
0.565829
-0.610952
0.686746
-0.489879
0.414032
-0.547529
0.623376
-0.338636
0.264186
-0.476528
0.550979
-0.19146
0.121835
-0.398705
0.46833
-0.0583039
0.0121612
-0.324906
0.371048
-0.289548
0.340488
2.49082
-2.43693
2.38075
-0.379759
0.435932
-2.32274
2.26338
-0.500211
0.559579
-2.20304
2.14206
-0.604518
0.665501
-2.08067
2.01907
-0.694085
0.75569
-1.95737
1.89564
-0.769163
0.830885
-1.83393
1.77221
-0.829597
0.891313
-1.71045
1.64858
-0.875211
0.93708
-1.58652
1.52418
-0.906039
0.968383
-1.46146
1.39826
-0.922418
0.985615
-1.3345
1.27011
-0.924976
0.989372
-1.20501
1.13917
-0.914564
0.980405
-1.07256
1.00516
-0.892132
0.959525
-0.937004
0.86812
-0.858612
0.927496
-0.798575
0.728464
-0.814793
0.884904
-0.657916
0.587097
-0.761188
0.832007
-0.51622
0.44555
-0.697842
0.768512
-0.375406
0.306161
-0.623969
0.693214
-0.238214
0.171925
-0.536938
0.603227
-0.10771
0.0472771
-0.427665
0.488098
-0.389172
0.437033
2.40248
-2.35147
2.29945
-0.491176
0.543201
-2.24614
2.19179
-0.617591
0.671936
-2.13663
2.08085
-0.725061
0.780847
-2.02458
1.96794
-0.815999
0.872639
-1.91101
1.85382
-0.891526
0.948709
-1.79641
1.73876
-0.95218
1.00983
-1.68084
1.62262
-0.998296
1.05652
-1.56403
1.50502
-1.03021
1.08923
-1.44552
1.38545
-1.04838
1.10845
-1.32475
1.26338
-1.05338
1.11475
-1.20127
1.1384
-1.04587
1.10874
-1.07475
1.01031
-1.02654
1.09097
-0.945121
0.879214
-0.995974
1.06188
-0.812661
0.745554
-0.954559
1.02167
-0.678008
0.610151
-0.902305
0.970162
-0.542116
0.474022
-0.838696
0.906791
-0.405944
0.337889
-0.762501
0.830557
-0.26977
0.201455
-0.671367
0.739682
-0.132991
0.0650074
-0.553983
0.621967
-0.482054
0.525686
2.3191
-2.27197
2.22497
-0.593704
0.640708
-2.17708
2.1284
-0.724448
0.773127
-2.07902
2.02902
-0.834761
0.884761
-1.97846
1.92738
-0.92754
0.978618
-1.87582
1.82377
-1.00438
1.05643
-1.77125
1.71824
-1.06624
1.11925
-1.6647
1.61062
-1.11376
1.16785
-1.55593
1.50059
-1.14749
1.20283
-1.44455
1.38776
-1.16798
1.22477
-1.33016
1.27171
-1.17577
1.23423
-1.21236
1.15209
-1.17141
1.23168
-1.09088
1.02871
-1.15536
1.21753
-0.965602
0.901577
-1.12792
1.19194
-0.836669
0.770925
-1.08912
1.15486
-0.704395
0.637124
-1.0387
1.10597
-0.569146
0.500469
-0.976124
1.0448
-0.431067
0.360892
-0.900694
0.970869
-0.28989
0.218065
-0.810965
0.88279
-0.145554
0.0726254
-0.693862
0.76679
-0.566182
0.604946
2.2393
-2.19663
2.15516
-0.685802
0.727271
-2.11311
2.07046
-0.819656
0.862311
-2.02719
1.98328
-0.932594
0.976502
-1.93873
1.89352
-1.02766
1.07287
-1.84764
1.80108
-1.10665
1.15321
-1.75382
1.70583
-1.17071
1.21871
-1.65707
1.60752
-1.22066
1.27021
-1.55713
1.50585
-1.25716
1.30843
-1.45364
1.40045
-1.28082
1.33402
-1.34621
1.29088
-1.2922
1.34753
-1.2344
1.17673
-1.29175
1.34942
-1.11783
1.05767
-1.27981
1.33997
-0.996207
0.933434
-1.25646
1.31923
-0.869337
0.803907
-1.22157
1.287
-0.737138
0.669027
-1.17479
1.2429
-0.599567
0.528754
-1.11571
1.18653
-0.456588
0.38309
-1.04393
1.11743
-0.308318
0.232397
-0.957933
1.03385
-0.155522
0.0778955
-0.843369
0.920995
-0.640492
0.674129
2.16299
-2.12555
2.08981
-0.766589
0.802325
-2.05371
2.01711
-0.902646
0.939244
-1.97992
1.94204
-1.01811
1.05599
-1.90342
1.864
-1.11592
1.15534
-1.82376
1.78265
-1.19782
1.23893
-1.74066
1.69775
-1.26498
1.30789
-1.65389
1.60905
-1.31828
1.36312
-1.56318
1.51624
-1.35847
1.40542
-1.46817
1.41889
-1.38624
1.43551
-1.36835
1.31647
-1.40217
1.45406
-1.26317
1.20837
-1.40674
1.46154
-1.152
1.09396
-1.4002
1.45824
-1.0342
0.972634
-1.38258
1.44414
-0.909198
0.843833
-1.35362
1.41898
-0.776488
0.707126
-1.3129
1.38227
-0.635725
0.562286
-1.25996
1.3334
-0.486843
0.409471
-1.1942
1.27157
-0.330296
0.249504
-1.11354
1.19433
-0.167328
0.0839896
-1.00278
1.08612
-0.704635
0.733222
2.08926
-2.05719
2.02705
-0.835826
0.865961
-1.99665
1.96574
-0.973537
1.00444
-1.93416
1.90178
-1.09166
1.12403
-1.86853
1.83435
-1.1927
1.22688
-1.79922
1.76311
-1.27816
1.31426
-1.72603
1.68795
-1.34908
1.38716
-1.64885
1.6087
-1.40639
1.44654
-1.56745
1.52504
-1.45094
1.49335
-1.48139
1.43641
-1.48356
1.52853
-1.39001
1.34207
-1.50496
1.55289
-1.29248
1.24111
-1.51569
1.56706
-1.18783
1.13251
-1.51605
1.57138
-1.075
1.01519
-1.50605
1.56587
-0.952937
0.888123
-1.48537
1.55018
-0.820641
0.750408
-1.45344
1.52367
-0.677366
0.601494
-1.40949
1.48536
-0.522817
0.441417
-1.35242
1.43382
-0.357431
0.271058
-1.27938
1.36575
-0.182525
0.0920283
-1.17445
1.26495
-0.758927
0.782857
2.01807
-1.99086
1.96577
-0.893982
0.919076
-1.94028
1.91408
-1.03335
1.05955
-1.88699
1.85888
-1.15462
1.18272
-1.82975
1.79961
-1.25944
1.28958
-1.76851
1.73648
-1.34881
1.38084
-1.70356
1.66976
-1.42368
1.45748
-1.63508
1.59946
-1.4851
1.52072
-1.56284
1.52514
-1.53418
1.57189
-1.48623
1.44598
-1.57199
1.61224
-1.40425
1.36088
-1.59948
1.64285
-1.31569
1.26852
-1.61735
1.66453
-1.21915
1.16742
-1.62602
1.67776
-1.1131
1.05601
-1.62554
1.68263
-0.995936
0.932686
-1.61556
1.67881
-0.866075
0.79594
-1.59531
1.66544
-0.722147
0.644602
-1.56362
1.64116
-0.563266
0.478157
-1.51869
1.6038
-0.38936
0.297015
-1.45675
1.54909
-0.201286
0.102242
-1.36131
1.46036
-0.804248
0.824027
1.94931
-1.92656
1.90537
-0.942453
0.963643
-1.88322
1.85977
-1.08449
1.10793
-1.83497
1.80891
-1.20994
1.23601
-1.78176
1.75373
-1.31891
1.34693
-1.72502
1.69577
-1.41187
1.44112
-1.66606
1.63592
-1.48997
1.52011
-1.60531
1.57415
-1.55474
1.5859
-1.5423
1.50959
-1.6078
1.6405
-1.47585
1.44087
-1.65063
1.68561
-1.40442
1.3663
-1.68444
1.72257
-1.32626
1.28408
-1.71014
1.75232
-1.23951
1.1923
-1.72826
1.77547
-1.14221
1.08897
-1.73897
1.79221
-1.0323
0.971931
-1.74194
1.80231
-0.90757
0.838949
-1.73631
1.80493
-0.76581
0.687928
-1.72053
1.79841
-0.605123
0.51727
-1.69206
1.77991
-0.424308
0.326228
-1.64615
1.74424
-0.22302
0.114476
-1.56599
1.67454
-0.841452
0.857006
1.88268
-1.86319
1.84373
-0.983954
1.00341
-1.82177
1.79737
-1.13165
1.15604
-1.77106
1.74349
-1.26278
1.29036
-1.71529
1.68698
-1.37531
1.40362
-1.65894
1.63135
-1.46998
1.49757
-1.60427
1.57763
-1.54906
1.5757
-1.55126
1.52495
-1.61527
1.64159
-1.4984
1.47133
-1.67105
1.69813
-1.44341
1.41434
-1.71832
1.74739
-1.38383
1.35156
-1.75848
1.79074
-1.31728
1.28071
-1.79248
1.82905
-1.24158
1.19964
-1.82092
1.86287
-1.1546
1.10617
-1.84408
1.89251
-1.05405
0.997872
-1.86182
1.91799
-0.937281
0.871876
-1.87341
1.93882
-0.801244
0.724968
-1.8772
1.95347
-0.64265
0.55392
-1.87014
1.95887
-0.458452
0.355944
-1.84664
1.94915
-0.246043
0.128024
-1.79001
1.90803
-0.869588
0.878777
1.82114
-1.80124
1.77826
-1.02397
1.04694
-1.74963
1.71741
-1.18372
1.21594
-1.68371
1.65021
-1.32092
1.35441
-1.61808
1.58795
-1.43333
1.46346
-1.56008
1.53444
-1.52487
1.55051
-1.51078
1.48871
-1.60075
1.62282
-1.46779
1.44752
-1.66552
1.68579
-1.42739
1.40691
-1.72248
1.74296
-1.38562
1.36308
-1.77373
1.79627
-1.33891
1.31278
-1.82048
1.84661
-1.28439
1.25347
-1.86338
1.8943
-1.21978
1.1831
-1.90284
1.93952
-1.14321
1.09984
-1.93921
1.98258
-1.05272
1.00151
-1.97271
2.02392
-0.945796
0.885105
-2.00317
2.06387
-0.818874
0.746474
-2.02947
2.10187
-0.667231
0.580438
-2.04866
2.13546
-0.48537
0.381249
-2.05485
2.15897
-0.267132
0.141413
-2.03253
2.15825
-0.882615
0.879233
1.76815
-1.73561
1.69326
-1.0769
1.11925
-1.64392
1.59454
-1.25647
1.30585
-1.54882
1.50842
-1.39253
1.43293
-1.47375
1.44452
-1.4945
1.52372
-1.42011
1.39973
-1.5746
1.59498
-1.38256
1.36777
-1.64201
1.6568
-1.35454
1.3421
-1.70268
1.71512
-1.32973
1.31677
-1.76007
1.77303
-1.30263
1.2868
-1.81578
1.83161
-1.26885
1.24844
-1.8702
1.89061
-1.22529
1.19917
-1.92317
1.94929
-1.16992
1.13741
-1.97453
2.00704
-1.10153
1.06217
-2.02447
2.06383
-1.01917
0.972358
-2.07364
2.12046
-0.921394
0.86586
-2.12299
2.17852
-0.805136
0.738478
-2.17284
2.2395
-0.664966
0.583591
-2.22154
2.30292
-0.493188
0.392399
-2.26411
2.3649
-0.279391
0.15114
-2.28857
2.41682
-0.885365
1.03363
1.5533
-1.60087
1.50982
-1.18531
1.27636
-1.43602
1.37841
-1.36483
1.42245
-1.33441
1.30133
-1.4737
1.50678
-1.27673
1.25858
-1.54954
1.56768
-1.24539
1.23596
-1.61085
1.62029
-1.22929
1.22448
-1.66699
1.67181
-1.22066
1.21701
-1.72329
1.72694
-1.21275
1.2072
-1.78234
1.78789
-1.19972
1.18979
-1.84454
1.85446
-1.17699
1.16098
-1.90893
1.92494
-1.14153
1.11845
-1.97408
1.99715
-1.09164
1.06102
-2.03884
2.06946
-1.02661
0.988464
-2.10283
2.14098
-0.946678
0.901317
-2.16684
2.2122
-0.85241
0.799791
-2.23306
2.28568
-0.743104
0.681692
-2.30439
2.3658
-0.614711
0.541143
-2.38193
2.4555
-0.459859
0.369338
-2.4633
2.55382
-0.26695
0.147742
-2.54489
2.66409
-0.412385
0
0.0150989
-0.85571
0.961495
-1.35505
0.651716
-1.01075
1.06656
-1.46001
1.4042
-1.06641
1.06574
-1.52513
1.5258
-1.06553
1.06603
-1.57627
1.57577
-1.06744
1.06983
-1.62323
1.62084
-1.07309
1.07688
-1.67172
1.66792
-1.08067
1.08375
-1.72671
1.72362
-1.08546
1.08512
-1.79046
1.7908
-1.08213
1.07597
-1.8623
1.86846
-1.06624
1.05265
-1.93973
1.95332
-1.035
1.01306
-2.01988
2.04182
-0.986623
0.95545
-2.10068
2.13185
-0.919417
0.878535
-2.18071
2.22159
-0.832969
0.783065
-2.25972
2.30962
-0.72935
0.672419
-2.34006
2.39699
-0.612703
0.550356
-2.42748
2.48982
-0.485117
0.416631
-2.52695
2.59544
-0.345109
0.27148
-2.63801
2.71163
-0.195304
0.110737
-2.77298
2.85755
-2.54568e-20
-5.21507e-22
-2.31204e-22
-7.94581e-20
1.04338e-19
0
1.59369e-22
-1.34786e-05
0.00552596
-0.0426972
0
-0.107728
0.351205
-0.903157
3.61323e-05
-0.640493
0.818542
-1.57106
0.454475
-0.898731
0.92366
-1.61606
1.23447
-0.93916
0.944129
-1.66228
1.65731
-0.948987
0.953029
-1.71906
1.71502
-0.955587
0.956083
-1.79006
1.78957
-0.953893
0.948369
-1.87401
1.87953
-0.939061
0.925942
-1.96672
1.97984
-0.908918
0.887733
-2.0639
2.08508
-0.861784
0.830326
-2.16402
2.19548
-0.792425
0.716433
-2.26566
1.67408
-0.638493
0.563109
-2.36616
1.42302
-0.493255
0.423817
-2.46364
1.36242
-0.362778
0.290824
-2.55998
1.78583
-0.226615
0.154487
-2.66574
2.73787
-0.0870452
0.0285044
-2.7782
2.83674
0.0113554
-0.0193461
-2.90796
2.91595
5.45746e-22
-3.28963e-22
-5.10686e-23
6.48896e-23
-9.71807e-23
-6.74063e-37
-4.32612e-22
1.43133e-21
-1.7454e-21
1.26651e-23
-4.84806e-21
4.58951e-21
-4.56989e-38
-4.58951e-21
0
8.52028e-22
3.58901e-21
1.38778e-17
2.48366e-19
-7.23741e-20
0.000922855
-0.000922855
4.04606e-21
-0.0360728
0.161
-0.718333
0
-0.280389
0.337674
-1.29191
0
-0.342856
0.318829
-1.79072
0.0152097
-0.242414
0.150764
-1.31136
0
-0.0949777
0.0647411
-0.955101
2.77556e-17
-0.040067
0.0185422
-0.613457
0
-0.00457365
0.000213574
-0.16073
0
-1.44665e-19
-9.6243e-20
0
1.95843e-32
1.32914e-19
2.78564e-19
0
2.75663e-20
-5.00245e-21
4.46265e-20
0
9.89547e-22
1.84922e-20
-6.88202e-20
0
-1.78932e-18
-0.000245476
-0.0114625
-0.875431
-3.2024e-06
0.159055
-0.275307
-2.88496
1.79028
0.281084
-0.232836
-2.88912
2.84088
-6.86098e-218
4.36609e-214
-6.27e-218
3.21254e-224
-1.00712e-226
2.17086e-223
3.01945e-229
-9.263e-232
1.25572e-228
2.81695e-234
-8.15365e-237
7.99316e-234
2.2137e-239
-5.65308e-242
4.16884e-239
1.36377e-244
-3.11818e-247
1.77971e-244
6.7635e-250
-1.3935e-252
6.19499e-250
2.72712e-255
-5.08221e-258
1.7428e-255
9.06553e-261
-1.55567e-263
4.11811e-261
2.56934e-266
-4.08959e-269
8.17805e-267
6.24568e-272
-9.17083e-275
1.26955e-272
1.29273e-277
-1.76438e-280
1.52446e-278
2.3188e-283
-2.93401e-286
1.03065e-284
3.55471e-289
-4.23145e-292
-5.07759e-295
4.9724e-295
-5.76175e-298
-2.4156e-300
6.57185e-301
-7.37281e-304
-5.16328e-306
8.12793e-307
-8.79814e-310
-8.12359e-312
9.34276e-313
-9.72777e-316
-1.08073e-317
9.92331e-319
-9.93072e-322
-1.4822e-323
0
0
0
0
0
0
0
0
0
0
0
0
0
0
0
0
0
0
0
0
0
0
0
0
0
0
0
0
0
0
0
0
0
0
0
0
0
0
0
0
0
0
0
0
0
0
0
0
0
0
0
0
0
0
0
0
0
0
0
0
0
0
0
0
0
0
0
0
0
0
0
0
0
0
0
0
0
0
0
0
0
0
0
0
0
0
0
0
0
0
0
0
0
0
0
0
0
0
0
0
0
0
0
0
0
0
0
0
0
0
0
0
0
0
0
0
0
0
0
0
0
0
0
-1.46291e-210
3.30581e-207
-4.4016e-211
6.68082e-217
-2.45844e-219
-1.59692e-219
6.09113e-216
8.87527e-222
-3.07912e-224
-1.06733e-224
4.59043e-221
1.00957e-226
-3.08597e-229
-7.13571e-230
3.22492e-226
8.78747e-232
-2.34245e-234
-3.87938e-235
1.82518e-231
5.8732e-237
-1.39092e-239
-1.71419e-240
8.35034e-237
3.11814e-242
-6.63875e-245
-6.17328e-246
3.10966e-242
1.34371e-247
-2.59196e-250
-1.80854e-251
9.43816e-248
4.78377e-253
-8.48223e-256
-4.44051e-257
2.39213e-253
1.44754e-258
-2.38047e-261
-9.19556e-263
5.11155e-259
3.77099e-264
-5.75781e-267
-1.53276e-268
8.90277e-265
8.48332e-270
-1.20871e-272
-2.02641e-274
1.23923e-270
1.6657e-275
-2.21671e-278
-1.78419e-280
1.20813e-276
2.84935e-281
-3.54539e-284
-1.0105e-287
3.62198e-283
4.31618e-287
-5.19369e-290
5.40509e-296
-3.88831e-292
6.16865e-293
-7.21905e-296
1.44844e-301
-1.21341e-297
8.31171e-299
-9.40553e-302
2.62714e-307
-2.33047e-303
1.0443e-304
-1.13667e-307
3.91681e-313
-3.60743e-309
1.21189e-310
-1.26452e-313
4.86348e-319
-4.60948e-315
1.29113e-316
-1.2905e-319
0
-4.91595e-321
1.28457e-322
0
0
0
0
0
0
0
0
0
0
0
0
0
0
0
0
0
0
0
0
0
0
0
0
0
0
0
0
0
0
0
0
0
0
0
0
0
0
0
0
0
0
0
0
0
0
0
0
0
0
0
0
0
0
0
0
0
0
0
0
0
0
0
0
0
0
0
0
0
0
0
0
0
0
0
0
0
0
0
0
0
0
0
0
0
0
0
0
0
0
0
0
0
0
0
0
0
0
0
0
0
0
0
0
0
0
0
0
0
0
0
0
0
0
0
0
0
0
0
0
0
0
0
0
0
0
0
0
0
0
0
0
0
0
0
0
0
0
0
0
0
0
0
0
0
0
0
0
0
0
0
0
0
0
0
0
0
0
0
-5.78443e-204
8.12009e-201
-1.114e-204
3.01654e-210
-1.22883e-212
-1.5683e-212
3.09731e-209
4.8984e-215
-1.84215e-217
-1.30152e-217
2.78807e-214
6.41097e-220
-2.05786e-222
-9.62061e-223
2.16693e-219
6.12319e-225
-1.69995e-227
-5.67251e-228
1.33195e-224
4.42669e-230
-1.08612e-232
-2.69046e-233
6.55365e-230
2.5184e-235
-5.53808e-238
-1.03664e-238
2.61251e-235
1.15669e-240
-2.29944e-243
-3.25328e-244
8.46395e-241
4.36563e-246
-7.94697e-249
-8.49503e-250
2.27179e-246
1.3893e-251
-2.3352e-254
-1.864e-255
5.09458e-252
3.77402e-257
-5.86867e-260
-3.3385e-261
9.29409e-258
8.79766e-263
-1.2736e-265
-4.80308e-267
1.36056e-263
1.78106e-268
-2.40523e-271
-4.95655e-273
1.44281e-269
3.13902e-274
-3.96465e-277
-2.07856e-279
6.8351e-276
4.85672e-280
-5.88812e-283
1.68404e-288
-5.32508e-285
7.05392e-286
-8.3365e-289
5.95248e-294
-2.01904e-290
9.7053e-292
-1.11145e-294
1.19449e-299
-4.14142e-296
1.25099e-297
-1.38305e-300
1.89646e-305
-6.68893e-302
1.50029e-303
-1.59624e-306
2.49205e-311
-9.01699e-308
1.66495e-309
-1.70131e-312
2.73824e-317
-1.02807e-313
1.70242e-315
-1.66753e-318
2.47033e-323
-1.02178e-319
1.59583e-321
0
0
0
0
0
0
0
0
0
0
0
0
0
0
0
0
0
0
0
0
0
0
0
0
0
0
0
0
0
0
0
0
0
0
0
0
0
0
0
0
0
0
0
0
0
0
0
0
0
0
0
0
0
0
0
0
0
0
0
0
0
0
0
0
0
0
0
0
0
0
0
0
0
0
0
0
0
0
0
0
0
0
0
0
0
0
0
0
0
0
0
0
0
0
0
0
0
0
0
0
0
0
0
0
0
0
0
0
0
0
0
0
0
0
0
0
0
0
0
0
0
0
0
0
0
0
0
0
0
0
0
0
0
0
0
0
0
0
0
0
0
0
0
0
0
0
0
0
0
0
0
0
0
0
0
-9.62715e-198
9.65996e-195
-1.38516e-198
5.99978e-204
-2.65888e-206
-4.87161e-206
6.45195e-203
1.13769e-208
-4.53311e-211
-4.71444e-211
6.68194e-208
1.6568e-213
-5.56169e-216
-3.8503e-216
5.72959e-213
1.72585e-218
-4.98604e-221
-2.46815e-221
3.82905e-218
1.348e-223
-3.42701e-226
-1.25993e-226
2.02654e-223
8.22337e-229
-1.86911e-231
-5.19323e-232
8.63096e-229
4.02939e-234
-8.25501e-237
-1.73456e-237
2.96816e-234
1.61211e-239
-3.01133e-242
-4.77626e-243
8.37399e-240
5.38982e-245
-9.24696e-248
-1.09144e-248
1.94783e-245
1.52124e-250
-2.4025e-253
-2.01726e-254
3.64166e-251
3.64983e-256
-5.34135e-259
-2.97969e-260
5.4111e-257
7.539e-262
-1.02633e-264
-3.18819e-266
5.7899e-263
1.34932e-267
-1.71555e-270
-1.55459e-272
2.75868e-269
2.11561e-273
-2.57919e-276
1.36554e-281
-2.97118e-278
3.10657e-279
-3.69149e-282
5.26791e-287
-1.11895e-283
4.32447e-285
-4.98955e-288
1.08607e-292
-2.30224e-289
5.66926e-291
-6.33907e-294
1.77193e-298
-3.77854e-295
6.97555e-297
-7.54645e-300
2.44121e-304
-5.32923e-301
8.0215e-303
-8.36511e-306
2.89675e-310
-6.58681e-307
8.54779e-309
-8.54324e-312
3.03362e-316
-7.27146e-313
8.34054e-315
-7.9418e-318
2.91499e-322
-7.32932e-319
7.37146e-321
-4.94066e-324
0
0
0
0
0
0
0
0
0
0
0
0
0
0
0
0
0
0
0
0
0
0
0
0
0
0
0
0
0
0
0
0
0
0
0
0
0
0
0
0
0
0
0
0
0
0
0
0
0
0
0
0
0
0
0
0
0
0
0
0
0
0
0
0
0
0
0
0
0
0
0
0
0
0
0
0
0
0
0
0
0
0
0
0
0
0
0
0
0
0
0
0
0
0
0
0
0
0
0
0
0
0
0
0
0
0
0
0
0
0
0
0
0
0
0
0
0
0
0
0
0
0
0
0
0
0
0
0
0
0
0
0
0
0
0
0
0
0
0
0
0
0
0
0
0
0
0
0
0
0
-8.53241e-192
6.62864e-189
-9.09239e-193
6.1165e-198
-2.99143e-200
-7.26192e-200
7.2238e-197
1.37769e-202
-5.81056e-205
-8.02586e-205
8.51016e-202
2.23121e-207
-7.83385e-210
-7.22226e-210
8.03642e-207
2.5357e-212
-7.61743e-215
-5.03108e-215
5.83622e-212
2.13607e-217
-5.62077e-220
-2.76018e-220
3.32021e-217
1.39402e-222
-3.26976e-225
-1.21404e-225
1.50931e-222
7.26504e-228
-1.53262e-230
-4.30075e-231
5.51159e-228
3.07865e-233
-5.90766e-236
-1.24448e-236
1.63958e-233
1.08469e-238
-1.90619e-241
-2.9531e-242
3.98465e-239
3.20788e-244
-5.17828e-247
-5.60675e-248
7.72986e-245
8.0336e-250
-1.19942e-252
-8.41454e-254
1.18119e-250
1.72487e-255
-2.39115e-258
-9.02656e-260
1.2805e-256
3.19944e-261
-4.13871e-264
-4.17114e-266
5.82334e-263
5.20001e-267
-6.45272e-270
5.66649e-275
-9.5282e-272
7.90524e-273
-9.54977e-276
2.07857e-280
-3.46812e-277
1.13652e-278
-1.33153e-281
4.28073e-286
-7.22204e-283
1.53463e-284
-1.73957e-287
7.09126e-292
-1.21623e-288
1.93828e-290
-2.12178e-293
1.02054e-297
-1.78454e-294
2.27992e-296
-2.40292e-299
1.30198e-303
-2.32476e-300
2.48037e-302
-2.50494e-305
1.49521e-309
-2.73139e-306
2.47126e-308
-2.38004e-311
1.55313e-315
-2.88478e-312
2.23529e-314
-2.04708e-317
1.43279e-321
-2.68837e-318
1.82755e-320
-1.4822e-323
0
-0
0
0
0
0
0
0
0
0
0
0
0
0
0
0
0
0
0
0
0
0
0
0
0
0
0
0
0
0
0
0
0
0
0
0
0
0
0
0
0
0
0
0
0
0
0
0
0
0
0
0
0
0
0
0
0
0
0
0
0
0
0
0
0
0
0
0
0
0
0
0
0
0
0
0
0
0
0
0
0
0
0
0
0
0
0
0
0
0
0
0
0
0
0
0
0
0
0
0
0
0
0
0
0
0
0
0
0
0
0
0
0
0
0
0
0
0
0
0
0
0
0
0
0
0
0
0
0
0
0
0
0
0
0
0
0
0
0
0
0
0
0
0
0
0
-4.68491e-186
2.99086e-183
-3.99701e-187
3.74931e-192
-2.04011e-194
-6.33334e-194
5.04431e-191
1.01465e-196
-4.54759e-199
-7.95156e-199
6.75118e-196
1.83896e-201
-6.77109e-204
-7.88382e-204
7.03604e-201
2.28947e-206
-7.16094e-209
-5.97302e-209
5.56694e-206
2.08493e-211
-5.68464e-214
-3.52757e-214
3.41789e-211
1.4581e-216
-3.52999e-219
-1.65924e-219
1.66547e-216
8.08895e-222
-1.75881e-224
-6.25692e-225
6.49785e-222
3.64037e-227
-7.19616e-230
-1.92007e-230
2.06168e-227
1.36068e-232
-2.46216e-235
-4.80307e-236
5.32476e-233
4.26632e-238
-7.09566e-241
-9.58767e-242
1.09853e-238
1.13469e-243
-1.74689e-246
-1.5069e-247
1.78605e-244
2.59041e-249
-3.70351e-252
-1.677e-253
2.0591e-250
5.11032e-255
-6.81514e-258
-7.84729e-260
1.02381e-256
8.81718e-261
-1.12676e-263
1.43879e-268
-1.96302e-265
1.42039e-266
-1.76334e-269
5.36934e-274
-7.66467e-271
2.15226e-272
-2.57943e-275
1.14667e-279
-1.68824e-276
3.03236e-278
-3.49491e-281
1.9733e-285
-2.97378e-282
3.94598e-284
-4.36245e-287
2.94298e-291
-4.50048e-288
4.72055e-290
-4.99999e-293
3.86635e-297
-5.9219e-294
5.18229e-296
-5.25684e-299
4.56593e-303
-6.95631e-300
5.22033e-302
-5.07564e-305
4.83346e-309
-7.33785e-306
4.83247e-308
-4.50532e-311
4.53843e-315
-6.93575e-312
4.11237e-314
-3.67418e-317
3.74996e-321
-5.85788e-318
3.21192e-320
-2.96439e-323
0
-4.94066e-324
0
0
0
0
0
0
0
0
0
0
0
0
0
0
0
0
0
0
0
0
0
0
0
0
0
0
0
0
0
0
0
0
0
0
0
0
0
0
0
0
0
0
0
0
0
0
0
0
0
0
0
0
0
0
0
0
0
0
0
0
0
0
0
0
0
0
0
0
0
0
0
0
0
0
0
0
0
0
0
0
0
0
0
0
0
0
0
0
0
0
0
0
0
0
0
0
0
0
0
0
0
0
0
0
0
0
0
0
0
0
0
0
0
0
0
0
0
0
0
0
0
0
0
0
0
0
0
0
0
0
0
0
0
0
0
0
0
0
0
0
-1.77052e-180
9.58871e-178
-1.34875e-181
1.63605e-186
-9.7262e-189
-3.6149e-188
2.3925e-185
5.18111e-191
-2.4591e-193
-5.16005e-193
3.64337e-190
1.04861e-195
-4.05107e-198
-5.65836e-198
4.20884e-195
1.4328e-200
-4.67482e-203
-4.68083e-203
3.64447e-200
1.41669e-205
-4.01267e-208
-2.99112e-208
2.42634e-205
1.06705e-210
-2.67381e-213
-1.51198e-213
1.27258e-210
6.33201e-216
-1.42155e-218
-6.10715e-219
5.32011e-216
3.03619e-221
-6.18703e-224
-2.0048e-224
1.80388e-221
1.20507e-226
-2.24505e-229
-5.35053e-230
4.96552e-227
4.00537e-232
-6.85901e-235
-1.14179e-235
1.09304e-232
1.12939e-237
-1.79037e-240
-1.92342e-241
1.89996e-238
2.73336e-243
-4.02277e-246
-2.30598e-247
2.35882e-244
5.71265e-249
-7.83451e-252
-1.2363e-253
1.34888e-250
1.03924e-254
-1.36203e-257
2.42493e-262
-2.69084e-259
1.75935e-260
-2.23517e-263
1.00117e-267
-1.17195e-264
2.78726e-266
-3.40749e-269
2.27352e-273
-2.72338e-270
4.07995e-272
-4.78267e-275
4.08347e-279
-4.96703e-276
5.48363e-278
-6.14917e-281
6.25821e-285
-7.6936e-282
6.74275e-284
-7.23175e-287
8.25186e-291
-1.02107e-287
7.58998e-290
-7.80093e-293
9.63209e-297
-1.19448e-293
7.85651e-296
-7.75981e-299
1.01182e-302
-1.26004e-299
7.52128e-302
-7.15607e-305
9.63122e-309
-1.21368e-305
6.68356e-308
-6.12343e-311
8.33659e-315
-1.07517e-311
5.49925e-314
-4.83512e-317
6.56613e-321
-8.77852e-318
4.15657e-320
-3.45846e-323
0
-4.94066e-324
0
0
0
0
0
0
0
0
0
0
0
0
0
0
0
0
0
0
0
0
0
0
0
0
0
0
0
0
0
0
0
0
0
0
0
0
0
0
0
0
0
0
0
0
0
0
0
0
0
0
0
0
0
0
0
0
0
0
0
0
0
0
0
0
0
0
0
0
0
0
0
0
0
0
0
0
0
0
0
0
0
0
0
0
0
0
0
0
0
0
0
0
0
0
0
0
0
0
0
0
0
0
0
0
0
0
0
0
0
0
0
0
0
0
0
0
0
0
0
0
0
0
0
0
0
0
0
0
0
0
0
0
0
0
0
0
-4.85556e-175
2.26479e-172
-3.30399e-176
5.28204e-181
-3.40787e-183
-1.44438e-182
8.15536e-180
1.93544e-185
-9.71697e-188
-2.34862e-187
1.41638e-184
4.36085e-190
-1.76907e-192
-2.86022e-192
1.8205e-189
6.55338e-195
-2.23495e-197
-2.59473e-197
1.73194e-194
7.06304e-200
-2.08136e-202
-1.80053e-202
1.25302e-199
5.74419e-205
-1.49053e-207
-9.79576e-208
7.06717e-205
3.64848e-210
-8.45225e-213
-4.2337e-213
3.15396e-210
1.85945e-215
-3.89483e-218
-1.4794e-218
1.13335e-215
7.78232e-221
-1.48448e-223
-4.18398e-224
3.28106e-221
2.70839e-226
-4.73772e-229
-9.46436e-230
7.59578e-227
7.96144e-232
-1.28647e-234
-1.6893e-235
1.38555e-232
2.00037e-237
-2.99594e-240
-2.16001e-241
1.81514e-238
4.32792e-243
-6.03542e-246
-1.31324e-247
1.16522e-244
8.13086e-249
-1.08121e-251
2.66517e-256
-2.332e-253
1.41702e-254
-1.82718e-257
1.21701e-261
-1.1187e-258
2.31429e-260
-2.87639e-263
2.88057e-267
-2.69897e-264
3.5044e-266
-4.18535e-269
5.32455e-273
-5.05233e-270
4.89864e-272
-5.61828e-275
8.3412e-279
-8.03589e-276
6.31336e-278
-6.9505e-281
1.12356e-284
-1.10687e-281
7.49615e-284
-7.92007e-287
1.33546e-290
-1.35258e-287
8.19529e-290
-8.309e-293
1.43168e-296
-1.49001e-293
8.25525e-296
-8.03918e-299
1.40279e-302
-1.49497e-299
7.67528e-302
-7.18479e-305
1.26955e-308
-1.38084e-305
6.59417e-308
-5.93121e-311
1.06621e-314
-1.18463e-311
5.22549e-314
-4.50725e-317
8.20149e-321
-9.36186e-318
3.80332e-320
-2.96439e-323
0
-4.94066e-324
0
0
0
0
0
0
0
0
0
0
0
0
0
0
0
0
0
0
0
0
0
0
0
0
0
0
0
0
0
0
0
0
0
0
0
0
0
0
0
0
0
0
0
0
0
0
0
0
0
0
0
0
0
0
0
0
0
0
0
0
0
0
0
0
0
0
0
0
0
0
0
0
0
0
0
0
0
0
0
0
0
0
0
0
0
0
0
0
0
0
0
0
0
0
0
0
0
0
0
0
0
0
0
0
0
0
0
0
0
0
0
0
0
0
0
0
0
0
0
0
0
0
0
0
0
0
0
0
0
0
0
0
-9.94764e-170
4.05831e-167
-5.72602e-171
1.23615e-175
-8.76268e-178
-4.24986e-177
2.09269e-174
5.34782e-180
-2.85562e-182
-7.89284e-182
4.16218e-179
1.35505e-184
-5.78528e-187
-1.07194e-186
5.97719e-184
2.24974e-189
-8.02767e-192
-1.07011e-191
6.2704e-189
2.64859e-194
-8.12234e-197
-8.07726e-197
4.94311e-194
2.32579e-199
-6.24499e-202
-4.72337e-202
2.99953e-199
1.57803e-204
-3.76512e-207
-2.17594e-207
1.42751e-204
8.51386e-210
-1.82819e-212
-8.03151e-213
5.41686e-210
3.73523e-215
-7.27139e-218
-2.37697e-218
1.64023e-215
1.35153e-220
-2.40487e-223
-5.61948e-224
3.96195e-221
4.10458e-226
-6.72765e-229
-1.04602e-229
7.53314e-227
1.06031e-231
-1.60879e-234
-1.40498e-235
1.04014e-232
2.35424e-237
-3.32617e-240
-9.60502e-242
7.62983e-239
4.54133e-243
-6.10492e-246
1.80367e-250
-1.23969e-247
8.10527e-249
-1.06109e-251
9.26524e-256
-7.01037e-253
1.36794e-254
-1.73484e-257
2.28707e-261
-1.78879e-258
2.16186e-260
-2.64637e-263
4.36304e-267
-3.5094e-264
3.18066e-266
-3.75299e-269
7.08318e-273
-5.85135e-270
4.34586e-272
-4.93764e-275
1.00359e-278
-8.54451e-276
5.50128e-278
-6.00707e-281
1.26805e-284
-1.11999e-281
6.42443e-284
-6.72614e-287
1.4472e-290
-1.32748e-287
6.88975e-290
-6.90465e-293
1.49539e-296
-1.41826e-293
6.77123e-296
-6.49879e-299
1.41163e-302
-1.37245e-299
6.10908e-302
-5.62777e-305
1.23172e-308
-1.22094e-305
5.08339e-308
-4.50306e-311
9.95278e-315
-1.00735e-311
3.9112e-314
-3.32768e-317
7.32205e-321
-7.64412e-318
2.77072e-320
-2.47033e-323
0
-4.94066e-324
0
0
0
0
0
0
0
0
0
0
0
0
0
0
0
0
0
0
0
0
0
0
0
0
0
0
0
0
0
0
0
0
0
0
0
0
0
0
0
0
0
0
0
0
0
0
0
0
0
0
0
0
0
0
0
0
0
0
0
0
0
0
0
0
0
0
0
0
0
0
0
0
0
0
0
0
0
0
0
0
0
0
0
0
0
0
0
0
0
0
0
0
0
0
0
0
0
0
0
0
0
0
0
0
0
0
0
0
0
0
0
0
0
0
0
0
0
0
0
0
0
0
0
0
0
0
0
0
-1.57397e-164
5.72195e-162
-7.84748e-166
2.1766e-170
-1.71817e-172
-9.60262e-172
4.19301e-169
1.13932e-174
-6.51194e-177
-2.04803e-176
9.60691e-174
3.28096e-179
-1.48182e-181
-3.11512e-181
1.54988e-178
6.06585e-184
-2.2703e-186
-3.438e-186
1.80189e-183
7.83127e-189
-2.50294e-191
-2.83416e-191
1.55617e-188
7.4471e-194
-2.07245e-196
-1.78829e-196
1.02309e-193
5.41493e-199
-1.33308e-201
-8.81033e-202
5.23007e-199
3.10274e-204
-6.84172e-207
-3.44356e-207
2.11159e-204
1.43216e-209
-2.85266e-212
-1.07006e-212
6.75935e-210
5.42e-215
-9.84633e-218
-2.64929e-218
1.72133e-215
1.71365e-220
-2.86186e-223
-5.16333e-224
3.45067e-221
4.59242e-226
-7.09271e-229
-7.36722e-230
5.107e-227
1.05645e-231
-1.51983e-234
-5.86591e-236
4.41925e-233
2.11421e-237
-2.88025e-240
7.61282e-245
-4.13318e-242
3.88535e-243
-5.18258e-246
4.99647e-250
-3.37266e-247
6.82759e-249
-8.87175e-252
1.33188e-255
-9.47375e-253
1.13562e-254
-1.43071e-257
2.70749e-261
-2.00881e-258
1.77217e-260
-2.15651e-263
4.66738e-267
-3.59522e-264
2.57653e-266
-3.02041e-269
7.04794e-273
-5.62467e-270
3.47239e-272
-3.91373e-275
9.55757e-279
-7.88187e-276
4.32249e-278
-4.67561e-281
1.17477e-284
-1.00159e-281
4.95108e-284
-5.13098e-287
1.29996e-290
-1.14779e-287
5.20251e-290
-5.16069e-293
1.29709e-296
-1.18502e-293
5.00962e-296
-4.76027e-299
1.18171e-302
-1.11427e-299
4.42994e-302
-4.03926e-305
9.97832e-309
-9.66875e-306
3.60892e-308
-3.15896e-311
7.79841e-315
-7.76605e-312
2.7086e-314
-2.27355e-317
5.61259e-321
-5.76589e-318
1.86707e-320
-1.4822e-323
0
-4.94066e-324
0
0
0
0
0
0
0
0
0
0
0
0
0
0
0
0
0
0
0
0
0
0
0
0
0
0
0
0
0
0
0
0
0
0
0
0
0
0
0
0
0
0
0
0
0
0
0
0
0
0
0
0
0
0
0
0
0
0
0
0
0
0
0
0
0
0
0
0
0
0
0
0
0
0
0
0
0
0
0
0
0
0
0
0
0
0
0
0
0