/*--------------------------------*- C++ -*----------------------------------*\
| =========                 |                                                 |
| \\      /  F ield         | OpenFOAM: The Open Source CFD Toolbox           |
|  \\    /   O peration     | Version:  v1912                                 |
|   \\  /    A nd           | Website:  www.openfoam.com                      |
|    \\/     M anipulation  |                                                 |
\*---------------------------------------------------------------------------*/
FoamFile
{
    version     2.0;
    format      ascii;
    class       volScalarField;
    location    "2";
    object      epsilon;
}
// * * * * * * * * * * * * * * * * * * * * * * * * * * * * * * * * * * * * * //

dimensions      [0 2 -3 0 0 0 0];


internalField   nonuniform List<scalar> 
20320
(
4.44445e-05
0.000219167
0.000229125
0.000245841
0.000311706
0.000521124
0.000843245
0.000997293
0.000806766
0.00049689
0.000315527
0.00025428
0.000234835
0.000224138
0.000215864
0.000209012
0.000203183
0.000198105
0.000193608
0.000186863
0.00501939
0.0034983
0.0365721
0.124603
0.241646
0.340245
0.393589
0.400656
0.366038
0.29514
0.200023
0.103415
0.0345091
0.00598817
0.000663204
0.00027613
0.000234803
0.000213345
0.0002006
0.000213441
0.352551
0.47687
0.957375
1.40044
1.74415
1.96607
2.06766
2.06289
1.9673
1.79366
1.55378
1.26177
0.936607
0.603885
0.297971
0.0775825
0.005495
0.000245242
0.000176368
0.000196705
1.3777
1.80313
2.72209
3.45838
3.98887
4.31846
4.46582
4.4549
4.30906
4.04842
3.69014
3.25018
2.74554
2.19616
1.62683
1.0694
0.566261
0.17662
0.00958897
0.000188552
3.04585
3.70875
4.99468
5.97652
6.66622
7.08948
7.27778
7.26326
7.07554
6.7403
6.27943
5.71217
5.05678
4.33222
3.55981
2.76475
1.978
1.23882
0.599373
0.133212
5.31262
6.10629
7.66833
8.832
9.63755
10.1266
10.3398
10.3151
10.0865
9.68341
9.13132
8.45248
7.66742
6.79654
5.86179
4.88874
3.90981
2.97233
2.17312
2.04043
8.11524
8.93396
10.6734
11.9475
12.8175
13.3364
13.5509
13.5027
13.2283
12.7596
12.1249
11.3493
10.457
9.47296
8.42565
7.35226
6.3089
5.40026
4.90874
6.64914
11.3643
12.1186
13.9388
15.2534
16.1366
16.6481
16.8382
16.7503
16.4223
15.8879
15.1778
14.3207
13.346
12.2862
11.1817
10.0893
9.10057
8.3966
8.48957
12.646
14.9495
15.5732
17.3885
18.6814
19.5319
20.0021
20.1432
19.9991
19.6087
19.0071
18.2275
17.3028
16.2685
15.1662
14.0496
12.9963
12.1333
11.7162
12.4837
19.1219
18.7569
19.2059
20.947
22.1679
22.9474
23.3467
23.4164
23.2003
22.7378
22.0656
21.2197
20.2373
19.1601
18.0382
16.938
15.9554
15.2487
15.1424
16.5892
25.6528
22.6912
22.937
24.5532
25.663
26.3396
26.6413
26.6177
26.3126
25.7664
25.0177
24.1049
23.0693
21.9581
20.8292
19.7591
18.8595
18.3164
18.5175
20.619
32.0273
26.7028
26.7179
28.1735
29.1398
29.6826
29.8581
29.7161
29.3017
28.6567
27.8214
26.8368
25.7473
24.6045
23.4723
22.4359
21.62
21.236
21.7301
24.4528
38.1184
30.8147
30.5524
31.8174
32.6037
32.9733
32.9847
32.6913
32.1407
31.3765
30.4405
29.3749
28.2263
27.0491
25.9117
24.9058
24.1679
23.9317
24.6995
28.0061
43.8286
35.1454
34.517
35.55
36.0974
36.2311
36.0215
35.5298
34.8072
33.8977
32.8428
31.6842
30.4687
29.2517
28.1038
27.1216
26.451
26.3467
27.3627
31.2082
49.0546
39.9229
38.7806
39.4995
39.6971
39.4883
38.9713
38.2174
37.2776
36.1922
34.9981
33.7338
32.4434
31.1812
30.0179
29.0521
28.4359
28.4414
29.6697
33.989
53.6606
45.4248
43.6163
43.8462
43.484
42.7616
41.818
40.7243
39.5184
38.2267
36.8751
35.4946
34.1247
32.8163
31.6375
30.6854
30.1133
30.2025
31.5896
36.2765
57.4412
52.3991
49.4258
48.7441
47.4491
45.983
44.4856
42.9835
41.4744
39.9562
38.4369
36.9367
35.4887
34.1404
32.9567
32.0295
31.5047
31.6578
33.1346
38.0125
60.061
65.5605
57.0775
54.1078
51.314
48.9151
46.8069
44.8822
43.0686
41.3267
39.6439
38.0295
36.5118
35.1374
33.9716
33.1029
32.6619
32.8937
34.4085
39.2425
61.0563
73.5948
66.1119
58.7439
54.3551
51.1706
48.5696
46.2972
44.2257
42.2898
40.4632
38.7484
37.172
35.7848
34.6614
33.9005
33.6239
34.0167
35.6084
40.3531
60.7197
67.2191
64.8174
59.8379
55.8213
52.4866
49.6516
47.1629
44.908
42.8236
40.882
39.085
37.4613
36.0722
35.0046
34.3871
34.3696
35.1038
36.7906
41.8008
63.1467
0.000348193
0.000510926
0.00051362
0.000516174
0.000518398
0.00052034
0.000522001
0.000523354
0.000524461
0.000525338
0.000525974
0.000526398
0.000526632
0.00052668
0.000526618
0.00052642
0.000526118
0.000525724
0.000525229
0.000524687
0.000524122
0.00052353
0.000522913
0.000522266
0.000521584
0.000520891
0.00052016
0.00051945
0.000518749
0.000518033
0.000517345
0.000516662
0.000516009
0.000515393
0.000514804
0.000514255
0.000513742
0.000513231
0.000512739
0.000512256
0.000511755
0.000511276
0.000510809
0.000510312
0.000509814
0.000509332
0.000508872
0.000508413
0.000507944
0.000507467
0.000507001
0.000506534
0.000506085
0.000505656
0.000505223
0.000504803
0.000504386
0.000503969
0.000503551
0.000503172
0.000350771
6.09999e-05
5.96479e-05
5.96342e-05
5.96309e-05
5.96362e-05
5.96495e-05
5.96665e-05
5.96861e-05
5.97068e-05
5.97287e-05
5.97493e-05
5.97696e-05
5.97899e-05
5.98325e-05
5.99118e-05
5.99812e-05
6.00416e-05
6.00845e-05
6.01053e-05
6.01069e-05
6.01134e-05
6.01249e-05
6.0148e-05
6.01707e-05
6.01843e-05
6.01811e-05
6.0154e-05
6.01398e-05
6.01286e-05
6.01201e-05
6.0114e-05
6.00885e-05
6.00612e-05
6.00393e-05
6.00178e-05
6.00025e-05
5.9986e-05
5.9973e-05
5.99717e-05
5.99686e-05
5.9955e-05
5.99475e-05
5.99507e-05
5.99495e-05
5.99355e-05
5.9921e-05
5.99157e-05
5.99163e-05
5.99154e-05
5.99081e-05
5.98958e-05
5.98841e-05
5.98741e-05
5.98647e-05
5.98572e-05
5.98519e-05
5.98484e-05
5.98487e-05
5.98633e-05
0.000350484
4.73309e-05
4.32242e-05
4.31172e-05
4.30568e-05
4.30099e-05
4.29736e-05
4.29454e-05
4.29244e-05
4.29088e-05
4.28978e-05
4.28916e-05
4.28893e-05
4.28901e-05
4.28935e-05
4.29019e-05
4.29097e-05
4.2916e-05
4.29205e-05
4.29231e-05
4.29246e-05
4.29274e-05
4.29315e-05
4.29364e-05
4.294e-05
4.29408e-05
4.29391e-05
4.29356e-05
4.29331e-05
4.29322e-05
4.29327e-05
4.29331e-05
4.29315e-05
4.29292e-05
4.29275e-05
4.29264e-05
4.29252e-05
4.29232e-05
4.29219e-05
4.29222e-05
4.29224e-05
4.2921e-05
4.29198e-05
4.29201e-05
4.29208e-05
4.29203e-05
4.29189e-05
4.2918e-05
4.29182e-05
4.29185e-05
4.2918e-05
4.2917e-05
4.2916e-05
4.29152e-05
4.29144e-05
4.29138e-05
4.29134e-05
4.29133e-05
4.29137e-05
4.29153e-05
0.000350212
4.69285e-05
4.25306e-05
4.24164e-05
4.2358e-05
4.23117e-05
4.2275e-05
4.22454e-05
4.22223e-05
4.22045e-05
4.21919e-05
4.21845e-05
4.21811e-05
4.21806e-05
4.21815e-05
4.21826e-05
4.21833e-05
4.21835e-05
4.21841e-05
4.21859e-05
4.21894e-05
4.21935e-05
4.21962e-05
4.21955e-05
4.21924e-05
4.21896e-05
4.21889e-05
4.21906e-05
4.21923e-05
4.21921e-05
4.21905e-05
4.21894e-05
4.21901e-05
4.21915e-05
4.21919e-05
4.21913e-05
4.21905e-05
4.21905e-05
4.21908e-05
4.21903e-05
4.21894e-05
4.21891e-05
4.21892e-05
4.21892e-05
4.2189e-05
4.21888e-05
4.21887e-05
4.21885e-05
4.21884e-05
4.21884e-05
4.21883e-05
4.21881e-05
4.21879e-05
4.21877e-05
4.21874e-05
4.21872e-05
4.2187e-05
4.2187e-05
4.21872e-05
4.21878e-05
0.00034996
4.6797e-05
4.24744e-05
4.23708e-05
4.23192e-05
4.22774e-05
4.22446e-05
4.22189e-05
4.21996e-05
4.21851e-05
4.21755e-05
4.21701e-05
4.21676e-05
4.21668e-05
4.21667e-05
4.21668e-05
4.21669e-05
4.21675e-05
4.21694e-05
4.21724e-05
4.21758e-05
4.21777e-05
4.21774e-05
4.21755e-05
4.21732e-05
4.21715e-05
4.21716e-05
4.21737e-05
4.21759e-05
4.21764e-05
4.21749e-05
4.21732e-05
4.21736e-05
4.21751e-05
4.2176e-05
4.21758e-05
4.21753e-05
4.21758e-05
4.21762e-05
4.21751e-05
4.21737e-05
4.21738e-05
4.21747e-05
4.21746e-05
4.21736e-05
4.21732e-05
4.21736e-05
4.21739e-05
4.21736e-05
4.21732e-05
4.21731e-05
4.21732e-05
4.21731e-05
4.21728e-05
4.21725e-05
4.21724e-05
4.21723e-05
4.21723e-05
4.21723e-05
4.2173e-05
0.000349591
4.66313e-05
4.24468e-05
4.23521e-05
4.23047e-05
4.22666e-05
4.2237e-05
4.22146e-05
4.21985e-05
4.21862e-05
4.21779e-05
4.21726e-05
4.21697e-05
4.21683e-05
4.21677e-05
4.21675e-05
4.21679e-05
4.21693e-05
4.21715e-05
4.21734e-05
4.21736e-05
4.21722e-05
4.21709e-05
4.21708e-05
4.21717e-05
4.21725e-05
4.21727e-05
4.21727e-05
4.21729e-05
4.21741e-05
4.21749e-05
4.21745e-05
4.21738e-05
4.21735e-05
4.21742e-05
4.21755e-05
4.21761e-05
4.21761e-05
4.21757e-05
4.21746e-05
4.21738e-05
4.21742e-05
4.21749e-05
4.21744e-05
4.21733e-05
4.2173e-05
4.21736e-05
4.21741e-05
4.21738e-05
4.21732e-05
4.2173e-05
4.21732e-05
4.21732e-05
4.21729e-05
4.21726e-05
4.21725e-05
4.21725e-05
4.21724e-05
4.21724e-05
4.21731e-05
0.000349138
4.65207e-05
4.24321e-05
4.2345e-05
4.2302e-05
4.22676e-05
4.22403e-05
4.22192e-05
4.22033e-05
4.21905e-05
4.21812e-05
4.21744e-05
4.21698e-05
4.21671e-05
4.21664e-05
4.21671e-05
4.21687e-05
4.21705e-05
4.21717e-05
4.21716e-05
4.21706e-05
4.21691e-05
4.21683e-05
4.21687e-05
4.21706e-05
4.21728e-05
4.21734e-05
4.21724e-05
4.21715e-05
4.21722e-05
4.21741e-05
4.21753e-05
4.21746e-05
4.21732e-05
4.21733e-05
4.21751e-05
4.21764e-05
4.21759e-05
4.21749e-05
4.21745e-05
4.21748e-05
4.2175e-05
4.21746e-05
4.2174e-05
4.21735e-05
4.21735e-05
4.21739e-05
4.21741e-05
4.21739e-05
4.21735e-05
4.21732e-05
4.21732e-05
4.21732e-05
4.2173e-05
4.21729e-05
4.21729e-05
4.21728e-05
4.21727e-05
4.21726e-05
4.21733e-05
0.000348675
4.64302e-05
4.24069e-05
4.23285e-05
4.22921e-05
4.22621e-05
4.22372e-05
4.22174e-05
4.22012e-05
4.21881e-05
4.21788e-05
4.21721e-05
4.21679e-05
4.21659e-05
4.21658e-05
4.21668e-05
4.21681e-05
4.21692e-05
4.21698e-05
4.21702e-05
4.21705e-05
4.21701e-05
4.21695e-05
4.21693e-05
4.21698e-05
4.21707e-05
4.21719e-05
4.21725e-05
4.21723e-05
4.21721e-05
4.21726e-05
4.21738e-05
4.21747e-05
4.21745e-05
4.21742e-05
4.21745e-05
4.21749e-05
4.21749e-05
4.21748e-05
4.21752e-05
4.21756e-05
4.21752e-05
4.21742e-05
4.21737e-05
4.21739e-05
4.21741e-05
4.21741e-05
4.2174e-05
4.2174e-05
4.21739e-05
4.21736e-05
4.21732e-05
4.21731e-05
4.21732e-05
4.21732e-05
4.21732e-05
4.2173e-05
4.21729e-05
4.21729e-05
4.21736e-05
0.000348215
4.63001e-05
4.23779e-05
4.23082e-05
4.22767e-05
4.22498e-05
4.22266e-05
4.22082e-05
4.21936e-05
4.21823e-05
4.21749e-05
4.21701e-05
4.21675e-05
4.21663e-05
4.21661e-05
4.21668e-05
4.21678e-05
4.21687e-05
4.21691e-05
4.21694e-05
4.21701e-05
4.2171e-05
4.21713e-05
4.21708e-05
4.21699e-05
4.21694e-05
4.21702e-05
4.2172e-05
4.21731e-05
4.21727e-05
4.21718e-05
4.21723e-05
4.21741e-05
4.21759e-05
4.21757e-05
4.21741e-05
4.21732e-05
4.2174e-05
4.21752e-05
4.21759e-05
4.21757e-05
4.21748e-05
4.21742e-05
4.21741e-05
4.21744e-05
4.21745e-05
4.21742e-05
4.21741e-05
4.21741e-05
4.21741e-05
4.21738e-05
4.21733e-05
4.21732e-05
4.21733e-05
4.21735e-05
4.21734e-05
4.21733e-05
4.21731e-05
4.21731e-05
4.21739e-05
0.000347669
4.61569e-05
4.23687e-05
4.23036e-05
4.22739e-05
4.22481e-05
4.22259e-05
4.22084e-05
4.21942e-05
4.2184e-05
4.21773e-05
4.21727e-05
4.217e-05
4.21684e-05
4.21677e-05
4.21675e-05
4.21678e-05
4.21685e-05
4.2169e-05
4.21693e-05
4.21698e-05
4.21706e-05
4.21713e-05
4.21716e-05
4.21712e-05
4.21704e-05
4.21703e-05
4.21709e-05
4.21719e-05
4.21724e-05
4.21724e-05
4.21728e-05
4.2174e-05
4.21754e-05
4.21756e-05
4.2174e-05
4.2173e-05
4.21739e-05
4.21753e-05
4.21757e-05
4.21752e-05
4.21746e-05
4.21746e-05
4.21748e-05
4.21749e-05
4.21746e-05
4.21743e-05
4.21743e-05
4.21744e-05
4.21742e-05
4.21738e-05
4.21734e-05
4.21733e-05
4.21735e-05
4.21736e-05
4.21736e-05
4.21734e-05
4.21733e-05
4.21733e-05
4.21742e-05
0.000347083
4.6073e-05
4.23731e-05
4.23109e-05
4.22829e-05
4.22586e-05
4.22376e-05
4.22202e-05
4.22053e-05
4.21939e-05
4.21854e-05
4.21788e-05
4.21742e-05
4.2171e-05
4.21689e-05
4.21676e-05
4.2167e-05
4.21673e-05
4.21681e-05
4.21691e-05
4.21698e-05
4.21703e-05
4.21706e-05
4.21713e-05
4.21719e-05
4.21719e-05
4.21713e-05
4.21706e-05
4.21708e-05
4.2172e-05
4.21735e-05
4.21744e-05
4.2174e-05
4.21737e-05
4.21741e-05
4.21743e-05
4.21743e-05
4.21746e-05
4.21746e-05
4.21745e-05
4.21747e-05
4.2175e-05
4.21753e-05
4.21753e-05
4.2175e-05
4.21746e-05
4.21745e-05
4.21746e-05
4.21745e-05
4.21742e-05
4.21738e-05
4.21736e-05
4.21736e-05
4.21737e-05
4.21737e-05
4.21737e-05
4.21736e-05
4.21735e-05
4.21735e-05
4.21744e-05
0.000346457
4.60433e-05
4.23684e-05
4.23109e-05
4.22864e-05
4.22645e-05
4.2245e-05
4.22279e-05
4.22131e-05
4.22011e-05
4.21914e-05
4.21837e-05
4.21781e-05
4.2174e-05
4.21711e-05
4.21691e-05
4.21678e-05
4.21672e-05
4.21673e-05
4.21681e-05
4.21692e-05
4.217e-05
4.21704e-05
4.21708e-05
4.21715e-05
4.21719e-05
4.21719e-05
4.21716e-05
4.21717e-05
4.21727e-05
4.21739e-05
4.21744e-05
4.21736e-05
4.21728e-05
4.21734e-05
4.21749e-05
4.21756e-05
4.2175e-05
4.21737e-05
4.21734e-05
4.21745e-05
4.21757e-05
4.21758e-05
4.21754e-05
4.21751e-05
4.2175e-05
4.21749e-05
4.21747e-05
4.21745e-05
4.21741e-05
4.21739e-05
4.21739e-05
4.21739e-05
4.21739e-05
4.21738e-05
4.21738e-05
4.21737e-05
4.21737e-05
4.21738e-05
4.21746e-05
0.000345946
4.59973e-05
4.23555e-05
4.23036e-05
4.22827e-05
4.2263e-05
4.22448e-05
4.22283e-05
4.22143e-05
4.22032e-05
4.21943e-05
4.21874e-05
4.21823e-05
4.21784e-05
4.21754e-05
4.21727e-05
4.21705e-05
4.21687e-05
4.21676e-05
4.21674e-05
4.21681e-05
4.21691e-05
4.21698e-05
4.21705e-05
4.21711e-05
4.21716e-05
4.21722e-05
4.21729e-05
4.21737e-05
4.21739e-05
4.21735e-05
4.21731e-05
4.21731e-05
4.21734e-05
4.21741e-05
4.21751e-05
4.21753e-05
4.21746e-05
4.21737e-05
4.21736e-05
4.21747e-05
4.21758e-05
4.21758e-05
4.21753e-05
4.21753e-05
4.21755e-05
4.21752e-05
4.21746e-05
4.21743e-05
4.21742e-05
4.21742e-05
4.21742e-05
4.21741e-05
4.2174e-05
4.21739e-05
4.21739e-05
4.21739e-05
4.21738e-05
4.21739e-05
4.21748e-05
0.00034534
4.5917e-05
4.23448e-05
4.2298e-05
4.22806e-05
4.22635e-05
4.22474e-05
4.22326e-05
4.22199e-05
4.22092e-05
4.22004e-05
4.21932e-05
4.21871e-05
4.21821e-05
4.2178e-05
4.21746e-05
4.2172e-05
4.21701e-05
4.21687e-05
4.2168e-05
4.21679e-05
4.21684e-05
4.21691e-05
4.217e-05
4.21709e-05
4.21717e-05
4.21728e-05
4.21739e-05
4.21744e-05
4.2174e-05
4.21731e-05
4.21727e-05
4.21734e-05
4.21746e-05
4.2175e-05
4.21745e-05
4.2174e-05
4.21741e-05
4.21745e-05
4.21747e-05
4.21749e-05
4.21753e-05
4.21754e-05
4.21754e-05
4.21756e-05
4.21758e-05
4.21753e-05
4.21745e-05
4.21742e-05
4.21743e-05
4.21745e-05
4.21744e-05
4.21743e-05
4.21741e-05
4.2174e-05
4.2174e-05
4.2174e-05
4.2174e-05
4.21741e-05
4.2175e-05
0.00034466
4.58153e-05
4.23349e-05
4.22946e-05
4.22808e-05
4.22668e-05
4.22526e-05
4.2239e-05
4.22267e-05
4.22154e-05
4.22055e-05
4.2197e-05
4.21896e-05
4.21835e-05
4.21787e-05
4.21752e-05
4.2173e-05
4.21718e-05
4.2171e-05
4.21705e-05
4.217e-05
4.21696e-05
4.21694e-05
4.21696e-05
4.21706e-05
4.2172e-05
4.21733e-05
4.21737e-05
4.21734e-05
4.21732e-05
4.21736e-05
4.21741e-05
4.21747e-05
4.21751e-05
4.21745e-05
4.21737e-05
4.21735e-05
4.21742e-05
4.21754e-05
4.21758e-05
4.21751e-05
4.21747e-05
4.21752e-05
4.21756e-05
4.21758e-05
4.21757e-05
4.21752e-05
4.21745e-05
4.21743e-05
4.21745e-05
4.21747e-05
4.21746e-05
4.21744e-05
4.21742e-05
4.21741e-05
4.21741e-05
4.21741e-05
4.21741e-05
4.21742e-05
4.21751e-05
0.00034393
4.56804e-05
4.23316e-05
4.22994e-05
4.22881e-05
4.22744e-05
4.22589e-05
4.22434e-05
4.2229e-05
4.22162e-05
4.22056e-05
4.21973e-05
4.21909e-05
4.21863e-05
4.21829e-05
4.21804e-05
4.21787e-05
4.21775e-05
4.21762e-05
4.21748e-05
4.21731e-05
4.21714e-05
4.21704e-05
4.21704e-05
4.2171e-05
4.21718e-05
4.21725e-05
4.21728e-05
4.21729e-05
4.21734e-05
4.21747e-05
4.21758e-05
4.21755e-05
4.21745e-05
4.21736e-05
4.21735e-05
4.21743e-05
4.21751e-05
4.21757e-05
4.21759e-05
4.21753e-05
4.21748e-05
4.21753e-05
4.21758e-05
4.21757e-05
4.21753e-05
4.21751e-05
4.21748e-05
4.21746e-05
4.21747e-05
4.21748e-05
4.21748e-05
4.21745e-05
4.21743e-05
4.21742e-05
4.21742e-05
4.21742e-05
4.21741e-05
4.21743e-05
4.21753e-05
0.000343128
4.55563e-05
4.23525e-05
4.23272e-05
4.23148e-05
4.22971e-05
4.22774e-05
4.22583e-05
4.2241e-05
4.22263e-05
4.22147e-05
4.2206e-05
4.21997e-05
4.21957e-05
4.21929e-05
4.21904e-05
4.21877e-05
4.21846e-05
4.2181e-05
4.21775e-05
4.21745e-05
4.21724e-05
4.21715e-05
4.21715e-05
4.21717e-05
4.21717e-05
4.21718e-05
4.21724e-05
4.21735e-05
4.21746e-05
4.21756e-05
4.21757e-05
4.2175e-05
4.21741e-05
4.21738e-05
4.21744e-05
4.21755e-05
4.21759e-05
4.21755e-05
4.21755e-05
4.21756e-05
4.21755e-05
4.21755e-05
4.21755e-05
4.21752e-05
4.2175e-05
4.21751e-05
4.21751e-05
4.21749e-05
4.21748e-05
4.21748e-05
4.21748e-05
4.21747e-05
4.21745e-05
4.21744e-05
4.21743e-05
4.21743e-05
4.21742e-05
4.21743e-05
4.21753e-05
0.000342302
4.55288e-05
4.24083e-05
4.23836e-05
4.23655e-05
4.23415e-05
4.23165e-05
4.22937e-05
4.22739e-05
4.22569e-05
4.22427e-05
4.22308e-05
4.22204e-05
4.22119e-05
4.22042e-05
4.21974e-05
4.21909e-05
4.21855e-05
4.21811e-05
4.21782e-05
4.21761e-05
4.21743e-05
4.21733e-05
4.21729e-05
4.21728e-05
4.21727e-05
4.21725e-05
4.2173e-05
4.21743e-05
4.21753e-05
4.21751e-05
4.21745e-05
4.21742e-05
4.21746e-05
4.21753e-05
4.21758e-05
4.21761e-05
4.21759e-05
4.21753e-05
4.21755e-05
4.21762e-05
4.21762e-05
4.21756e-05
4.21752e-05
4.21748e-05
4.21749e-05
4.21752e-05
4.21754e-05
4.21751e-05
4.21748e-05
4.21748e-05
4.21749e-05
4.21748e-05
4.21747e-05
4.21745e-05
4.21744e-05
4.21743e-05
4.21742e-05
4.21744e-05
4.21754e-05
0.000341598
4.565e-05
4.24783e-05
4.24506e-05
4.24269e-05
4.23979e-05
4.23676e-05
4.2339e-05
4.2313e-05
4.22898e-05
4.22696e-05
4.22519e-05
4.2236e-05
4.22218e-05
4.22091e-05
4.21985e-05
4.21903e-05
4.21844e-05
4.21811e-05
4.21796e-05
4.2179e-05
4.2178e-05
4.21766e-05
4.21751e-05
4.2174e-05
4.21739e-05
4.21741e-05
4.21744e-05
4.21745e-05
4.21744e-05
4.21741e-05
4.2174e-05
4.21746e-05
4.21758e-05
4.21769e-05
4.21767e-05
4.2176e-05
4.21757e-05
4.21758e-05
4.21761e-05
4.21766e-05
4.21762e-05
4.21754e-05
4.21749e-05
4.21749e-05
4.21751e-05
4.21753e-05
4.21754e-05
4.21751e-05
4.21748e-05
4.21748e-05
4.21749e-05
4.21749e-05
4.21748e-05
4.21746e-05
4.21744e-05
4.21743e-05
4.21743e-05
4.21744e-05
4.21755e-05
0.000341087
4.58322e-05
4.25169e-05
4.24866e-05
4.24643e-05
4.24353e-05
4.24021e-05
4.23677e-05
4.2334e-05
4.23024e-05
4.22745e-05
4.22517e-05
4.22333e-05
4.22192e-05
4.22083e-05
4.22e-05
4.21939e-05
4.21892e-05
4.2186e-05
4.21835e-05
4.2182e-05
4.21805e-05
4.21789e-05
4.21772e-05
4.21756e-05
4.2175e-05
4.2175e-05
4.21749e-05
4.21743e-05
4.21738e-05
4.21739e-05
4.21748e-05
4.21759e-05
4.21768e-05
4.21772e-05
4.21768e-05
4.21761e-05
4.21762e-05
4.21767e-05
4.21769e-05
4.21766e-05
4.21758e-05
4.21751e-05
4.2175e-05
4.21753e-05
4.21754e-05
4.21753e-05
4.21752e-05
4.2175e-05
4.21749e-05
4.21749e-05
4.2175e-05
4.2175e-05
4.21749e-05
4.21746e-05
4.21744e-05
4.21743e-05
4.21743e-05
4.21745e-05
4.21755e-05
0.000340719
4.59246e-05
4.25305e-05
4.24894e-05
4.24668e-05
4.24379e-05
4.24045e-05
4.23699e-05
4.23364e-05
4.23051e-05
4.22769e-05
4.22532e-05
4.22344e-05
4.22207e-05
4.22115e-05
4.22052e-05
4.22009e-05
4.21967e-05
4.2193e-05
4.21884e-05
4.21839e-05
4.21806e-05
4.2179e-05
4.21785e-05
4.21777e-05
4.21765e-05
4.21754e-05
4.21748e-05
4.21746e-05
4.21746e-05
4.21752e-05
4.21762e-05
4.21769e-05
4.21769e-05
4.21767e-05
4.21768e-05
4.21769e-05
4.21773e-05
4.21775e-05
4.2177e-05
4.21761e-05
4.21755e-05
4.21752e-05
4.21754e-05
4.21758e-05
4.21757e-05
4.21752e-05
4.2175e-05
4.2175e-05
4.2175e-05
4.21749e-05
4.2175e-05
4.2175e-05
4.21749e-05
4.21746e-05
4.21744e-05
4.21743e-05
4.21743e-05
4.21745e-05
4.21756e-05
0.000340313
4.59694e-05
4.25804e-05
4.25221e-05
4.24875e-05
4.245e-05
4.24125e-05
4.23773e-05
4.23464e-05
4.23188e-05
4.22946e-05
4.22733e-05
4.22545e-05
4.22378e-05
4.22246e-05
4.22135e-05
4.22049e-05
4.21979e-05
4.2193e-05
4.21891e-05
4.21853e-05
4.21822e-05
4.218e-05
4.21792e-05
4.21787e-05
4.2178e-05
4.21769e-05
4.21758e-05
4.21757e-05
4.21762e-05
4.21769e-05
4.2177e-05
4.21769e-05
4.21766e-05
4.21767e-05
4.21775e-05
4.21782e-05
4.21782e-05
4.21776e-05
4.21766e-05
4.21758e-05
4.21756e-05
4.21757e-05
4.21759e-05
4.2176e-05
4.21757e-05
4.21752e-05
4.2175e-05
4.21751e-05
4.21751e-05
4.21749e-05
4.21749e-05
4.21749e-05
4.21748e-05
4.21746e-05
4.21745e-05
4.21744e-05
4.21744e-05
4.21745e-05
4.21756e-05
0.000340073
4.61105e-05
4.26705e-05
4.2594e-05
4.25437e-05
4.24948e-05
4.24501e-05
4.24097e-05
4.23749e-05
4.23438e-05
4.23169e-05
4.22933e-05
4.22727e-05
4.22536e-05
4.22367e-05
4.2221e-05
4.22077e-05
4.21976e-05
4.21913e-05
4.21885e-05
4.2187e-05
4.21858e-05
4.21837e-05
4.21815e-05
4.21799e-05
4.21791e-05
4.21787e-05
4.21781e-05
4.21777e-05
4.21776e-05
4.21776e-05
4.21772e-05
4.21769e-05
4.2177e-05
4.21776e-05
4.21786e-05
4.21789e-05
4.21782e-05
4.21772e-05
4.21764e-05
4.2176e-05
4.21763e-05
4.21764e-05
4.21762e-05
4.21759e-05
4.21756e-05
4.21753e-05
4.21751e-05
4.21752e-05
4.21752e-05
4.21749e-05
4.21747e-05
4.21748e-05
4.21747e-05
4.21746e-05
4.21745e-05
4.21744e-05
4.21744e-05
4.21745e-05
4.21756e-05
0.000340007
4.63067e-05
4.27362e-05
4.26418e-05
4.25808e-05
4.25258e-05
4.24763e-05
4.24313e-05
4.23918e-05
4.23556e-05
4.23237e-05
4.22953e-05
4.22713e-05
4.22514e-05
4.22362e-05
4.2224e-05
4.22134e-05
4.22046e-05
4.21974e-05
4.2193e-05
4.21904e-05
4.21895e-05
4.21881e-05
4.21855e-05
4.21826e-05
4.21805e-05
4.21802e-05
4.21804e-05
4.21798e-05
4.21787e-05
4.21778e-05
4.21775e-05
4.21778e-05
4.21784e-05
4.21789e-05
4.21792e-05
4.21789e-05
4.21778e-05
4.2177e-05
4.21768e-05
4.21768e-05
4.2177e-05
4.21769e-05
4.21762e-05
4.21756e-05
4.21755e-05
4.21755e-05
4.21755e-05
4.21754e-05
4.21752e-05
4.21748e-05
4.21746e-05
4.21746e-05
4.21746e-05
4.21745e-05
4.21745e-05
4.21744e-05
4.21744e-05
4.21745e-05
4.21756e-05
0.000340029
4.64629e-05
4.27886e-05
4.26776e-05
4.26035e-05
4.25387e-05
4.24808e-05
4.24293e-05
4.23861e-05
4.23492e-05
4.23186e-05
4.22928e-05
4.22707e-05
4.22521e-05
4.22379e-05
4.22283e-05
4.22211e-05
4.22156e-05
4.22094e-05
4.22033e-05
4.21972e-05
4.21926e-05
4.21898e-05
4.21877e-05
4.21857e-05
4.21833e-05
4.21819e-05
4.21814e-05
4.2181e-05
4.218e-05
4.21789e-05
4.21788e-05
4.21793e-05
4.21797e-05
4.21795e-05
4.2179e-05
4.21785e-05
4.21779e-05
4.21775e-05
4.21775e-05
4.21775e-05
4.21774e-05
4.2177e-05
4.21762e-05
4.21755e-05
4.21755e-05
4.21758e-05
4.21758e-05
4.21756e-05
4.21751e-05
4.21747e-05
4.21744e-05
4.21744e-05
4.21745e-05
4.21745e-05
4.21745e-05
4.21744e-05
4.21744e-05
4.21745e-05
4.21756e-05
0.000340181
4.66483e-05
4.2899e-05
4.27633e-05
4.26702e-05
4.25874e-05
4.25131e-05
4.24481e-05
4.23956e-05
4.23544e-05
4.23229e-05
4.23e-05
4.22818e-05
4.22668e-05
4.22528e-05
4.22414e-05
4.22313e-05
4.22236e-05
4.22166e-05
4.22101e-05
4.22033e-05
4.21965e-05
4.21916e-05
4.21888e-05
4.21877e-05
4.21861e-05
4.2184e-05
4.21826e-05
4.2182e-05
4.21818e-05
4.21811e-05
4.21807e-05
4.21804e-05
4.21801e-05
4.21795e-05
4.21788e-05
4.21787e-05
4.21788e-05
4.21786e-05
4.21783e-05
4.21779e-05
4.21774e-05
4.21769e-05
4.21763e-05
4.21757e-05
4.21757e-05
4.21759e-05
4.21759e-05
4.21756e-05
4.21751e-05
4.21747e-05
4.21743e-05
4.21742e-05
4.21743e-05
4.21744e-05
4.21745e-05
4.21744e-05
4.21743e-05
4.21745e-05
4.21755e-05
0.000340497
4.69286e-05
4.30494e-05
4.28835e-05
4.27713e-05
4.26739e-05
4.25869e-05
4.25105e-05
4.24463e-05
4.2395e-05
4.23538e-05
4.23234e-05
4.22997e-05
4.22823e-05
4.22675e-05
4.22546e-05
4.22414e-05
4.22291e-05
4.22188e-05
4.22115e-05
4.22067e-05
4.22017e-05
4.21968e-05
4.21923e-05
4.21897e-05
4.21882e-05
4.21866e-05
4.2185e-05
4.2184e-05
4.21838e-05
4.21832e-05
4.21821e-05
4.21809e-05
4.21802e-05
4.21797e-05
4.21794e-05
4.21796e-05
4.21799e-05
4.21796e-05
4.21787e-05
4.21778e-05
4.21772e-05
4.21769e-05
4.21766e-05
4.21762e-05
4.2176e-05
4.21759e-05
4.21758e-05
4.21755e-05
4.21751e-05
4.21747e-05
4.21743e-05
4.21741e-05
4.21741e-05
4.21743e-05
4.21744e-05
4.21743e-05
4.21742e-05
4.21744e-05
4.21754e-05
0.000341078
4.7231e-05
4.3186e-05
4.29855e-05
4.28532e-05
4.27451e-05
4.2652e-05
4.25713e-05
4.25016e-05
4.24445e-05
4.23953e-05
4.23557e-05
4.2322e-05
4.2295e-05
4.22739e-05
4.2259e-05
4.2247e-05
4.22356e-05
4.22252e-05
4.22165e-05
4.2211e-05
4.22067e-05
4.22027e-05
4.21981e-05
4.21938e-05
4.21911e-05
4.21895e-05
4.21882e-05
4.21867e-05
4.21855e-05
4.21842e-05
4.21827e-05
4.21814e-05
4.21809e-05
4.21809e-05
4.21809e-05
4.21807e-05
4.21807e-05
4.21801e-05
4.21789e-05
4.21777e-05
4.21771e-05
4.2177e-05
4.2177e-05
4.21767e-05
4.21763e-05
4.21758e-05
4.21755e-05
4.21753e-05
4.21752e-05
4.21749e-05
4.21744e-05
4.21741e-05
4.2174e-05
4.21742e-05
4.21743e-05
4.21742e-05
4.21741e-05
4.21743e-05
4.21753e-05
0.000341794
4.75608e-05
4.33525e-05
4.31018e-05
4.29321e-05
4.27961e-05
4.26839e-05
4.25926e-05
4.25179e-05
4.24594e-05
4.24107e-05
4.23718e-05
4.23381e-05
4.23089e-05
4.22847e-05
4.22662e-05
4.22534e-05
4.22433e-05
4.22349e-05
4.22263e-05
4.22191e-05
4.22127e-05
4.22075e-05
4.22031e-05
4.21988e-05
4.21955e-05
4.2193e-05
4.2191e-05
4.21887e-05
4.21865e-05
4.21849e-05
4.21836e-05
4.21828e-05
4.21827e-05
4.21829e-05
4.21826e-05
4.21816e-05
4.21807e-05
4.218e-05
4.21791e-05
4.21782e-05
4.21774e-05
4.21773e-05
4.21773e-05
4.2177e-05
4.21764e-05
4.21757e-05
4.21752e-05
4.21751e-05
4.21752e-05
4.21751e-05
4.21745e-05
4.21741e-05
4.21739e-05
4.2174e-05
4.21741e-05
4.21741e-05
4.2174e-05
4.21741e-05
4.21751e-05
0.00034283
4.80677e-05
4.36343e-05
4.33184e-05
4.30927e-05
4.29096e-05
4.27591e-05
4.26392e-05
4.25451e-05
4.24747e-05
4.24211e-05
4.23813e-05
4.23506e-05
4.23248e-05
4.23035e-05
4.22846e-05
4.2269e-05
4.2255e-05
4.22441e-05
4.22347e-05
4.22265e-05
4.22189e-05
4.22124e-05
4.22076e-05
4.22034e-05
4.21998e-05
4.21962e-05
4.21929e-05
4.21899e-05
4.21876e-05
4.21865e-05
4.21859e-05
4.21855e-05
4.21851e-05
4.21847e-05
4.21837e-05
4.21819e-05
4.21804e-05
4.21798e-05
4.21796e-05
4.2179e-05
4.2178e-05
4.21774e-05
4.21774e-05
4.21771e-05
4.21764e-05
4.21757e-05
4.21751e-05
4.2175e-05
4.21752e-05
4.21752e-05
4.21747e-05
4.21742e-05
4.21739e-05
4.21738e-05
4.21738e-05
4.21739e-05
4.21738e-05
4.21739e-05
4.21749e-05
0.000344262
4.88023e-05
4.40149e-05
4.36066e-05
4.33139e-05
4.30817e-05
4.28956e-05
4.27495e-05
4.26358e-05
4.25471e-05
4.24777e-05
4.24243e-05
4.23843e-05
4.23516e-05
4.23265e-05
4.23057e-05
4.22877e-05
4.227e-05
4.22546e-05
4.22423e-05
4.22329e-05
4.22253e-05
4.22185e-05
4.2213e-05
4.22078e-05
4.22031e-05
4.21988e-05
4.21951e-05
4.21921e-05
4.21899e-05
4.21891e-05
4.21892e-05
4.21886e-05
4.21871e-05
4.21855e-05
4.2184e-05
4.21822e-05
4.21807e-05
4.218e-05
4.21802e-05
4.218e-05
4.21788e-05
4.21776e-05
4.21772e-05
4.2177e-05
4.21764e-05
4.21757e-05
4.21752e-05
4.2175e-05
4.21751e-05
4.21751e-05
4.21748e-05
4.21743e-05
4.21738e-05
4.21736e-05
4.21736e-05
4.21737e-05
4.21736e-05
4.21737e-05
4.21747e-05
0.000346232
4.97733e-05
4.44773e-05
4.39267e-05
4.354e-05
4.32455e-05
4.30241e-05
4.28593e-05
4.27386e-05
4.26439e-05
4.25649e-05
4.24967e-05
4.24407e-05
4.23926e-05
4.23546e-05
4.23255e-05
4.23032e-05
4.22836e-05
4.22666e-05
4.22527e-05
4.22417e-05
4.22332e-05
4.22256e-05
4.22192e-05
4.22131e-05
4.22072e-05
4.22021e-05
4.21985e-05
4.21962e-05
4.2194e-05
4.21926e-05
4.21922e-05
4.21911e-05
4.21885e-05
4.21857e-05
4.2184e-05
4.21828e-05
4.21816e-05
4.21809e-05
4.21807e-05
4.21805e-05
4.21794e-05
4.21777e-05
4.21769e-05
4.21768e-05
4.21764e-05
4.21758e-05
4.21754e-05
4.21751e-05
4.2175e-05
4.2175e-05
4.21748e-05
4.21743e-05
4.21738e-05
4.21734e-05
4.21733e-05
4.21734e-05
4.21734e-05
4.21735e-05
4.21744e-05
0.000348851
5.11061e-05
4.51223e-05
4.43577e-05
4.38346e-05
4.34502e-05
4.31731e-05
4.29705e-05
4.28275e-05
4.27211e-05
4.26356e-05
4.25607e-05
4.24962e-05
4.24375e-05
4.23887e-05
4.23511e-05
4.2323e-05
4.23005e-05
4.22812e-05
4.22655e-05
4.22526e-05
4.22423e-05
4.22329e-05
4.22254e-05
4.2219e-05
4.2213e-05
4.22073e-05
4.22033e-05
4.22013e-05
4.21989e-05
4.2196e-05
4.21939e-05
4.21923e-05
4.21897e-05
4.21864e-05
4.21845e-05
4.21838e-05
4.21831e-05
4.2182e-05
4.2181e-05
4.21804e-05
4.21796e-05
4.21781e-05
4.21769e-05
4.21766e-05
4.21764e-05
4.2176e-05
4.21757e-05
4.21753e-05
4.21749e-05
4.21748e-05
4.21747e-05
4.21743e-05
4.21737e-05
4.21733e-05
4.21731e-05
4.21731e-05
4.21731e-05
4.21732e-05
4.21741e-05
0.000352519
5.30718e-05
4.60799e-05
4.49793e-05
4.4262e-05
4.37637e-05
4.34167e-05
4.31587e-05
4.29691e-05
4.28263e-05
4.27152e-05
4.26248e-05
4.25521e-05
4.2488e-05
4.24322e-05
4.23875e-05
4.23531e-05
4.23259e-05
4.23019e-05
4.22812e-05
4.2264e-05
4.2251e-05
4.22403e-05
4.22319e-05
4.22254e-05
4.22199e-05
4.22143e-05
4.2209e-05
4.22056e-05
4.22028e-05
4.21988e-05
4.21951e-05
4.21929e-05
4.2191e-05
4.21883e-05
4.21859e-05
4.2185e-05
4.21843e-05
4.2183e-05
4.21812e-05
4.21801e-05
4.21795e-05
4.21785e-05
4.21772e-05
4.21765e-05
4.21764e-05
4.21763e-05
4.2176e-05
4.21754e-05
4.21748e-05
4.21745e-05
4.21745e-05
4.21742e-05
4.21736e-05
4.21732e-05
4.21729e-05
4.21727e-05
4.21727e-05
4.21729e-05
4.21738e-05
0.000357798
5.63044e-05
4.76241e-05
4.59356e-05
4.49158e-05
4.42597e-05
4.38168e-05
4.34815e-05
4.32202e-05
4.30167e-05
4.28562e-05
4.2729e-05
4.26325e-05
4.25557e-05
4.24917e-05
4.24378e-05
4.2393e-05
4.23572e-05
4.2327e-05
4.23012e-05
4.22788e-05
4.22615e-05
4.22488e-05
4.22397e-05
4.2233e-05
4.22274e-05
4.22214e-05
4.22144e-05
4.22088e-05
4.22052e-05
4.22014e-05
4.21971e-05
4.21941e-05
4.21928e-05
4.21907e-05
4.21879e-05
4.2186e-05
4.21849e-05
4.21834e-05
4.21814e-05
4.21799e-05
4.21794e-05
4.2179e-05
4.21778e-05
4.21767e-05
4.21764e-05
4.21764e-05
4.21761e-05
4.21755e-05
4.21748e-05
4.21743e-05
4.21742e-05
4.2174e-05
4.21735e-05
4.2173e-05
4.21727e-05
4.21724e-05
4.21724e-05
4.21726e-05
4.21735e-05
0.000366474
6.21203e-05
5.02233e-05
4.75024e-05
4.59974e-05
4.50747e-05
4.44495e-05
4.39748e-05
4.36006e-05
4.33081e-05
4.30759e-05
4.28885e-05
4.27443e-05
4.26355e-05
4.25543e-05
4.2492e-05
4.24389e-05
4.23921e-05
4.23528e-05
4.23223e-05
4.22972e-05
4.22763e-05
4.22602e-05
4.22489e-05
4.22409e-05
4.22341e-05
4.22272e-05
4.22192e-05
4.2212e-05
4.22076e-05
4.22046e-05
4.22007e-05
4.21966e-05
4.21944e-05
4.21928e-05
4.21898e-05
4.21868e-05
4.21849e-05
4.21835e-05
4.21817e-05
4.21801e-05
4.21795e-05
4.21794e-05
4.21785e-05
4.21771e-05
4.21764e-05
4.21764e-05
4.21762e-05
4.21755e-05
4.21747e-05
4.21741e-05
4.21739e-05
4.21737e-05
4.21733e-05
4.21729e-05
4.21725e-05
4.21721e-05
4.2172e-05
4.21722e-05
4.21731e-05
0.00039558
7.5148e-05
5.50951e-05
5.03546e-05
4.79735e-05
4.64822e-05
4.54304e-05
4.46498e-05
4.40689e-05
4.36468e-05
4.3333e-05