/*--------------------------------*- C++ -*----------------------------------*\
| =========                 |                                                 |
| \\      /  F ield         | OpenFOAM: The Open Source CFD Toolbox           |
|  \\    /   O peration     | Version:  v1912                                 |
|   \\  /    A nd           | Website:  www.openfoam.com                      |
|    \\/     M anipulation  |                                                 |
\*---------------------------------------------------------------------------*/
FoamFile
{
    version     2.0;
    format      ascii;
    class       volScalarField;
    location    "2";
    object      k;
}
// * * * * * * * * * * * * * * * * * * * * * * * * * * * * * * * * * * * * * //

dimensions      [0 2 -2 0 0 0 0];


internalField   nonuniform List<scalar> 
20320
(
0.0041476
0.00431743
0.00444727
0.00466435
0.00550077
0.00787414
0.0110153
0.0124359
0.0108277
0.00776166
0.00561108
0.00479041
0.004527
0.00438566
0.0042759
0.00418414
0.00410537
0.00403621
0.00397451
0.00388099
0.0453556
0.0343928
0.282395
0.853819
1.53065
2.06801
2.36433
2.42686
2.27391
1.91803
1.39534
0.800604
0.310054
0.0712692
0.0184217
0.0132123
0.0120477
0.0113166
0.0108228
0.00901636
1.83715
2.49121
4.53359
6.3015
7.65851
8.57149
9.05895
9.16291
8.9233
8.36872
7.52228
6.41154
5.0777
3.58575
2.03551
0.662466
0.0677829
0.0120658
0.0108064
0.00888719
5.68775
7.33298
10.5008
13.0053
14.8575
16.1008
16.792
16.9901
16.7473
16.1058
15.0991
13.7568
12.1098
10.1961
8.06689
5.79573
3.49727
1.37233
0.111729
0.00822094
10.8001
13.0877
17.0491
20.112
22.3662
23.8954
24.7774
25.0826
24.8718
24.1952
23.0937
21.6021
19.752
17.5762
15.1126
12.4084
9.52678
6.55725
3.63774
0.992497
16.7743
19.4346
23.9304
27.386
29.9346
31.6815
32.7157
33.1135
32.9397
32.2485
31.0852
29.4881
27.4909
25.1259
22.4265
19.4308
16.1843
12.7425
9.16145
5.21297
23.3323
26.1764
30.998
34.7003
37.4388
39.3295
40.4662
40.927
40.778
40.0747
38.8643
37.1874
35.0796
32.5746
29.706
26.5093
23.0223
19.2733
15.2026
9.96069
30.25
33.1482
38.1309
41.9592
44.7963
46.7618
47.9503
48.4393
48.2944
47.5711
46.3173
44.5748
42.3811
39.7709
36.7775
33.4316
29.753
25.7164
21.101
14.4352
37.3459
40.2119
45.2308
49.0893
51.9494
53.9293
55.1218
55.603
55.4371
54.6793
53.3774
51.5738
49.3064
46.6094
43.512
40.0329
36.1632
31.8109
26.5963
18.4976
44.4903
47.2629
52.227
56.0421
58.8629
60.8037
61.9547
62.3906
62.1747
61.3617
59.9993
58.1296
55.7897
53.0104
49.8132
46.2004
42.1295
37.4433
31.6211
22.1636
51.6169
54.2446
59.0893
62.8021
65.5282
67.3779
68.4401
68.7893
68.4888
67.5933
66.1506
64.2017
61.7813
58.9152
55.6152
51.8651
47.5899
42.5734
36.1721
25.4695
58.7389
61.1594
65.8354
69.3909
71.9637
73.6637
74.5819
74.7948
74.3676
73.3555
71.8057
69.7576
67.2425
64.2802
60.8719
56.9837
52.511
47.1858
40.2581
28.4425
65.9691
68.0858
72.5431
75.8735
78.2168
79.6908
80.3945
80.4099
79.8046
78.6343
76.9449
74.7729
72.1451
69.0744
65.5516
61.5269
56.8702
51.2691
43.8814
31.095
73.5344
75.1928
79.3561
82.3558
84.3556
85.4967
85.8936
85.6354
84.7916
83.416
81.551
79.2283
76.4683
73.2761
69.632
65.4724
60.6462
54.8051
47.0288
33.4204
81.7793
82.7497
86.48
88.9677
90.4474
91.1067
91.0797
90.4592
89.3105
87.6809
85.605
83.1064
80.197
76.8721
73.1008
68.8059
63.8195
57.7669
49.6673
35.3878
91.1279
91.1269
94.1504
95.8126
96.5123
96.4998
95.9166
94.8426
93.3262
91.3993
89.0834
86.3911
83.3228
79.8616
75.9622
71.5315
66.3849
60.1285
51.7449
36.9332
102.762
100.848
102.536
102.846
102.435
101.557
100.303
98.7064
96.7786
94.527
91.9557
89.064
85.8406
82.2549
78.2426
73.6859
68.3731
61.8889
53.2007
37.9411
122.509
112.943
111.48
109.677
107.877
106.034
104.072
101.936
99.5897
97.0112
94.1869
91.1048
87.7456
84.0684
79.9892
75.3511
69.8848
63.1233
54.0146
38.2332
135.127
126.323
119.444
115.373
112.318
109.628
107.039
104.417
101.687
98.8065
95.7483
92.4949
89.0267
85.3044
81.239
76.6309
71.0953
64.0342
54.3528
37.6609
131.435
128.077
123.087
118.955
115.379
112.151
109.097
106.086
103.034
99.8931
96.632
93.2334
89.6899
85.973
82.019
77.6336
72.3224
65.009
54.9254
37.4607
0.00335762
0.00301086
0.00302146
0.00303143
0.00304023
0.00304784
0.00305428
0.00305963
0.00306396
0.00306738
0.00306986
0.00307151
0.00307242
0.0030726
0.00307229
0.00307158
0.0030704
0.00306879
0.00306692
0.0030648
0.00306259
0.00306028
0.00305786
0.00305533
0.00305267
0.00304989
0.00304709
0.00304431
0.00304149
0.00303875
0.00303605
0.00303337
0.0030308
0.00302838
0.00302607
0.00302391
0.00302182
0.00301988
0.00301794
0.00301597
0.00301407
0.00301218
0.00301027
0.00300838
0.00300641
0.00300451
0.0030027
0.00300089
0.00299903
0.00299715
0.00299524
0.00299346
0.00299169
0.00298992
0.00298828
0.00298662
0.00298497
0.00298332
0.00298166
0.00298016
0.00338437
0.00402714
0.00402732
0.00402336
0.00402023
0.00401776
0.00401584
0.00401437
0.00401331
0.00401252
0.00401195
0.00401154
0.00401126
0.0040111
0.00401098
0.00401086
0.0040108
0.00401076
0.0040107
0.00401062
0.00401054
0.00401048
0.00401048
0.00401053
0.00401059
0.00401058
0.00401045
0.00401028
0.00401012
0.00401008
0.00401011
0.0040101
0.00401005
0.00401
0.00400997
0.00400998
0.00400994
0.00400988
0.00400983
0.00400981
0.00400978
0.00400974
0.00400968
0.00400963
0.00400961
0.0040096
0.00400956
0.00400951
0.00400947
0.00400943
0.0040094
0.00400937
0.00400934
0.00400931
0.00400928
0.00400925
0.00400922
0.00400919
0.00400917
0.00400914
0.00339285
0.00406628
0.00407357
0.00406839
0.00406424
0.00406098
0.00405841
0.00405639
0.00405485
0.00405368
0.00405283
0.0040523
0.00405202
0.00405196
0.00405201
0.00405209
0.00405214
0.00405214
0.00405213
0.00405215
0.00405222
0.00405235
0.00405252
0.00405265
0.00405267
0.00405259
0.00405247
0.00405239
0.00405235
0.00405233
0.00405235
0.00405236
0.00405236
0.00405235
0.00405234
0.00405234
0.00405231
0.00405227
0.00405225
0.00405225
0.00405225
0.00405221
0.00405218
0.00405218
0.0040522
0.00405221
0.00405218
0.00405215
0.00405215
0.00405216
0.00405215
0.00405213
0.00405211
0.0040521
0.00405209
0.00405207
0.00405206
0.00405206
0.00405207
0.0040521
0.00340143
0.00406631
0.00407455
0.00406977
0.00406588
0.00406278
0.00406033
0.00405835
0.00405681
0.00405562
0.00405478
0.00405428
0.00405405
0.00405401
0.00405406
0.00405412
0.00405414
0.00405415
0.00405418
0.00405429
0.00405451
0.00405477
0.00405494
0.00405489
0.00405469
0.00405449
0.00405445
0.00405456
0.00405467
0.00405466
0.00405456
0.00405448
0.00405453
0.00405462
0.00405465
0.00405461
0.00405457
0.00405457
0.00405459
0.00405456
0.0040545
0.00405448
0.00405449
0.00405449
0.00405447
0.00405447
0.00405446
0.00405445
0.00405444
0.00405444
0.00405443
0.00405443
0.00405441
0.0040544
0.00405438
0.00405437
0.00405436
0.00405436
0.00405437
0.00405441
0.00340973
0.00406374
0.00407186
0.00406775
0.00406431
0.00406151
0.00405931
0.0040576
0.0040563
0.00405533
0.00405468
0.00405432
0.00405414
0.00405409
0.00405409
0.00405409
0.0040541
0.00405414
0.00405426
0.00405446
0.00405467
0.00405479
0.00405478
0.00405466
0.00405451
0.0040544
0.0040544
0.00405453
0.00405468
0.00405471
0.00405461
0.00405451
0.00405453
0.00405462
0.00405468
0.00405467
0.00405464
0.00405467
0.00405469
0.00405462
0.00405453
0.00405454
0.0040546
0.00405459
0.00405453
0.0040545
0.00405453
0.00405455
0.00405453
0.0040545
0.0040545
0.0040545
0.0040545
0.00405448
0.00405446
0.00405445
0.00405445
0.00405444
0.00405445
0.00405449
0.00341781
0.00406221
0.00407019
0.0040665
0.00406335
0.0040608
0.00405882
0.00405732
0.00405623
0.0040554
0.00405484
0.00405449
0.00405428
0.00405419
0.00405415
0.00405414
0.00405417
0.00405426
0.00405441
0.00405452
0.00405454
0.00405446
0.00405437
0.00405436
0.00405442
0.00405447
0.00405448
0.00405448
0.0040545
0.00405457
0.00405463
0.0040546
0.00405455
0.00405454
0.00405458
0.00405466
0.0040547
0.0040547
0.00405467
0.0040546
0.00405455
0.00405458
0.00405462
0.00405459
0.00405452
0.0040545
0.00405454
0.00405457
0.00405455
0.00405451
0.0040545
0.00405451
0.00405451
0.00405449
0.00405448
0.00405447
0.00405447
0.00405446
0.00405446
0.0040545
0.00342588
0.00406145
0.00406931
0.00406599
0.00406313
0.00406083
0.004059
0.00405759
0.00405653
0.00405567
0.00405505
0.0040546
0.00405429
0.00405412
0.00405407
0.00405412
0.00405422
0.00405433
0.00405442
0.00405442
0.00405435
0.00405425
0.0040542
0.00405422
0.00405434
0.00405448
0.00405453
0.00405446
0.0040544
0.00405445
0.00405457
0.00405465
0.00405461
0.00405452
0.00405452
0.00405464
0.00405472
0.00405469
0.00405463
0.0040546
0.00405461
0.00405463
0.00405461
0.00405456
0.00405453
0.00405453
0.00405456
0.00405457
0.00405456
0.00405453
0.00405452
0.00405452
0.00405451
0.0040545
0.0040545
0.00405449
0.00405449
0.00405448
0.00405448
0.00405452
0.00343393
0.00405998
0.00406773
0.0040649
0.00406247
0.00406046
0.0040588
0.00405747
0.00405639
0.00405552
0.0040549
0.00405445
0.00405417
0.00405404
0.00405403
0.0040541
0.00405418
0.00405426
0.00405429
0.00405432
0.00405434
0.00405431
0.00405427
0.00405425
0.00405429
0.00405435
0.00405443
0.00405447
0.00405446
0.00405444
0.00405447
0.00405455
0.00405461
0.0040546
0.00405458
0.0040546
0.00405463
0.00405463
0.00405462
0.00405464
0.00405467
0.00405464
0.00405458
0.00405455
0.00405456
0.00405457
0.00405457
0.00405457
0.00405457
0.00405456
0.00405454
0.00405452
0.00405451
0.00405451
0.00405452
0.00405452
0.00405451
0.0040545
0.0040545
0.00405454
0.00344165
0.00405812
0.00406595
0.00406357
0.00406147
0.00405966
0.00405811
0.00405688
0.0040559
0.00405515
0.00405465
0.00405433
0.00405415
0.00405406
0.00405405
0.00405409
0.00405416
0.00405422
0.00405425
0.00405426
0.00405431
0.00405437
0.00405439
0.00405435
0.0040543
0.00405427
0.00405432
0.00405443
0.0040545
0.00405448
0.00405443
0.00405446
0.00405458
0.00405469
0.00405468
0.00405457
0.00405452
0.00405457
0.00405465
0.00405469
0.00405468
0.00405462
0.00405458
0.00405457
0.00405459
0.0040546
0.00405458
0.00405457
0.00405458
0.00405458
0.00405455
0.00405452
0.00405451
0.00405452
0.00405454
0.00405453
0.00405452
0.00405451
0.00405451
0.00405456
0.00344904
0.0040576
0.00406546
0.00406326
0.00406128
0.00405955
0.00405807
0.0040569
0.00405595
0.00405526
0.0040548
0.00405449
0.00405431
0.0040542
0.00405415
0.00405413
0.00405415
0.0040542
0.00405424
0.00405426
0.00405429
0.00405434
0.00405439
0.00405441
0.00405438
0.00405433
0.00405432
0.00405437
0.00405443
0.00405447
0.00405447
0.00405449
0.00405457
0.00405466
0.00405467
0.00405457
0.0040545
0.00405456
0.00405465
0.00405468
0.00405464
0.00405461
0.0040546
0.00405462
0.00405462
0.0040546
0.00405459
0.00405459
0.00405459
0.00405458
0.00405456
0.00405453
0.00405453
0.00405454
0.00405455
0.00405455
0.00405453
0.00405452
0.00405453
0.00405457
0.0034564
0.0040582
0.00406583
0.00406371
0.00406185
0.00406023
0.00405882
0.00405766
0.00405666
0.0040559
0.00405533
0.00405489
0.00405459
0.00405437
0.00405424
0.00405414
0.00405411
0.00405412
0.00405418
0.00405424
0.00405429
0.00405432
0.00405435
0.00405439
0.00405443
0.00405443
0.00405439
0.00405435
0.00405436
0.00405444
0.00405454
0.00405459
0.00405457
0.00405455
0.00405458
0.00405459
0.00405459
0.00405461
0.00405461
0.0040546
0.00405461
0.00405463
0.00405465
0.00405465
0.00405463
0.00405461
0.0040546
0.00405461
0.0040546
0.00405458
0.00405456
0.00405455
0.00405455
0.00405455
0.00405455
0.00405455
0.00405455
0.00405454
0.00405454
0.00405459
0.00346412
0.00405816
0.00406559
0.00406371
0.00406208
0.00406061
0.00405931
0.00405817
0.00405718
0.00405638
0.00405573
0.00405522
0.00405485
0.00405457
0.00405438
0.00405424
0.00405416
0.00405412
0.00405412
0.00405418
0.00405425
0.0040543
0.00405433
0.00405436
0.0040544
0.00405443
0.00405443
0.00405441
0.00405442
0.00405448
0.00405456
0.0040546
0.00405454
0.00405449
0.00405453
0.00405463
0.00405468
0.00405463
0.00405455
0.00405453
0.0040546
0.00405468
0.00405468
0.00405466
0.00405464
0.00405463
0.00405462
0.00405461
0.0040546
0.00405458
0.00405456
0.00405456
0.00405456
0.00405456
0.00405456
0.00405456
0.00405455
0.00405455
0.00405455
0.00405461
0.00347189
0.00405733
0.00406478
0.00406323
0.00406184
0.00406052
0.00405931
0.00405821
0.00405728
0.00405653
0.00405594
0.00405548
0.00405513
0.00405487
0.00405466
0.00405448
0.00405433
0.00405422
0.00405414
0.00405413
0.00405418
0.00405425
0.00405429
0.00405434
0.00405438
0.00405441
0.00405445
0.0040545
0.00405455
0.00405456
0.00405453
0.00405451
0.00405451
0.00405453
0.00405458
0.00405464
0.00405466
0.00405461
0.00405455
0.00405454
0.00405461
0.00405469
0.00405469
0.00405465
0.00405465
0.00405466
0.00405464
0.00405461
0.00405459
0.00405458
0.00405458
0.00405458
0.00405458
0.00405457
0.00405457
0.00405456
0.00405456
0.00405456
0.00405457
0.00405462
0.00347981
0.00405655
0.00406412
0.00406286
0.0040617
0.00406056
0.00405948
0.0040585
0.00405764
0.00405693
0.00405634
0.00405585
0.00405544
0.00405511
0.00405484
0.00405461
0.00405444
0.00405431
0.00405422
0.00405417
0.00405417
0.0040542
0.00405424
0.0040543
0.00405436
0.00405442
0.00405449
0.00405456
0.00405459
0.00405457
0.00405451
0.00405449
0.00405454
0.00405461
0.00405463
0.00405461
0.00405457
0.00405458
0.0040546
0.00405462
0.00405463
0.00405466
0.00405467
0.00405466
0.00405467
0.00405468
0.00405465
0.0040546
0.00405458
0.00405459
0.0040546
0.0040546
0.00405459
0.00405458
0.00405457
0.00405457
0.00405457
0.00405457
0.00405458
0.00405463
0.00348752
0.00405573
0.00406356
0.00406264
0.00406172
0.00406078
0.00405983
0.00405891
0.00405809
0.00405733
0.00405667
0.0040561
0.00405561
0.00405521
0.00405489
0.00405466
0.00405451
0.00405443
0.00405438
0.00405434
0.00405431
0.00405428
0.00405426
0.00405428
0.00405435
0.00405444
0.00405452
0.00405455
0.00405453
0.00405452
0.00405455
0.00405458
0.00405462
0.00405464
0.00405461
0.00405455
0.00405454
0.00405459
0.00405466
0.00405469
0.00405464
0.00405462
0.00405465
0.00405468
0.00405469
0.00405468
0.00405465
0.0040546
0.00405459
0.0040546
0.00405462
0.00405461
0.0040546
0.00405458
0.00405458
0.00405458
0.00405458
0.00405458
0.00405458
0.00405464
0.0034947
0.00405516
0.00406347
0.00406298
0.00406222
0.0040613
0.00406026
0.00405922
0.00405826
0.00405741
0.0040567
0.00405614
0.00405571
0.0040554
0.00405517
0.00405501
0.00405489
0.00405481
0.00405472
0.00405462
0.00405451
0.0040544
0.00405433
0.00405433
0.00405437
0.00405442
0.00405447
0.00405449
0.0040545
0.00405454
0.00405462
0.00405469
0.00405467
0.00405461
0.00405455
0.00405454
0.00405459
0.00405464
0.00405468
0.0040547
0.00405465
0.00405463
0.00405465
0.00405469
0.00405468
0.00405466
0.00405464
0.00405462
0.00405461
0.00405461
0.00405462
0.00405462
0.00405461
0.00405459
0.00405459
0.00405459
0.00405458
0.00405458
0.00405459
0.00405465
0.00350145
0.00405582
0.00406499
0.00406483
0.004064
0.00406283
0.00406151
0.00406023
0.00405908
0.0040581
0.00405732
0.00405673
0.00405631
0.00405603
0.00405583
0.00405566
0.00405548
0.00405527
0.00405503
0.0040548
0.00405461
0.00405447
0.00405441
0.00405441
0.00405442
0.00405442
0.00405442
0.00405447
0.00405454
0.00405461
0.00405467
0.00405468
0.00405464
0.00405458
0.00405456
0.0040546
0.00405467
0.00405469
0.00405467
0.00405467
0.00405468
0.00405467
0.00405467
0.00405467
0.00405465
0.00405464
0.00405464
0.00405464
0.00405463
0.00405462
0.00405462
0.00405462
0.00405462
0.0040546
0.0040546
0.00405459
0.00405459
0.00405458
0.00405459
0.00405465
0.00350837
0.00405871
0.00406875
0.00406857
0.00406737
0.00406578
0.00406411
0.00406258
0.00406126
0.00406012
0.00405917
0.00405837
0.00405767
0.00405709
0.00405658
0.00405612
0.0040557
0.00405534
0.00405505
0.00405485
0.00405472
0.0040546
0.00405453
0.0040545
0.00405449
0.00405448
0.00405447
0.00405451
0.00405459
0.00405465
0.00405464
0.00405461
0.00405459
0.00405462
0.00405466
0.00405469
0.00405471
0.0040547
0.00405466
0.00405467
0.00405471
0.00405471
0.00405468
0.00405465
0.00405463
0.00405463
0.00405465
0.00405466
0.00405464
0.00405462
0.00405462
0.00405463
0.00405463
0.00405462
0.0040546
0.0040546
0.00405459
0.00405459
0.0040546
0.00405466
0.0035164
0.00406323
0.00407334
0.004073
0.00407144
0.00406951
0.00406749
0.00406558
0.00406384
0.00406229
0.00406093
0.00405976
0.00405869
0.00405776
0.00405691
0.00405622
0.00405567
0.00405528
0.00405505
0.00405495
0.00405491
0.00405484
0.00405475
0.00405464
0.00405458
0.00405456
0.00405458
0.0040546
0.00405461
0.0040546
0.00405458
0.00405458
0.00405461
0.00405469
0.00405477
0.00405475
0.00405471
0.00405469
0.00405469
0.00405472
0.00405474
0.00405472
0.00405466
0.00405463
0.00405463
0.00405464
0.00405466
0.00405466
0.00405464
0.00405462
0.00405462
0.00405463
0.00405463
0.00405462
0.00405461
0.0040546
0.00405459
0.00405459
0.0040546
0.00405466
0.00352588
0.00406635
0.00407581
0.0040754
0.00407392
0.00407199
0.00406978
0.00406749
0.00406524
0.00406314
0.00406129
0.00405977
0.00405855
0.0040576
0.00405687
0.00405632
0.00405591
0.00405559
0.00405538
0.00405521
0.0040551
0.004055
0.0040549
0.00405479
0.00405468
0.00405464
0.00405464
0.00405463
0.00405459
0.00405456
0.00405457
0.00405462
0.0040547
0.00405476
0.00405479
0.00405476
0.00405471
0.00405472
0.00405475
0.00405476
0.00405474
0.00405469
0.00405465
0.00405464
0.00405466
0.00405467
0.00405466
0.00405465
0.00405464
0.00405463
0.00405463
0.00405464
0.00405464
0.00405463
0.00405461
0.0040546
0.00405459
0.00405459
0.0040546
0.00405467
0.00353626
0.00406773
0.00407669
0.00407566
0.00407414
0.00407221
0.00406998
0.00406767
0.00406544
0.00406335
0.00406147
0.0040599
0.00405864
0.00405772
0.0040571
0.00405667
0.00405637
0.00405609
0.00405583
0.00405553
0.00405523
0.00405502
0.00405491
0.00405487
0.00405482
0.00405474
0.00405467
0.00405463
0.00405461
0.00405462
0.00405465
0.00405472
0.00405477
0.00405476
0.00405475
0.00405476
0.00405477
0.00405479
0.00405481
0.00405477
0.00405472
0.00405467
0.00405465
0.00405467
0.00405469
0.00405468
0.00405465
0.00405464
0.00405464
0.00405464
0.00405463
0.00405464
0.00405464
0.00405463
0.00405461
0.0040546
0.00405459
0.00405459
0.0040546
0.00405467
0.00354726
0.00407115
0.00407997
0.00407785
0.00407554
0.00407304
0.00407054
0.00406819
0.00406611
0.00406427
0.00406264
0.00406121
0.00405995
0.00405884
0.00405796
0.00405722
0.00405664
0.00405617
0.00405584
0.00405559
0.00405533
0.00405512
0.00405498
0.00405492
0.00405489
0.00405484
0.00405477
0.0040547
0.00405469
0.00405472
0.00405476
0.00405477
0.00405477
0.00405475
0.00405475
0.00405481
0.00405485
0.00405485
0.00405481
0.00405475
0.0040547
0.00405468
0.00405469
0.0040547
0.00405471
0.00405469
0.00405465
0.00405464
0.00405464
0.00405464
0.00405463
0.00405463
0.00405463
0.00405462
0.00405461
0.0040546
0.0040546
0.0040546
0.0040546
0.00405467
0.00355909
0.00407795
0.00408586
0.00408257
0.00407923
0.00407598
0.004073
0.00407031
0.00406798
0.00406591
0.00406411
0.00406253
0.00406115
0.00405987
0.00405875
0.00405771
0.00405684
0.00405617
0.00405574
0.00405555
0.00405544
0.00405536
0.00405522
0.00405508
0.00405497
0.00405492
0.00405489
0.00405484
0.00405482
0.00405481
0.00405481
0.00405479
0.00405477
0.00405478
0.00405482
0.00405488
0.0040549
0.00405485
0.00405479
0.00405474
0.00405471
0.00405473
0.00405473
0.00405472
0.0040547
0.00405468
0.00405466
0.00405465
0.00405465
0.00405465
0.00405463
0.00405462
0.00405462
0.00405462
0.00405461
0.0040546
0.0040546
0.0040546
0.0040546
0.00405467
0.0035721
0.00408445
0.00409016
0.00408578
0.00408171
0.00407804
0.00407474
0.00407174
0.0040691
0.00406669
0.00406457
0.00406268
0.00406108
0.00405976
0.00405874
0.00405792
0.00405721
0.00405663
0.00405615
0.00405585
0.00405567
0.00405561
0.00405551
0.00405534
0.00405515
0.00405501
0.00405499
0.004055
0.00405496
0.00405489
0.00405483
0.00405481
0.00405483
0.00405486
0.0040549
0.00405492
0.0040549
0.00405483
0.00405478
0.00405476
0.00405476
0.00405477
0.00405477
0.00405472
0.00405468
0.00405467
0.00405467
0.00405467
0.00405467
0.00405465
0.00405463
0.00405461
0.00405461
0.00405461
0.00405461
0.0040546
0.0040546
0.0040546
0.0040546
0.00405467
0.00358626
0.00408969
0.00409363
0.00408822
0.00408329
0.00407895
0.00407509
0.00407164
0.00406876
0.00406629
0.00406425
0.00406253
0.00406105
0.00405981
0.00405886
0.00405821
0.00405773
0.00405735
0.00405694
0.00405653
0.00405612
0.00405582
0.00405563
0.00405549
0.00405535
0.0040552
0.0040551
0.00405507
0.00405504
0.00405497
0.0040549
0.00405489
0.00405493
0.00405495
0.00405494
0.00405491
0.00405488
0.00405483
0.00405481
0.00405481
0.00405481
0.0040548
0.00405477
0.00405472
0.00405468
0.00405467
0.00405469
0.00405469
0.00405468
0.00405465
0.00405462
0.0040546
0.0040546
0.0040546
0.0040546
0.0040546
0.0040546
0.0040546
0.0040546
0.00405467
0.00360161
0.00409765
0.00410085
0.00409391
0.00408772
0.00408221
0.00407726
0.00407293
0.00406942
0.00406666
0.00406455
0.00406301
0.00406179
0.00406078
0.00405984
0.00405908
0.0040584
0.00405789
0.00405742
0.00405698
0.00405653
0.00405608
0.00405576
0.00405557
0.00405549
0.00405538
0.00405525
0.00405515
0.00405511
0.00405509
0.00405505
0.00405502
0.004055
0.00405498
0.00405494
0.00405489
0.00405489
0.00405489
0.00405488
0.00405486
0.00405483
0.0040548
0.00405477
0.00405473
0.00405469
0.00405469
0.0040547
0.0040547
0.00405468
0.00405465
0.00405462
0.00405459
0.00405459
0.00405459
0.0040546
0.0040546
0.0040546
0.00405459
0.0040546
0.00405466
0.00361856
0.00410816
0.00411065
0.00410186
0.00409441
0.00408793
0.00408214
0.00407704
0.00407277
0.00406934
0.0040666
0.00406456
0.00406298
0.00406181
0.00406081
0.00405995
0.00405908
0.00405826
0.00405758
0.00405709
0.00405676
0.00405643
0.0040561
0.0040558
0.00405562
0.00405552
0.00405542
0.00405531
0.00405524
0.00405523
0.00405519
0.00405511
0.00405504
0.00405499
0.00405495
0.00405493
0.00405495
0.00405497
0.00405495
0.00405489
0.00405483
0.00405479
0.00405477
0.00405475
0.00405472
0.00405471
0.0040547
0.00405469
0.00405467
0.00405465
0.00405462
0.0040546
0.00405458
0.00405458
0.00405459
0.0040546
0.00405459
0.00405459
0.00405459
0.00405466
0.00363706
0.0041189
0.00411956
0.00410867
0.00409987
0.00409266
0.00408645
0.00408107
0.00407642
0.00407261
0.00406933
0.0040667
0.00406446
0.00406266
0.00406126
0.00406026
0.00405946
0.00405869
0.004058
0.00405742
0.00405706
0.00405676
0.00405649
0.00405618
0.0040559
0.00405572
0.00405561
0.00405552
0.00405542
0.00405534
0.00405526
0.00405515
0.00405507
0.00405504
0.00405504
0.00405503
0.00405502
0.00405502
0.00405498
0.0040549
0.00405482
0.00405478
0.00405478
0.00405477
0.00405475
0.00405473
0.0040547
0.00405467
0.00405466
0.00405465
0.00405463
0.0040546
0.00405458
0.00405457
0.00405458
0.00405459
0.00405458
0.00405458
0.00405459
0.00405465
0.00365728
0.00413271
0.0041305
0.00411647
0.00410519
0.00409613
0.00408864
0.00408255
0.00407755
0.00407364
0.00407039
0.00406778
0.00406554
0.00406359
0.00406198
0.00406075
0.00405989
0.00405921
0.00405864
0.00405807
0.00405759
0.00405716
0.00405682
0.00405652
0.00405623
0.00405601
0.00405584
0.00405571
0.00405555
0.00405541
0.0040553
0.00405522
0.00405517
0.00405516
0.00405517
0.00405515
0.00405508
0.00405502
0.00405497
0.00405492
0.00405485
0.0040548
0.00405479
0.0040548
0.00405478
0.00405473
0.00405469
0.00405466
0.00405465
0.00405466
0.00405464
0.00405461
0.00405458
0.00405457
0.00405457
0.00405457
0.00405457
0.00405457
0.00405458
0.00405464
0.00367988
0.00415396
0.0041489
0.00413081
0.00411584
0.00410367
0.00409367
0.00408568
0.00407941
0.00407471
0.00407112
0.00406845
0.00406639
0.00406466
0.00406323
0.00406197
0.00406092
0.00405999
0.00405926
0.00405863
0.00405808
0.00405758
0.00405715
0.00405682
0.00405654
0.0040563
0.00405606
0.00405584
0.00405564
0.00405548
0.00405541
0.00405537
0.00405534
0.00405531
0.00405529
0.00405522
0.0040551
0.004055
0.00405496
0.00405495
0.00405491
0.00405484
0.0040548
0.0040548
0.00405478
0.00405474
0.00405468
0.00405465
0.00405464
0.00405465
0.00405465
0.00405462
0.00405458
0.00405456
0.00405456
0.00405456
0.00405456
0.00405456
0.00405456
0.00405462
0.00370571
0.00418308
0.00417361
0.00414986
0.00413048
0.00411506
0.00410269
0.00409298
0.00408541
0.00407951
0.00407488
0.00407132
0.00406864
0.00406645
0.00406477
0.00406337
0.00406217
0.00406099
0.00405996
0.00405914
0.00405851
0.00405801
0.00405756
0.00405719
0.00405683
0.00405652
0.00405623
0.00405599
0.00405579
0.00405564
0.00405559
0.00405559
0.00405555
0.00405545
0.00405534
0.00405524
0.00405512
0.00405502
0.00405498
0.00405499
0.00405497
0.00405489
0.00405481
0.00405479
0.00405478
0.00405474
0.00405469
0.00405465
0.00405464
0.00405465
0.00405465
0.00405462
0.00405459
0.00405456
0.00405454
0.00405454
0.00405455
0.00405455
0.00405455
0.00405461
0.00373565
0.00422102
0.00420358
0.00417109
0.00414552
0.00412599
0.00411127
0.0041003
0.00409224
0.00408593
0.00408066
0.00407612
0.00407239
0.00406918
0.00406665
0.0040647
0.00406321
0.0040619
0.00406077
0.00405984
0.0040591
0.00405853
0.00405802
0.0040576
0.00405719
0.0040568
0.00405645
0.00405621
0.00405606
0.00405591
0.00405582
0.00405579
0.00405572
0.00405554
0.00405536
0.00405524
0.00405516
0.00405508
0.00405503
0.00405502
0.00405501
0.00405493
0.00405482
0.00405477
0.00405476
0.00405473
0.0040547
0.00405467
0.00405465
0.00405464
0.00405464
0.00405463
0.00405459
0.00405456
0.00405453
0.00405453
0.00405453
0.00405453
0.00405453
0.00405459
0.003771
0.00427395
0.00424515
0.00419955
0.00416506
0.00413962
0.00412122
0.00410775
0.00409821
0.0040911
0.00408539
0.0040804
0.0040761
0.00407218
0.00406892
0.00406642
0.00406454
0.00406303
0.00406174
0.00406069
0.00405982
0.00405914
0.00405851
0.00405801
0.00405759
0.00405718
0.0040568
0.00405654
0.00405639
0.00405624
0.00405605
0.0040559
0.0040558
0.00405562
0.00405541
0.00405528
0.00405523
0.00405518
0.00405511
0.00405504
0.004055
0.00405495
0.00405485
0.00405477
0.00405475
0.00405473
0.00405471
0.00405469
0.00405466
0.00405463
0.00405463
0.00405462
0.00405459
0.00405455
0.00405452
0.00405451
0.00405451
0.00405451
0.00405451
0.00405457
0.00381391
0.00435414
0.00430654
0.00424047
0.00419333
0.00416041
0.00413741
0.00412028
0.00410765
0.00409814
0.00409072
0.00408469
0.00407984
0.00407556
0.00407184
0.00406884
0.00406655
0.00406472
0.00406312
0.00406174
0.00406059
0.00405972
0.00405901
0.00405844
0.00405802
0.00405765
0.00405727
0.00405691
0.00405669
0.0040565
0.00405623
0.00405598
0.00405584
0.00405571
0.00405553
0.00405537
0.00405531
0.00405526
0.00405517
0.00405506
0.00405498
0.00405494
0.00405488
0.00405479
0.00405474
0.00405473
0.00405472
0.0040547
0.00405467
0.00405463
0.00405461
0.00405461
0.00405459
0.00405455
0.00405452
0.0040545
0.00405449
0.00405449
0.00405449
0.00405455
0.00386881
0.00448914
0.0044046
0.00430313
0.00423646
0.00419323
0.00416392
0.0041417
0.00412435
0.00411081
0.00410012
0.00409164
0.0040852
0.00408007
0.0040758
0.0040722
0.00406921
0.00406681
0.0040648
0.00406307
0.00406158
0.00406043
0.00405957
0.00405897
0.00405852
0.00405815
0.00405774
0.00405727
0.0040569
0.00405666
0.00405641
0.00405612
0.00405592
0.00405583
0.00405569
0.0040555
0.00405537
0.0040553
0.0040552
0.00405507
0.00405497
0.00405494
0.00405491
0.00405483
0.00405475
0.00405473
0.00405473
0.00405472
0.00405468
0.00405462
0.00405459
0.00405459
0.00405457
0.00405454
0.00405451
0.00405448
0.00405447
0.00405446
0.00405447
0.00405453
0.00394896
0.00472953
0.00456683
0.00440496
0.00430737
0.00424689
0.00420566
0.00417428
0.00414951
0.00413012
0.0041147
0.00410225
0.00409264
0.00408539
0.00407997
0.0040758
0.00407227
0.00406915
0.00406652
0.00406448
0.00406281
0.00406141
0.00406034
0.00405958
0.00405904
0.00405859
0.00405813
0.0040576
0.00405712
0.00405682
0.00405662
0.00405636
0.00405608
0.00405594
0.00405583
0.00405563
0.00405543
0.00405531
0.00405521
0.00405509
0.00405498
0.00405494
0.00405494
0.00405488
0.00405478
0.00405474
0.00405473
0.00405472
0.00405468
0.00405462
0.00405458
0.00405456
0.00405455
0.00405453
0.0040545
0.00405447
0.00405445
0.00405444
0.00405445
0.0040545
0.00417783
0.0052549
0.00486123
0.00458776
0.00443552
0.00433878
0.00427006
0.0042188
0.00418048
0.00415255
0.00413174
0.00411526
0.00410202
0.00409165
0.0040839
0.00407868
0.00407494
0.00407167
0.00406859
0.00406609
0.00406416
0.00406256
0.00406125
0.00406028
0.00405956
0.00405898
0.00405848
0.00405795
0.00405743
0.00405707
0.00405687
0.00405664
0.0040563
0.00405603
0.00405589
0.00405571
0.00405548
0.00405531
0.00405521
0.00405512
0.00405502
0.00405497
0.00405496
0.00405492
0.00405482
0.00405475
0.00405473
0.00405471
0.00405467
0.00405462
0.00405457
0.00405454
0.00405453
0.00405451
0.00405448
0.00405445
0.00405443
0.00405442
0.00405442
0.00405448
0.00584043
0.00750167
0.00566769
0.00500033
0.00468616
0.00449665
0.0043704
0.00428247
0.00422046
0.00417777
0.00414871
0.004128
0.00411226
0.00409955
0.00408925
0.00408202
0.00407736
0.00407402
0.00407091
0.00406805
0.00406568
0.00406376
0.00406221
0.00406106
0.00406021
0.0040595
0.00405891
0.00405839
0.00405786
0.00405741
0.00405712
0.00405687
0.00405649
0.00405611
0.0040559
0.00405574
0.00405553
0.00405533
0.00405522
0.00405515
0.00405508
0.00405501
0.00405498
0.00405495
0.00405486
0.00405477
0.00405472
0.0040547
0.00405466
0.00405461
0.00405456
0.00405452
0.0040545
0.00405449
0.00405446
0.00405443
0.00405441
0.00405439
0.0040544
0.00405445
0.0130742
0.020496
0.00874359
0.00590294
0.00508769
0.00470711
0.00449192
0.00435836
0.00426973
0.00420971
0.0041692
0.00414153
0.00412224
0.00410742
0.00409557
0.00408676
0.00408065
0.00407634
0.00407293
0.00406998
0.00406731
0.00406502
0.00406323
0.00406198
0.0040611
0.00406028
0.00405951
0.00405888
0.00405831
0.00405776
0.00405732
0.00405699
0.00405661
0.0040562
0.00405592
0.00405577
0.00405559
0.00405539
0.00405526
0.0040552
0.00405515
0.00405507
0.004055
0.00405496
0.00405489
0.00405479
0.00405472
0.00405468
0.00405464
0.00405459
0.00405454
0.0040545
0.00405448
0.00405446
0.00405444
0.00405441
0.00405439
0.00405437
0.00405437
0.00405442
0.0156458
0.0499414
0.0199983
0.00718539
0.00507482
0.00461336
0.00443074
0.00432858
0.00426064
0.00421173
0.00417558
0.00414843
0.00412823
0.0041124
0.00409973
0.00409051
0.00408403
0.00407892
0.00407486
0.00407184
0.00406917
0.00406663
0.0040647
0.00406349
0.00406259
0.00406163
0.00406053
0.00405953
0.00405878
0.00405816
0.00405759
0.00405712
0.00405674
0.00405639
0.0040561
0.00405588
0.00405569
0.00405551