/*--------------------------------*- C++ -*----------------------------------*\
| =========                 |                                                 |
| \\      /  F ield         | OpenFOAM: The Open Source CFD Toolbox           |
|  \\    /   O peration     | Version:  v1912                                 |
|   \\  /    A nd           | Website:  www.openfoam.com                      |
|    \\/     M anipulation  |                                                 |
\*---------------------------------------------------------------------------*/
FoamFile
{
    version     2.0;
    format      ascii;
    class       volScalarField;
    location    "2";
    object      nut;
}
// * * * * * * * * * * * * * * * * * * * * * * * * * * * * * * * * * * * * * //

dimensions      [0 2 -1 0 0 0 0];


internalField   nonuniform List<scalar> 
20320
(
0.0348352
0.00765452
0.00776887
0.00796471
0.00873665
0.010708
0.0129503
0.0139565
0.0130788
0.0109117
0.00898047
0.00812225
0.00785419
0.00772318
0.00762285
0.00753845
0.0074655
0.00740107
0.00734324
0.00725444
0.0368852
0.0304312
0.196248
0.526556
0.872601
1.13125
1.27825
1.32301
1.27134
1.12182
0.876035
0.557818
0.250717
0.07634
0.0460528
0.0568967
0.0556349
0.0540245
0.0525517
0.034279
0.86161
1.17129
1.93216
2.55192
3.02655
3.36324
3.57207
3.66296
3.6427
3.51416
3.27758
2.93216
2.47753
1.91624
1.25145
0.509103
0.0752516
0.0534269
0.059592
0.0361374
2.11334
2.68396
3.64574
4.40162
4.98063
5.40268
5.68261
5.83169
5.85797
5.76659
5.56035
5.24045
4.80717
4.26041
3.60008
2.82696
1.94394
0.959666
0.117166
0.0322594
3.44657
4.15665
5.23768
6.09122
6.75381
7.24863
7.59197
7.79573
7.8686
7.81664
7.64382
7.35246
6.9437
6.41776
5.77421
5.01206
4.12961
3.12376
1.98705
0.665516
4.76674
5.56695
6.72113
7.6426
8.36803
8.92057
9.31635
9.56711
9.68148
9.6657
9.52396
9.25876
8.87099
8.35982
7.72212
6.9507
6.02938
4.91652
3.47606
1.19865
6.03751
6.90269
8.10226
9.07053
9.84196
10.4386
10.8757
11.1646
11.3133
11.3278
11.2116
10.9664
10.5912
10.0813
9.42599
8.60237
7.56113
6.19071
4.23747
1.34294
7.24686
8.16039
9.38795
10.388
11.1922
11.8211
12.2893
12.6072
12.7821
12.8192
12.721
12.487
12.1125
11.5865
10.8867
9.96998
8.75459
7.08856
4.72024
1.48297
8.39654
9.34489
10.5889
11.6093
12.4354
13.0863
13.5757
13.9132
14.1057
14.157
14.0679
13.8352
13.4494
12.8918
12.1282
11.0983
9.70058
7.7733
5.09967
1.61043
9.49759
10.4677
11.7196
12.7511
13.5891
14.252
14.7527
15.1004
15.3011
15.3575
15.2684
15.0274
14.6202
14.0207
13.1847
12.04
10.4757
8.3329
5.42461
1.72341
10.5674
11.5456
12.7983
13.8319
14.672
15.3363
15.8378
16.1853
16.3843
16.4363
16.3382
16.0805
15.6445
14.9977
14.0884
12.837
11.1284
8.8092
5.71115
1.8229
11.6288
12.5999
13.8459
14.8717
15.7025
16.3564
16.8468
17.1827
17.3693
17.4072
17.2914
17.0096
16.5393
15.8432
14.8639
13.5172
11.6861
9.22153
5.96514
1.91004
12.7106
13.6556
14.8857
15.8912
16.6986
17.3279
17.7936
18.1053
18.2681
18.2817
18.1395
17.827
17.3182
16.5723
15.5278
14.0973
12.1629
9.57783
6.188
1.98549
13.847
14.7422
15.9428
16.9105
17.6762
18.2633
18.6883
18.9619
19.0887
19.0678
18.8911
18.5417
17.991
17.195
16.0896
14.5854
12.5639
9.8793
6.37826
2.04921
15.0767
15.8914
17.0405
17.9452
18.6452
19.1689
19.5355
19.7561
19.835
19.77
19.5513
19.1595
18.5637
17.7174
16.5542
14.984
12.8884
10.1225
6.53198
2.10036
16.4533
17.1351
18.1951
19.0002
19.6044
20.0416
20.3318
20.4857
20.5061
20.3889
20.1221
19.6839
19.0406
18.1433
16.9241
15.2925
13.1322
10.3005
6.64282
2.13724
18.1377
18.5194
19.4121
20.0628
20.5372
20.8662
21.0655
21.1423
21.0968
20.9221
20.6035
20.1167
19.4249
18.4766
17.202
15.5108
13.2902
10.4036
6.70117
2.15709
20.6032
20.1138
20.6718
21.098
21.4121
21.6182
21.7187
21.7138
21.5994
21.3654
20.9944
20.4593
19.7207
18.7237
17.3956
15.6451
13.3627
10.4221
6.69126
2.15473
22.3296
21.7235
21.8578
22.0398
22.188
22.2702
22.2727
22.1877
22.006
21.7147
21.2937
20.7139
19.9335
18.8947
17.5213
15.7182
13.3731
10.3637
6.58884
2.1023
23.1297
22.7768
22.7872
22.8143
22.8268
22.7991
22.7128
22.5545
22.3113
21.9675
21.5017
20.8835
20.0704
19.0038
17.6066
15.7822
13.4102
10.3384
6.49536
2.00007
0.00291397
0.00159685
0.00159968
0.00160229
0.00160469
0.00160672
0.00160838
0.00160985
0.001611
0.0016119
0.00161256
0.00161299
0.00161323
0.00161327
0.00161313
0.001613
0.00161268
0.0016122
0.00161175
0.00161119
0.0016106
0.00160999
0.00160935
0.00160867
0.00160797
0.00160717
0.00160648
0.00160574
0.00160494
0.00160426
0.00160354
0.00160282
0.00160214
0.00160149
0.00160087
0.0016003
0.00159969
0.00159922
0.0015987
0.00159812
0.00159767
0.00159716
0.0015966
0.00159614
0.00159562
0.00159511
0.00159462
0.00159413
0.00159364
0.00159313
0.00159257
0.00159214
0.00159167
0.00159114
0.00159075
0.0015903
0.00158986
0.00158942
0.00158897
0.00158857
0.00293882
0.023928
0.0244726
0.0244301
0.0243935
0.0243613
0.0243326
0.0243079
0.024287
0.0242691
0.0242533
0.02424
0.0242283
0.0242181
0.0241995
0.024166
0.0241373
0.0241125
0.0240947
0.0240854
0.0240837
0.0240804
0.0240758
0.0240671
0.0240588
0.0240532
0.024053
0.0240617
0.0240656
0.0240695
0.0240733
0.0240756
0.0240852
0.0240956
0.024104
0.0241127
0.0241185
0.0241244
0.024129
0.0241292
0.0241301
0.0241351
0.0241374
0.0241355
0.0241358
0.0241413
0.0241467
0.0241482
0.0241474
0.0241474
0.0241499
0.0241545
0.0241588
0.0241625
0.024166
0.0241686
0.0241704
0.0241715
0.0241711
0.0241649
0.00295599
0.0314407
0.0345515
0.0345492
0.0345271
0.0345093
0.0344948
0.034483
0.0344737
0.0344664
0.0344607
0.0344566
0.0344538
0.0344521
0.0344503
0.0344449
0.0344393
0.0344343
0.0344306
0.0344288
0.0344288
0.0344288
0.0344283
0.0344266
0.0344242
0.0344222
0.0344215
0.034423
0.0344241
0.0344246
0.0344245
0.0344244
0.0344257
0.0344274
0.0344285
0.0344294
0.03443
0.0344307
0.0344315
0.0344314
0.0344311
0.0344316
0.034432
0.0344317
0.0344316
0.0344321
0.0344327
0.0344329
0.0344327
0.0344326
0.0344329
0.0344334
0.0344339
0.0344343
0.0344347
0.034435
0.0344351
0.0344352
0.034435
0.0344344
0.00297326
0.0317107
0.0351317
0.0351439
0.035125
0.0351099
0.0350979
0.0350883
0.0350808
0.0350751
0.035071
0.0350685
0.0350673
0.0350671
0.0350672
0.0350673
0.0350672
0.035067
0.035067
0.0350674
0.0350684
0.0350695
0.0350701
0.0350699
0.0350689
0.035068
0.0350677
0.0350683
0.0350688
0.0350687
0.0350683
0.0350679
0.0350682
0.0350686
0.0350688
0.0350686
0.0350684
0.0350685
0.0350686
0.0350684
0.0350682
0.0350681
0.0350682
0.0350682
0.0350681
0.0350681
0.0350681
0.0350681
0.035068
0.035068
0.035068
0.035068
0.035068
0.0350679
0.0350679
0.0350678
0.0350678
0.0350678
0.0350678
0.0350679
0.00298994
0.0317596
0.035132
0.0351467
0.03513
0.0351164
0.0351056
0.0350972
0.0350909
0.0350862
0.035083
0.0350811
0.0350802
0.0350799
0.0350799
0.0350799
0.03508
0.0350802
0.0350807
0.0350816
0.0350825
0.0350831
0.0350831
0.0350826
0.0350819
0.0350814
0.0350813
0.0350819
0.0350825
0.0350827
0.0350823
0.0350818
0.0350818
0.0350823
0.0350825
0.0350825
0.0350823
0.0350824
0.0350825
0.0350822
0.0350818
0.0350819
0.0350821
0.0350821
0.0350818
0.0350817
0.0350818
0.0350819
0.0350819
0.0350817
0.0350817
0.0350817
0.0350817
0.0350816
0.0350816
0.0350815
0.0350815
0.0350815
0.0350815
0.0350816
0.00300731
0.0318486
0.0351258
0.0351406
0.0351254
0.035113
0.0351034
0.035096
0.0350906
0.0350865
0.0350837
0.0350819
0.0350809
0.0350804
0.0350803
0.0350802
0.0350804
0.0350808
0.0350815
0.035082
0.0350821
0.0350818
0.0350814
0.0350813
0.0350815
0.0350817
0.0350818
0.0350818
0.0350819
0.0350822
0.0350824
0.0350823
0.0350821
0.035082
0.0350822
0.0350826
0.0350828
0.0350828
0.0350826
0.0350823
0.0350821
0.0350822
0.0350824
0.0350823
0.035082
0.0350819
0.035082
0.0350822
0.0350821
0.0350819
0.0350819
0.0350819
0.0350819
0.0350819
0.0350818
0.0350818
0.0350818
0.0350818
0.0350817
0.0350819
0.00302546
0.0319123
0.0351228
0.0351376
0.0351239
0.0351127
0.0351038
0.035097
0.0350917
0.0350876
0.0350846
0.0350824
0.035081
0.0350802
0.0350799
0.0350802
0.0350806
0.0350811
0.0350815
0.0350816
0.0350813
0.0350808
0.0350805
0.0350806
0.0350811
0.0350817
0.0350819
0.0350817
0.0350815
0.0350817
0.0350822
0.0350825
0.0350824
0.035082
0.035082
0.0350825
0.0350829
0.0350827
0.0350824
0.0350823
0.0350824
0.0350824
0.0350823
0.0350821
0.035082
0.035082
0.0350821
0.0350822
0.0350822
0.035082
0.035082
0.035082
0.035082
0.0350819
0.0350819
0.0350819
0.0350819
0.0350818
0.0350818
0.035082
0.00304373
0.0319514
0.0351165
0.0351325
0.0351208
0.0351109
0.0351028
0.0350963
0.0350911
0.0350869
0.0350839
0.0350818
0.0350805
0.0350798
0.0350797
0.03508
0.0350804
0.0350808
0.035081
0.0350811
0.0350811
0.035081
0.0350808
0.0350807
0.0350809
0.0350812
0.0350815
0.0350817
0.0350817
0.0350816
0.0350818
0.0350821
0.0350824
0.0350824
0.0350823
0.0350824
0.0350825
0.0350825
0.0350824
0.0350825
0.0350826
0.0350825
0.0350822
0.0350821
0.0350821
0.0350822
0.0350822
0.0350822
0.0350822
0.0350822
0.0350821
0.035082
0.035082
0.035082
0.035082
0.035082
0.035082
0.0350819
0.0350819
0.035082
0.00306146
0.0320118
0.0351097
0.0351264
0.0351162
0.0351074
0.0350998
0.0350938
0.035089
0.0350854
0.0350829
0.0350813
0.0350803
0.0350799
0.0350798
0.03508
0.0350803
0.0350806
0.0350807
0.0350808
0.035081
0.0350813
0.0350813
0.0350812
0.0350809
0.0350808
0.035081
0.0350815
0.0350819
0.0350818
0.0350816
0.0350817
0.0350823
0.0350827
0.0350827
0.0350822
0.035082
0.0350822
0.0350826
0.0350827
0.0350827
0.0350824
0.0350822
0.0350822
0.0350823
0.0350823
0.0350823
0.0350822
0.0350822
0.0350822
0.0350821
0.035082
0.035082
0.035082
0.0350821
0.0350821
0.035082
0.035082
0.035082
0.0350821
0.00307945
0.032103
0.0351088
0.0351247
0.0351152
0.0351068
0.0350996
0.0350939
0.0350893
0.0350859
0.0350836
0.035082
0.0350811
0.0350805
0.0350802
0.0350801
0.0350802
0.0350805
0.0350806
0.0350807
0.0350809
0.0350811
0.0350814
0.0350814
0.0350813
0.0350811
0.035081
0.0350812
0.0350816
0.0350817
0.0350817
0.0350819
0.0350822
0.0350826
0.0350827
0.0350822
0.0350819
0.0350822
0.0350826
0.0350827
0.0350825
0.0350824
0.0350823
0.0350824
0.0350824
0.0350823
0.0350823
0.0350823
0.0350823
0.0350823
0.0350822
0.0350821
0.035082
0.0350821
0.0350821
0.0350821
0.0350821
0.035082
0.035082
0.0350822
0.00309784
0.0321708
0.0351116
0.0351265
0.0351176
0.0351097
0.0351029
0.0350972
0.0350924
0.0350887
0.0350859
0.0350838
0.0350823
0.0350813
0.0350807
0.0350802
0.03508
0.0350801
0.0350804
0.0350806
0.0350809
0.035081
0.0350812
0.0350814
0.0350815
0.0350815
0.0350813
0.0350812
0.0350813
0.0350816
0.0350821
0.0350823
0.0350822
0.0350822
0.0350823
0.0350824
0.0350823
0.0350824
0.0350824
0.0350824
0.0350824
0.0350825
0.0350826
0.0350826
0.0350825
0.0350824
0.0350823
0.0350824
0.0350824
0.0350823
0.0350822
0.0350821
0.0350821
0.0350822
0.0350822
0.0350822
0.0350821
0.0350821
0.0350821
0.0350823
0.0031173
0.032191
0.0351113
0.0351266
0.0351187
0.0351116
0.0351052
0.0350997
0.0350949
0.035091
0.0350879
0.0350854
0.0350836
0.0350823
0.0350814
0.0350807
0.0350803
0.0350801
0.0350801
0.0350803
0.0350807
0.0350809
0.0350811
0.0350812
0.0350814
0.0350816
0.0350816
0.0350815
0.0350815
0.0350818
0.0350822
0.0350823
0.0350821
0.0350819
0.0350821
0.0350825
0.0350827
0.0350825
0.0350822
0.0350821
0.0350824
0.0350827
0.0350827
0.0350826
0.0350825
0.0350825
0.0350824
0.0350824
0.0350824
0.0350823
0.0350822
0.0350822
0.0350822
0.0350822
0.0350822
0.0350822
0.0350822
0.0350822
0.0350822
0.0350823
0.00313594
0.03221
0.035108
0.0351244
0.0351177
0.0351113
0.0351054
0.0351001
0.0350956
0.0350919
0.035089
0.0350867
0.035085
0.0350837
0.0350827
0.0350818
0.0350811
0.0350805
0.0350802
0.0350801
0.0350804
0.0350807
0.0350809
0.0350811
0.0350813
0.0350815
0.0350817
0.0350819
0.0350821
0.0350822
0.0350821
0.035082
0.035082
0.0350821
0.0350823
0.0350826
0.0350826
0.0350824
0.0350822
0.0350821
0.0350824
0.0350828
0.0350828
0.0350826
0.0350826
0.0350826
0.0350826
0.0350824
0.0350823
0.0350823
0.0350823
0.0350823
0.0350823
0.0350823
0.0350822
0.0350822
0.0350822
0.0350822
0.0350822
0.0350824
0.00315577
0.0322539
0.0351056
0.0351225
0.035117
0.0351115
0.0351062
0.0351014
0.0350972
0.0350937
0.0350908
0.0350884
0.0350865
0.0350848
0.0350835
0.0350824
0.0350816
0.035081
0.0350806
0.0350803
0.0350803
0.0350805
0.0350807
0.035081
0.0350813
0.0350815
0.0350819
0.0350822
0.0350823
0.0350822
0.035082
0.0350819
0.0350821
0.0350824
0.0350825
0.0350824
0.0350823
0.0350823
0.0350824
0.0350825
0.0350825
0.0350826
0.0350827
0.0350827
0.0350827
0.0350827
0.0350826
0.0350824
0.0350823
0.0350823
0.0350824
0.0350824
0.0350823
0.0350823
0.0350823
0.0350823
0.0350823
0.0350823
0.0350823
0.0350825
0.00317604
0.0323124
0.035104
0.0351216
0.0351172
0.0351125
0.0351078
0.0351033
0.0350993
0.0350956
0.0350924
0.0350896
0.0350873
0.0350854
0.0350839
0.0350828
0.0350821
0.0350817
0.0350814
0.0350812
0.035081
0.0350809
0.0350808
0.0350809
0.0350812
0.0350816
0.035082
0.0350822
0.0350821
0.0350821
0.0350822
0.0350823
0.0350825
0.0350826
0.0350824
0.0350822
0.0350821
0.0350823
0.0350827
0.0350828
0.0350826
0.0350825
0.0350826
0.0350827
0.0350828
0.0350827
0.0350826
0.0350824
0.0350823
0.0350824
0.0350825
0.0350824
0.0350824
0.0350823
0.0350823
0.0350823
0.0350823
0.0350823
0.0350823
0.0350825
0.00319589
0.0323988
0.0351052
0.0351235
0.0351198
0.0351152
0.0351101
0.0351051
0.0351004
0.0350962
0.0350928
0.0350901
0.0350879
0.0350864
0.0350853
0.0350845
0.0350839
0.0350834
0.035083
0.0350825
0.0350819
0.0350814
0.0350811
0.0350811
0.0350813
0.0350816
0.0350818
0.0350819
0.035082
0.0350821
0.0350825
0.0350828
0.0350827
0.0350824
0.0350822
0.0350822
0.0350824
0.0350826
0.0350828
0.0350828
0.0350827
0.0350825
0.0350827
0.0350828
0.0350828
0.0350827
0.0350826
0.0350825
0.0350824
0.0350824
0.0350825
0.0350825
0.0350824
0.0350824
0.0350823
0.0350823
0.0350823
0.0350823
0.0350823
0.0350825
0.00321575
0.0324977
0.0351142
0.0351324
0.0351284
0.0351227
0.0351163
0.0351102
0.0351046
0.0350998
0.035096
0.0350931
0.0350909
0.0350895
0.0350884
0.0350875
0.0350866
0.0350856
0.0350844
0.0350834
0.0350825
0.0350818
0.0350815
0.0350815
0.0350815
0.0350815
0.0350816
0.0350818
0.0350821
0.0350825
0.0350827
0.0350828
0.0350826
0.0350823
0.0350822
0.0350824
0.0350827
0.0350828
0.0350828
0.0350828
0.0350828
0.0350827
0.0350827
0.0350827
0.0350826
0.0350826
0.0350826
0.0350826
0.0350825
0.0350825
0.0350825
0.0350825
0.0350825
0.0350824
0.0350824
0.0350824
0.0350823
0.0350823
0.0350823
0.0350826
0.00323627
0.0325637
0.0351329
0.0351503
0.0351446
0.0351369
0.0351288
0.0351214
0.0351149
0.0351093
0.0351046
0.0351007
0.0350973
0.0350944
0.0350919
0.0350897
0.0350877
0.035086
0.0350846
0.0350837
0.035083
0.0350825
0.0350821
0.0350819
0.0350819
0.0350818
0.0350818
0.035082
0.0350824
0.0350826
0.0350826
0.0350825
0.0350824
0.0350825
0.0350827
0.0350828
0.0350829
0.0350829
0.0350827
0.0350828
0.035083
0.0350829
0.0350828
0.0350826
0.0350825
0.0350825
0.0350826
0.0350827
0.0350826
0.0350825
0.0350825
0.0350825
0.0350825
0.0350825
0.0350824
0.0350824
0.0350824
0.0350823
0.0350824
0.0350826
0.0032578
0.0325494
0.0351542
0.0351712
0.0351639
0.0351546
0.0351448
0.0351355
0.035127
0.0351195
0.0351129
0.0351072
0.0351021
0.0350976
0.0350936
0.0350903
0.0350877
0.0350858
0.0350847
0.0350842
0.0350839
0.0350836
0.0350831
0.0350826
0.0350823
0.0350822
0.0350823
0.0350824
0.0350824
0.0350824
0.0350823
0.0350823
0.0350825
0.0350829
0.0350832
0.0350831
0.0350829
0.0350829
0.0350829
0.035083
0.0350831
0.035083
0.0350827
0.0350826
0.0350826
0.0350826
0.0350827
0.0350827
0.0350826
0.0350825
0.0350825
0.0350825
0.0350825
0.0350825
0.0350824
0.0350824
0.0350824
0.0350824
0.0350824
0.0350826
0.0032803
0.0324699
0.035165
0.0351828
0.0351758
0.0351664
0.0351557
0.0351447
0.0351339
0.0351238
0.035115
0.0351077
0.0351018
0.0350972
0.0350936
0.0350909
0.0350889
0.0350873
0.0350862
0.0350854
0.0350848
0.0350843
0.0350838
0.0350833
0.0350828
0.0350826
0.0350826
0.0350825
0.0350824
0.0350823
0.0350823
0.0350826
0.0350829
0.0350832
0.0350833
0.0350832
0.035083
0.035083
0.0350832
0.0350832
0.0350831
0.0350829
0.0350826
0.0350826
0.0350827
0.0350827
0.0350827
0.0350827
0.0350826
0.0350825
0.0350825
0.0350826
0.0350826
0.0350825
0.0350825
0.0350824
0.0350824
0.0350824
0.0350824
0.0350826
0.0033032
0.0324266
0.0351687
0.035185
0.0351776
0.0351681
0.0351572
0.0351461
0.0351353
0.0351252
0.0351161
0.0351085
0.0351024
0.0350979
0.0350948
0.0350926
0.035091
0.0350896
0.0350883
0.0350869
0.0350855
0.0350845
0.0350839
0.0350837
0.0350835
0.0350831
0.0350828
0.0350826
0.0350825
0.0350825
0.0350827
0.035083
0.0350832
0.0350832
0.0350832
0.0350832
0.0350832
0.0350833
0.0350834
0.0350832
0.035083
0.0350828
0.0350827
0.0350827
0.0350829
0.0350828
0.0350827
0.0350826
0.0350826
0.0350826
0.0350825
0.0350826
0.0350826
0.0350825
0.0350825
0.0350824
0.0350824
0.0350824
0.0350824
0.0350826
0.00332775
0.0324494
0.0351842
0.0351957
0.0351846
0.0351725
0.0351603
0.0351489
0.0351387
0.0351296
0.0351216
0.0351146
0.0351084
0.035103
0.0350988
0.0350952
0.0350924
0.0350901
0.0350885
0.0350872
0.035086
0.035085
0.0350843
0.035084
0.0350838
0.0350836
0.0350832
0.0350829
0.0350829
0.035083
0.0350832
0.0350832
0.0350832
0.0350832
0.0350832
0.0350834
0.0350836
0.0350836
0.0350835
0.0350832
0.0350829
0.0350828
0.0350829
0.0350829
0.0350829
0.0350828
0.0350827
0.0350826
0.0350826
0.0350826
0.0350826
0.0350825
0.0350825
0.0350825
0.0350824
0.0350824
0.0350824
0.0350824
0.0350824
0.0350826
0.00335234
0.0324584
0.0352113
0.0352177
0.0352017
0.0351861
0.0351717
0.0351587
0.0351473
0.0351372
0.0351285
0.0351207
0.035114
0.0351078
0.0351025
0.0350975
0.0350934
0.0350902
0.0350881
0.0350871
0.0350866
0.0350861
0.0350855
0.0350848
0.0350842
0.035084
0.0350838
0.0350836
0.0350835
0.0350835
0.0350834
0.0350833
0.0350832
0.0350833
0.0350835
0.0350838
0.0350839
0.0350836
0.0350833
0.0350831
0.035083
0.035083
0.0350831
0.035083
0.0350829
0.0350828
0.0350827
0.0350827
0.0350827
0.0350827
0.0350826
0.0350825
0.0350825
0.0350825
0.0350824
0.0350824
0.0350824
0.0350824
0.0350824
0.0350826
0.00337755
0.0324239
0.0352312
0.0352335
0.0352139
0.035196
0.03518
0.0351654
0.0351526
0.035141
0.0351308
0.0351217
0.035114
0.0351076
0.0351026
0.0350986
0.0350952
0.0350924
0.0350901
0.0350886
0.0350877
0.0350873
0.0350868
0.035086
0.0350851
0.0350845
0.0350843
0.0350843
0.0350842
0.0350838
0.0350835
0.0350835
0.0350835
0.0350837
0.0350839
0.035084
0.0350839
0.0350835
0.0350833
0.0350832
0.0350832
0.0350833
0.0350832
0.035083
0.0350828
0.0350828
0.0350828
0.0350828
0.0350827
0.0350827
0.0350825
0.0350824
0.0350824
0.0350824
0.0350824
0.0350824
0.0350824
0.0350824
0.0350824
0.0350826
0.00340415
0.0323978
0.0352477
0.035246
0.0352222
0.0352011
0.0351823
0.0351655
0.0351514
0.0351394
0.0351295
0.0351212
0.035114
0.035108
0.0351034
0.0351001
0.0350977
0.0350958
0.0350938
0.0350918
0.0350898
0.0350884
0.0350874
0.0350867
0.0350861
0.0350853
0.0350849
0.0350847
0.0350846
0.0350842
0.0350839
0.0350839
0.035084
0.0350841
0.0350841
0.0350839
0.0350838
0.0350836
0.0350834
0.0350834
0.0350834
0.0350834
0.0350833
0.035083
0.0350828
0.0350828
0.0350828
0.0350829
0.0350828
0.0350827
0.0350825
0.0350824
0.0350824
0.0350824
0.0350824
0.0350824
0.0350824
0.0350824
0.0350824
0.0350826
0.00343183
0.0323949
0.0352813
0.0352734
0.0352436
0.0352169
0.0351929
0.035172
0.0351549
0.0351415
0.0351311
0.0351235
0.0351175
0.0351125
0.0351079
0.0351042
0.0351009
0.0350984
0.0350961
0.035094
0.0350918
0.0350897
0.0350881
0.0350872
0.0350867
0.0350862
0.0350856
0.0350851
0.0350849
0.0350848
0.0350846
0.0350845
0.0350844
0.0350843
0.0350841
0.0350839
0.0350838
0.0350839
0.0350838
0.0350837
0.0350836
0.0350834
0.0350832
0.035083
0.0350829
0.0350828
0.0350829
0.0350829
0.0350828
0.0350826
0.0350825
0.0350824
0.0350823
0.0350823
0.0350824
0.0350824
0.0350824
0.0350824
0.0350824
0.0350826
0.003461
0.0323667
0.0353261
0.0353113
0.0352754
0.0352441
0.0352161
0.0351915
0.0351708
0.0351542
0.0351409
0.0351309
0.0351232
0.0351174
0.0351125
0.0351083
0.0351041
0.0351002
0.035097
0.0350946
0.035093
0.0350913
0.0350897
0.0350883
0.0350874
0.0350869
0.0350864
0.0350859
0.0350856
0.0350855
0.0350853
0.0350849
0.0350846
0.0350843
0.0350842
0.0350841
0.0350841
0.0350842
0.0350841
0.0350838
0.0350835
0.0350833
0.0350832
0.0350831
0.035083
0.035083
0.0350829
0.0350829
0.0350828
0.0350827
0.0350825
0.0350824
0.0350823
0.0350823
0.0350824
0.0350824
0.0350823
0.0350823
0.0350823
0.0350826
0.00349052
0.0323279
0.0353672
0.0353446
0.035302
0.0352669
0.0352367
0.0352106
0.0351881
0.0351696
0.0351538
0.0351411
0.0351303
0.0351217
0.0351149
0.03511
0.0351061
0.0351024
0.035099
0.0350963
0.0350945
0.035093
0.0350917
0.0350901
0.0350888
0.0350879
0.0350873
0.0350869
0.0350864
0.035086
0.0350856
0.0350851
0.0350847
0.0350846
0.0350846
0.0350845
0.0350845
0.0350845
0.0350843
0.0350839
0.0350835
0.0350833
0.0350833
0.0350833
0.0350832
0.035083
0.0350829
0.0350828
0.0350827
0.0350827
0.0350826
0.0350824
0.0350823
0.0350823
0.0350823
0.0350823
0.0350823
0.0350823
0.0350823
0.0350825
0.00352204
0.0323194
0.0354187
0.0353832
0.0353286
0.0352846
0.0352482
0.0352184
0.0351941
0.035175
0.0351591
0.0351464
0.0351356
0.0351262
0.0351184
0.0351125
0.0351083
0.0351049
0.0351021
0.0350993
0.035097
0.0350949
0.0350933
0.0350918
0.0350904
0.0350893
0.0350885
0.0350878
0.0350871
0.0350864
0.0350858
0.0350854
0.0350852
0.0350851
0.0350852
0.0350851
0.0350848
0.0350845
0.0350842
0.035084
0.0350837
0.0350834
0.0350834
0.0350834
0.0350833
0.0350831
0.0350829
0.0350827
0.0350827
0.0350827
0.0350826
0.0350825
0.0350823
0.0350822
0.0350823
0.0350823
0.0350823
0.0350822
0.0350823
0.0350825
0.00355494
0.0323084
0.0355042
0.035452
0.0353799
0.035321
0.0352727
0.035234
0.0352037
0.0351808
0.0351633
0.0351501
0.03514
0.0351314
0.0351244
0.0351183
0.0351132
0.0351087
0.0351051
0.035102
0.0350994
0.035097
0.0350949
0.0350933
0.0350919
0.0350907
0.0350895
0.0350885
0.0350875
0.0350867
0.0350864
0.0350862
0.035086
0.0350859
0.0350858
0.0350854
0.0350849
0.0350844
0.0350842
0.0350841
0.0350839
0.0350836
0.0350834
0.0350834
0.0350833
0.0350831
0.0350829
0.0350827
0.0350826
0.0350827
0.0350827
0.0350825
0.0350823
0.0350822
0.0350822
0.0350822
0.0350822
0.0350822
0.0350822
0.0350824
0.00359001
0.0322696
0.0356178
0.0355433
0.03545
0.0353754
0.0353157
0.0352687
0.0352322
0.0352037
0.0351813
0.035164
0.0351508
0.0351401
0.0351319
0.0351251
0.0351192
0.0351135
0.0351085
0.0351045
0.0351015
0.035099
0.0350969
0.035095
0.0350933
0.0350918
0.0350904
0.0350892
0.0350882
0.0350875
0.0350872
0.0350872
0.035087
0.0350865
0.035086
0.0350855
0.035085
0.0350845
0.0350843
0.0350843
0.0350842
0.0350839
0.0350835
0.0350834
0.0350833
0.0350831
0.0350829
0.0350827
0.0350826
0.0350827
0.0350827
0.0350825
0.0350824
0.0350822
0.0350821
0.0350821
0.0350821
0.0350821
0.0350821
0.0350823
0.0036275
0.0322167
0.0357554
0.0356462
0.0355233
0.0354289
0.0353576
0.0353044
0.0352651
0.0352344
0.0352089
0.0351869
0.0351688
0.0351533
0.035141
0.0351316
0.0351243
0.035118
0.0351125
0.0351079
0.0351043
0.0351015
0.0350991
0.0350971
0.0350951
0.0350931
0.0350915
0.0350903
0.0350895
0.0350888
0.0350884
0.0350882
0.0350878
0.035087
0.0350861
0.0350856
0.0350852
0.0350848
0.0350845
0.0350845
0.0350844
0.035084
0.0350835
0.0350833
0.0350832
0.0350831
0.0350829
0.0350828
0.0350827
0.0350826
0.0350826
0.0350825
0.0350824
0.0350822
0.0350821
0.035082
0.0350821
0.035082
0.035082
0.0350823
0.00366872
0.0321684
0.0359449
0.0357832
0.0356179
0.0354953
0.0354063
0.0353411
0.0352946
0.0352599
0.035232
0.0352078
0.0351869
0.0351679
0.0351521
0.0351399
0.0351308
0.0351235
0.0351172
0.0351121
0.0351078
0.0351045
0.0351015
0.0350991
0.035097
0.035095
0.0350932
0.0350919
0.0350911
0.0350904
0.0350895
0.0350888
0.0350882
0.0350874
0.0350864
0.0350857
0.0350855
0.0350852
0.0350849
0.0350846
0.0350844
0.0350841
0.0350836
0.0350833
0.0350831
0.0350831
0.035083
0.0350829
0.0350827
0.0350826
0.0350825
0.0350825
0.0350824
0.0350822
0.035082
0.035082
0.035082
0.0350819
0.035082
0.0350822
0.00371365
0.0321502
0.0362233
0.0359797
0.0357544
0.035596
0.0354848
0.0354019
0.0353406
0.0352943
0.0352582
0.0352289
0.0352052
0.0351845
0.0351664
0.0351518
0.0351405
0.0351316
0.0351239
0.0351172
0.0351116
0.0351073
0.0351039
0.0351012
0.0350991
0.0350973
0.0350954
0.0350937
0.0350926
0.0350916
0.0350904
0.0350892
0.0350885
0.0350878
0.0350869
0.0350862
0.0350859
0.0350856
0.0350852
0.0350846
0.0350843
0.0350841
0.0350838
0.0350834
0.0350831
0.0350831
0.035083
0.0350829
0.0350828
0.0350826
0.0350825
0.0350824
0.0350823
0.0350822
0.035082
0.0350819
0.0350819
0.0350818
0.0350819
0.0350821
0.00376496
0.0322126
0.0366631
0.0362796
0.0359624
0.0357546
0.0356129
0.0355055
0.0354214
0.0353558
0.0353038
0.0352626
0.0352312
0.0352062
0.0351855
0.035168
0.0351535
0.0351418
0.035132
0.0351236
0.0351164
0.0351108
0.0351066
0.0351037
0.0351015
0.0350997
0.0350977
0.0350954
0.0350936
0.0350924
0.0350912
0.0350898
0.0350889
0.0350884
0.0350877
0.0350868
0.0350862
0.0350858
0.0350854
0.0350847
0.0350842
0.0350841
0.0350839
0.0350836
0.0350832
0.0350831
0.0350831
0.035083
0.0350828
0.0350826
0.0350824
0.0350824
0.0350823
0.0350821
0.035082
0.0350818
0.0350818
0.0350817
0.0350818
0.035082
0.0038297
0.0324074
0.0373737
0.0367631
0.0363023
0.0360123
0.0358132
0.0356617
0.0355422
0.0354485
0.035374
0.0353139
0.0352673
0.035232
0.0352056
0.0351854
0.0351682
0.0351532
0.0351404
0.0351305
0.0351224
0.0351156
0.0351103
0.0351067
0.035104
0.0351019
0.0350996
0.035097
0.0350947
0.0350932
0.0350922
0.035091
0.0350897
0.0350889
0.0350884
0.0350874
0.0350865
0.0350859
0.0350854
0.0350848
0.0350843
0.0350841
0.0350841
0.0350838
0.0350833
0.0350831
0.0350831
0.035083
0.0350828
0.0350825
0.0350823
0.0350822
0.0350822
0.0350821
0.0350819
0.0350818
0.0350817
0.0350816
0.0350816
0.0350819
0.00397109
0.0330715
0.0386032
0.0376188
0.0369088
0.0364494
0.0361213
0.0358756
0.0356913
0.0355566
0.0354561
0.0353765
0.0353127
0.0352625
0.035225
0.0351995
0.0351813
0.0351654
0.0351505
0.0351383
0.0351289
0.0351212
0.0351148
0.0351101
0.0351066
0.0351038
0.0351013
0.0350988
0.0350962
0.0350945
0.0350935
0.0350923
0.0350907
0.0350894
0.0350887
0.0350878
0.0350867
0.0350859
0.0350854
0.0350849
0.0350845
0.0350842
0.0350842
0.035084
0.0350835
0.0350832
0.0350831
0.035083
0.0350828
0.0350825
0.0350823
0.0350821
0.0350821
0.035082
0.0350818
0.0350817
0.0350816
0.0350815
0.0350815
0.0350817
0.0047584
0.033972
0.0410819
0.0394449
0.0380608
0.0371857
0.0365944
0.0361787
0.0358833
0.0356786
0.0355385
0.0354383
0.035362
0.0353006
0.0352509
0.0352159
0.0351932
0.0351768
0.0351617
0.0351478
0.0351363
0.035127
0.0351195
0.0351139
0.0351098
0.0351063
0.0351034
0.0351009
0.0350983
0.0350961
0.0350947
0.0350934
0.0350916
0.0350898
0.0350887
0.035088
0.035087
0.035086
0.0350855
0.0350851
0.0350848
0.0350844
0.0350843
0.0350841
0.0350837
0.0350833
0.035083
0.0350829
0.0350827
0.0350825
0.0350822
0.035082
0.0350819
0.0350819
0.0350817
0.0350816
0.0350815
0.0350814
0.0350814
0.0350816
0.00719341
0.0460861
0.0430718
0.0425917
0.0397876
0.0381266
0.0371502
0.0365314
0.0361151
0.0358304
0.0356368
0.035504
0.0354106
0.0353388
0.0352814
0.0352387
0.0352091
0.0351881
0.0351715
0.0351571
0.0351442
0.0351331
0.0351245
0.0351184
0.0351141
0.0351101
0.0351064
0.0351033
0.0351005
0.0350978
0.0350957
0.035094
0.0350922
0.0350902
0.0350889
0.0350881
0.0350873
0.0350863
0.0350857
0.0350854
0.0350851
0.0350847
0.0350844
0.0350842
0.0350838
0.0350834
0.035083
0.0350828
0.0350826
0.0350824
0.0350821
0.0350819
0.0350818
0.0350817
0.0350816
0.0350815
0.0350814
0.0350813
0.0350813
0.0350814
0.0078275
0.0727608
0.0503467
0.0408879
0.0395124
0.0377162
0.036864
0.0363826
0.0360628
0.0358328
0.0356627
0.0355345
0.0354387
0.035363
0.0353025
0.0352583
0.0352269
0.0352021
0.0351824
0.0351675
0.0351543
0.035142
0.0351326
0.0351265
0.035122
0.0351171
0.0351115
0.0351066
0.035103
0.0350999
0.0350971
0.0350948
0.0350929
0.0350912
0.0350898
0.0350887
0.0350878
0.0350869
0.0350862
0.0350858
0.0350854
0.035085
0.0350845
0.0350841
0.0350838
0.0350834
0.035083
0.0350827
0.0350824
0.0350822
0.035082
0.0350818
0.0350817
0.0350816
0.0350815
0.0350814
0.0350813
0.0350812
0.0350811
0.0350813
23.6586
23.4353
23.41
23.3651
23.2954
23.1879
23.0296
22.8091
22.5128
22.1239
21.6203
20.9716
20.1363
19.059
17.6679
15.8745
13.5725
10.6375
6.9646
2.7121
23.9762
23.8418
23.7919
23.7062
23.5861
23.4257
23.2168
22.9495
22.6113
22.1865
21.6538
20.9846
20.1408
19.0724
17.718
16.0061
13.8607
11.2139
8.05198
4.61015
24.1025
24.0444
23.9767
23.8664
23.7151
23.5204
23.2765
22.9755
22.6066
22.1555
21.6029
20.9232
20.0828
19.0393
17.7427
16.1393
14.1807
11.8419
9.16357
6.34718
24.0569
24.0646
23.9835
23.8584
23.689
23.4733
23.2069
22.8835
22.4938
22.0255
21.4617
20.7803
19.9529
18.9448
17.7168
16.2303
14.4566
12.3939
10.0989
7.73856
23.856
23.9212
23.8293
23.6951
23.5158
23.2882
23.0085
22.6712
22.2688
21.7908
21.2229
20.5467
19.739
18.7724
17.6173
16.247
14.6466
12.8273
10.8478
8.84246
23.5134
23.6299
23.5284
23.3883
23.2036
22.9699
22.6829
22.3378
21.9284
21.4461
20.8792
20.2128
19.4288
18.506
17.4231
16.1627
14.7192
13.1094
11.386
9.64925
23.0389
23.2025
23.0921
22.9475
22.76
22.5232
22.2325
21.8834
21.4706
20.9873
20.4244
19.77
19.0106
18.1306
17.1149
15.9532
14.645
13.2078
11.6839
10.1435
22.4398
22.6481
22.5292
22.3807
22.1911
21.9527
21.6601
21.3088
20.8944
20.4116
19.8534
19.2111
18.4747
17.633
16.6761
15.5979
14.4004
13.0987
11.724
10.3233
21.7215
21.9735
21.8464
21.694
21.5026
21.2629
20.9688
20.6158
20.2001
19.7176
19.1633
18.531
17.8136
17.0035
16.0943
15.0824
13.9704
12.7699
11.5025
10.1985
20.8884
21.1839
21.0491
20.8928
20.6993
20.4579
20.1619
19.8066
19.3888
18.9053
18.3527
17.7267
17.0229
16.2361
15.3621
14.399
13.349
12.22
11.0261
9.78605
19.9439
20.2834
20.1418
19.9815
19.7854
19.5418
19.2429
18.8842
18.4627
17.976
17.4219
16.798
16.1013
15.3287
14.4776
13.5468
12.5377
11.4552
10.3079
9.10666
18.8913
19.2753
19.1279
18.9639
18.7649
18.5182
18.2154
17.8518
17.4246
16.9321
16.3731
15.7463
15.0502
14.2829
13.443
12.5296
11.5434
10.487
9.36503
8.18313
17.7333
18.1627
18.0108
17.8435
17.6415
17.3909
17.0831
16.713
16.278
15.7769
15.2094
14.575
13.8732
13.1032
12.2642
11.3555
10.3772
9.33042