/*--------------------------------*- C++ -*----------------------------------*\
| =========                 |                                                 |
| \\      /  F ield         | OpenFOAM: The Open Source CFD Toolbox           |
|  \\    /   O peration     | Version:  v1912                                 |
|   \\  /    A nd           | Website:  www.openfoam.com                      |
|    \\/     M anipulation  |                                                 |
\*---------------------------------------------------------------------------*/
FoamFile
{
    version     2.0;
    format      ascii;
    class       volScalarField;
    location    "2";
    object      p;
}
// * * * * * * * * * * * * * * * * * * * * * * * * * * * * * * * * * * * * * //

dimensions      [1 -1 -2 0 0 0 0];


internalField   nonuniform List<scalar> 
20320
(
278138
288678
289037
289329
289729
290089
290569
290988
291369
291706
292011
292289
292536
292753
292940
293097
293226
293324
293394
293433
258214
268389
268755
269140
269558
270021
270548
271008
271377
271678
271941
272183
272391
272563
272736
272914
273063
273176
273255
273302
239061
248901
249285
249753
250281
250837
251386
251884
252306
252646
252910
253104
253241
253344
253454
253603
253698
253798
253902
253966
220659
230183
230583
231051
231565
232099
232624
233116
233556
233934
234251
234510
234719
234885
235017
235118
235204
235321
235426
235485
202775
212063
212457
212901
213381
213879
214373
214847
215287
215685
216040
216350
216622
216860
217072
217265
217446
217617
217784
217972
185308
194405
194797
195224
195678
196146
196615
197073
197511
197920
198300
198650
198973
199273
199555
199823
200084
200349
200674
201270
168232
177161
177561
177982
178422
178872
179326
179773
180208
180626
181025
181405
181767
182115
182453
182787
183133
183535
184132
185120
151540
160326
160739
161166
161604
162048
162493
162934
163368
163791
164205
164609
165005
165399
165797
166215
166690
167296
168187
169478
135237
143904
144336
144775
145219
145663
146105
146544
146977
147406
147831
148256
148684
149124
149591
150112
150740
151567
152734
154310
119329
127912
128362
128817
129268
129715
130157
130595
131030
131462
131896
132336
132791
133275
133812
134439
135225
136268
137703
139586
103837
112366
112833
113301
113757
114203
114644
115080
115514
115948
116387
116837
117312
117831
118426
119148
120077
121323
123026
125257
88798
97296.6
97766.3
98234.7
98682.9
99121.5
99557.2
99991.9
100427
100863
101303
101758
102241
102778
103409
104198
105239
106663
108630
111254
74276.7
82745.8
83178
83608.6
84024.5
84446.5
84880.4
85322.6
85768
86212.6
86656.7
87108.9
87585.6
88116.4
88750.1
89562.3
90667.5
92222.9
94432.2
97479.3
60457
68794.2
69070.4
69379.4
69726.7
70133.6
70588.2
71066.5
71546.4
72015.4
72469.6
72915.4
73370.8
73868.8
74464.1
75243.4
76341.7
77953.4
80343.5
83808.7
47934.1
55603.4
55376.1
55409.7
55670.3
56113.9
56659.5
57235.3
57793.6
58312.3
58786.1
59223.6
59646.5
60090.2
60609.3
61294.2
62296.1
63850.1
66300.5
70106.9
40614.4
43138
41653.3
41322
41648.1
42317.1
43106.6
43883.6
44579.5
45174.3
45676
46107.4
46499.4
46886.9
47314.8
47858.7
48665.7
50007.5
52318
56260.1
57910.9
28857.5
26318.7
26358.2
27438.5
28770.9
30055.9
31161.4
32043.5
32718.8
33238.5
33661.8
34038.1
34402.6
34781.2
35197.2
35746.6
36716.4
38629.7
42305.1
1075.64
-2162.19
5362.16
9966.39
13251.9
15768.3
17775.5
19291.7
20344.9
21032.9
21495.5
21878.8
22277.7
22745.8
23307.4
23819.7
24115.5
24512.1
25838.7
28661.8
-227.605
-475.028
-275.571
60.2965
1682.25
4128.9
6780.94
8621.03
9713.12
10265.9
10463.4
10610.3
10656.5
10448.8
10474.4
11095.4
12709
14134.6
15233.4
16994.4
-325.008
-321.623
-293.782
-282.806
-285.707
-266.489
30.1149
718.378
1069.36
814.213
395.249
97.672
-182.481
-238.726
-226.687
-207.623
-182.604
451.534
3879.53
8227.03
-5.16233
-2.61403
-2.61344
-2.61191
-2.60934
-2.60552
-2.60041
-2.59411
-2.58647
-2.57752
-2.56725
-2.55567
-2.54278
-2.52859
-2.51311
-2.49651
-2.47878
-2.46007
-2.44067
-2.42066
-2.40027
-2.3797
-2.35908
-2.33858
-2.31831
-2.29839
-2.27909
-2.26038
-2.24234
-2.22513
-2.2086
-2.19277
-2.17758
-2.16301
-2.14903
-2.13558
-2.12262
-2.11025
-2.09834
-2.08689
-2.07604
-2.06566
-2.05575
-2.04644
-2.03761
-2.02931
-2.02155
-2.01433
-2.00765
-2.00152
-1.9959
-1.9909
-1.9864
-1.98239
-1.97902
-1.97617
-1.97388
-1.97215
-1.971
-1.9704
-10.3263
-7.73343
-7.73348
-7.73248
-7.73035
-7.72697
-7.72218
-7.71623
-7.70898
-7.70037
-7.69036
-7.67916
-7.66663
-7.65263
-7.63745
-7.62101
-7.6033
-7.58459
-7.56501
-7.54478
-7.52406
-7.50319
-7.48219
-7.46121
-7.44036
-7.41983
-7.3998
-7.3805
-7.36192
-7.3442
-7.32744
-7.31132
-7.29596
-7.28124
-7.26717
-7.25357
-7.24052
-7.22812
-7.2161
-7.20458
-7.19367
-7.18327
-7.17328
-7.16389
-7.15511
-7.14678
-7.13892
-7.13173
-7.12509
-7.11887
-7.11332
-7.10832
-7.10377
-7.0998
-7.09638
-7.09356
-7.09118
-7.08949
-7.08832
-7.08774
-15.5832
-12.9446
-12.9456
-12.9452
-12.9435
-12.9405
-12.9362
-12.9305
-12.9236
-12.9153
-12.9057
-12.8948
-12.8825
-12.8688
-12.8539
-12.8375
-12.8199
-12.8011
-12.7814
-12.761
-12.74
-12.7186
-12.6972
-12.6757
-12.6542
-12.633
-12.6123
-12.5923
-12.5732
-12.5551
-12.5379
-12.5216
-12.5061
-12.4911
-12.4769
-12.4633
-12.4501
-12.4376
-12.4256
-12.414
-12.403
-12.3926
-12.3825
-12.3731
-12.3643
-12.3559
-12.3481
-12.3409
-12.3341
-12.328
-12.3224
-12.3173
-12.3128
-12.3089
-12.3054
-12.3025
-12.3003
-12.2985
-12.2973
-12.2968
-20.9352
-18.2498
-18.2514
-18.2516
-18.2504
-18.2478
-18.2439
-18.2386
-18.232
-18.224
-18.2147
-18.204
-18.192
-18.1786
-18.1638
-18.1476
-18.13
-18.1112
-18.0914
-18.0707
-18.0494
-18.0276
-18.0056
-17.9835
-17.9614
-17.9396
-17.9182
-17.8976
-17.878
-17.8594
-17.8418
-17.8252
-17.8094
-17.7943
-17.7799
-17.7662
-17.753
-17.7403
-17.7282
-17.7167
-17.7056
-17.6951
-17.6851
-17.6756
-17.6666
-17.6583
-17.6504
-17.6432
-17.6365
-17.6303
-17.6247
-17.6196
-17.6151
-17.6111
-17.6077
-17.6048
-17.6025
-17.6007
-17.5996
-17.5991
-26.3841
-23.6507
-23.6528
-23.6535
-23.6527
-23.6505
-23.6471
-23.6421
-23.6357
-23.628
-23.619
-23.6085
-23.5967
-23.5834
-23.5687
-23.5526
-23.5351
-23.5164
-23.4964
-23.4755
-23.4538
-23.4316
-23.4089
-23.3862
-23.3635
-23.3411
-23.3192
-23.298
-23.2778
-23.2587
-23.2407
-23.2237
-23.2076
-23.1924
-23.1778
-23.1639
-23.1506
-23.1379
-23.1257
-23.1141
-23.1031
-23.0924
-23.0824
-23.0729
-23.0639
-23.0555
-23.0477
-23.0404
-23.0336
-23.0275
-23.0218
-23.0167
-23.0122
-23.0082
-23.0048
-23.0019
-22.9996
-22.9979
-22.9967
-22.9961
-31.9315
-29.1492
-29.1517
-29.1528
-29.1524
-29.1506
-29.1473
-29.1427
-29.1366
-29.1292
-29.1203
-29.11
-29.0983
-29.085
-29.0705
-29.0545
-29.037
-29.0183
-28.9983
-28.9772
-28.9551
-28.9324
-28.9092
-28.8857
-28.8624
-28.8394
-28.817
-28.7953
-28.7746
-28.755
-28.7365
-28.7191
-28.7027
-28.6872
-28.6724
-28.6584
-28.645
-28.6322
-28.62
-28.6083
-28.5971
-28.5865
-28.5764
-28.5669
-28.5578
-28.5494
-28.5415
-28.5342
-28.5274
-28.5212
-28.5156
-28.5105
-28.506
-28.502
-28.4986
-28.4957
-28.4934
-28.4917
-28.4905
-28.4901
-37.5795
-34.747
-34.7498
-34.7512
-34.7511
-34.7496
-34.7466
-34.7422
-34.7363
-34.7291
-34.7204
-34.7101
-34.6985
-34.6854
-34.6707
-34.6548
-34.6373
-34.6185
-34.5984
-34.5771
-34.5547
-34.5316
-34.5079
-34.4838
-34.4599
-34.4364
-34.4135
-34.3914
-34.37
-34.3499
-34.3308
-34.313
-34.2963
-34.2804
-34.2655
-34.2512
-34.2377
-34.2248
-34.2125
-34.2008
-34.1895
-34.1789
-34.1687
-34.1592
-34.1502
-34.1417
-34.1337
-34.1264
-34.1196
-34.1134
-34.1077
-34.1027
-34.0981
-34.0941
-34.0907
-34.0878
-34.0855
-34.0838
-34.0827
-34.0821
-43.3298
-40.446
-40.4489
-40.4504
-40.4506
-40.4493
-40.4465
-40.4423
-40.4366
-40.4294
-40.4208
-40.4107
-40.3991
-40.3859
-40.3713
-40.3552
-40.3377
-40.3188
-40.2985
-40.277
-40.2544
-40.2308
-40.2067
-40.1822
-40.1578
-40.1338
-40.1103
-40.0877
-40.0659
-40.0451
-40.0256
-40.0072
-39.99
-39.9739
-39.9586
-39.9443
-39.9305
-39.9175
-39.9051
-39.8933
-39.882
-39.8713
-39.8611
-39.8515
-39.8425
-39.834
-39.826
-39.8186
-39.8118
-39.8056
-39.7999
-39.7948
-39.7902
-39.7862
-39.7828
-39.7799
-39.7776
-39.7759
-39.7749
-39.7744
-49.1841
-46.2479
-46.2508
-46.2524
-46.2527
-46.2516
-46.2489
-46.2449
-46.2393
-46.2323
-46.2237
-46.2135
-46.2019
-46.1887
-46.174
-46.1577
-46.14
-46.1209
-46.1005
-46.0787
-46.056
-46.0322
-46.0077
-45.9828
-45.958
-45.9335
-45.9095
-45.8863
-45.8641
-45.8427
-45.8226
-45.8037
-45.786
-45.7695
-45.754
-45.7392
-45.7254
-45.7122
-45.6997
-45.6877
-45.6764
-45.6657
-45.6554
-45.6458
-45.6368
-45.6282
-45.6203
-45.6129
-45.6061
-45.5998
-45.5941
-45.5889
-45.5844
-45.5804
-45.5769
-45.574
-45.5718
-45.5701
-45.569
-45.5685
-55.144
-52.1544
-52.1573
-52.159
-52.1593
-52.1583
-52.1558
-52.1517
-52.1463
-52.1393
-52.1306
-52.1204
-52.1086
-52.0953
-52.0804
-52.0638
-52.0459
-52.0266
-52.0059
-51.984
-51.961
-51.9371
-51.9124
-51.8873
-51.8621
-51.8371
-51.8126
-51.7889
-51.7661
-51.7443
-51.7236
-51.7041
-51.6859
-51.6689
-51.653
-51.6381
-51.6239
-51.6105
-51.5978
-51.5858
-51.5744
-51.5636
-51.5534
-51.5438
-51.5347
-51.5261
-51.5181
-51.5107
-51.5038
-51.4976
-51.4918
-51.4866
-51.4821
-51.4781
-51.4746
-51.4718
-51.4695
-51.4679
-51.4668
-51.4663
-61.2116
-58.1676
-58.1703
-58.1718
-58.1722
-58.1712
-58.1688
-58.1649
-58.1594
-58.1523
-58.1436
-58.1332
-58.1213
-58.1077
-58.0925
-58.0757
-58.0575
-58.0378
-58.0168
-57.9948
-57.9717
-57.9477
-57.9228
-57.8976
-57.872
-57.8466
-57.8217
-57.7974
-57.7741
-57.7517
-57.7305
-57.7104
-57.6916
-57.6741
-57.6578
-57.6425
-57.6281
-57.6145
-57.6017
-57.5895
-57.578
-57.5671
-57.5569
-57.5472
-57.538
-57.5296
-57.5215
-57.5141
-57.5072
-57.5009
-57.4952
-57.4899
-57.4854
-57.4814
-57.4779
-57.475
-57.4728
-57.4712
-57.4701
-57.4696
-67.3884
-64.2891
-64.2915
-64.293
-64.2934
-64.2925
-64.2901
-64.2862
-64.2807
-64.2735
-64.2646
-64.2541
-64.2418
-64.2279
-64.2124
-64.1952
-64.1767
-64.1566
-64.1354
-64.1131
-64.0898
-64.0657
-64.0408
-64.0155
-63.9897
-63.964
-63.9385
-63.9137
-63.8898
-63.8668
-63.8451
-63.8244
-63.8051
-63.787
-63.7702
-63.7546
-63.7398
-63.7261
-63.713
-63.7007
-63.6891
-63.6781
-63.6678
-63.658
-63.6489
-63.6403
-63.6324
-63.6249
-63.6181
-63.6117
-63.6059
-63.6007
-63.5961
-63.5921
-63.5887
-63.5858
-63.5836
-63.582
-63.581
-63.5805
-73.6764
-70.5209
-70.5231
-70.5245
-70.5249
-70.5239
-70.5215
-70.5177
-70.5121
-70.5048
-70.4956
-70.4848
-70.4722
-70.4578
-70.4418
-70.4243
-70.4054
-70.3851
-70.3636
-70.341
-70.3175
-70.2932
-70.2682
-70.2427
-70.2168
-70.1908
-70.165
-70.1397
-70.1152
-70.0917
-70.0694
-70.0481
-70.0282
-70.0095
-69.9922
-69.9762
-69.9612
-69.9471
-69.9338
-69.9213
-69.9095
-69.8985
-69.8881
-69.8783
-69.8691
-69.8606
-69.8526
-69.8451
-69.8382
-69.8319
-69.8261
-69.8209
-69.8162
-69.8123
-69.8088
-69.806
-69.8037
-69.8021
-69.8011
-69.8006
-80.0773
-76.8648
-76.8667
-76.8682
-76.8684
-76.8675
-76.8653
-76.8612
-76.8555
-76.8479
-76.8386
-76.8274
-76.8143
-76.7996
-76.7831
-76.7651
-76.7458
-76.7251
-76.7032
-76.6803
-76.6567
-76.6321
-76.607
-76.5814
-76.5553
-76.5291
-76.5029
-76.4771
-76.452
-76.4281
-76.4051
-76.3833
-76.3627
-76.3435
-76.3257
-76.3091
-76.2939
-76.2794
-76.266
-76.2533
-76.2413
-76.2301
-76.2197
-76.2099
-76.2006
-76.1921
-76.184
-76.1765
-76.1696
-76.1633
-76.1575
-76.1523
-76.1477
-76.1436
-76.1401
-76.1373
-76.1352
-76.1336
-76.1325
-76.1321
-86.5929
-83.3226
-83.3246
-83.326
-83.3264
-83.3255
-83.3231
-83.319
-83.3131
-83.3054
-83.2957
-83.2841
-83.2706
-83.2552
-83.2383
-83.2198
-83.1999
-83.1788
-83.1566
-83.1333
-83.1092
-83.0846
-83.0592
-83.0334
-83.0072
-82.9807
-82.9543
-82.9282
-82.9025
-82.8779
-82.8543
-82.832
-82.8108
-82.7911
-82.7727
-82.7556
-82.7399
-82.7252
-82.7115
-82.6987
-82.6866
-82.6752
-82.6646
-82.6547
-82.6454
-82.6369
-82.6288
-82.6213
-82.6144
-82.608
-82.6023
-82.5971
-82.5924
-82.5883
-82.5849
-82.5821
-82.5798
-82.5783
-82.5772
-82.5768
-93.2251
-89.8965
-89.8987
-89.9001
-89.9006
-89.8999
-89.8974
-89.8932
-89.8872
-89.8791
-89.869
-89.857
-89.8429
-89.8271
-89.8096
-89.7904
-89.7699
-89.7483
-89.7255
-89.7019
-89.6774
-89.6523
-89.6267
-89.6007
-89.5743
-89.5476
-89.521
-89.4944
-89.4684
-89.4432
-89.419
-89.3961
-89.3744
-89.3541
-89.3351
-89.3176
-89.3014
-89.2863
-89.2725
-89.2594
-89.2472
-89.2357
-89.2249
-89.2149
-89.2056
-89.1969
-89.1888
-89.1814
-89.1744
-89.168
-89.1624
-89.1571
-89.1524
-89.1484
-89.1449
-89.1421
-89.1399
-89.1383
-89.1373
-89.1369
-99.9765
-96.5885
-96.591
-96.5928
-96.5934
-96.5927
-96.5903
-96.586
-96.5798
-96.5714
-96.5609
-96.5483
-96.5337
-96.5172
-96.499
-96.4792
-96.458
-96.4356
-96.4123
-96.3881
-96.3633
-96.3377
-96.3117
-96.2854
-96.2588
-96.232
-96.205
-96.1783
-96.1518
-96.126
-96.1014
-96.0778
-96.0556
-96.0347
-96.0152
-95.9972
-95.9804
-95.9651
-95.9509
-95.9376
-95.9252
-95.9136
-95.9027
-95.8925
-95.8831
-95.8743
-95.8662
-95.8588
-95.8518
-95.8456
-95.8397
-95.8345
-95.8299
-95.8258
-95.8224
-95.8195
-95.8173
-95.8158
-95.8147
-95.8143
-106.848
-103.401
-103.404
-103.406
-103.407
-103.406
-103.404
-103.399
-103.393
-103.384
-103.373
-103.36
-103.345
-103.328
-103.309
-103.288
-103.266
-103.243
-103.219
-103.194
-103.169
-103.143
-103.116
-103.089
-103.063
-103.036
-103.008
-102.981
-102.955
-102.928
-102.903
-102.879
-102.856
-102.835
-102.815
-102.796
-102.779
-102.763
-102.749
-102.735
-102.723
-102.711
-102.7
-102.69
-102.68
-102.671
-102.663
-102.656
-102.649
-102.642
-102.637
-102.631
-102.627
-102.623
-102.619
-102.616
-102.614
-102.613
-102.612
-102.611
-113.845
-110.336
-110.34
-110.342
-110.343
-110.343
-110.34
-110.336
-110.329
-110.32
-110.309
-110.295
-110.279
-110.261
-110.241
-110.22
-110.197
-110.173
-110.148
-110.122
-110.096
-110.07
-110.043
-110.015
-109.988
-109.961
-109.934
-109.906
-109.879
-109.853
-109.827
-109.802
-109.779
-109.757
-109.736
-109.717
-109.7
-109.684
-109.669
-109.655
-109.642
-109.63
-109.619
-109.609
-109.599
-109.59
-109.582
-109.574
-109.567
-109.561
-109.555
-109.55
-109.545
-109.541
-109.538
-109.535
-109.533
-109.531
-109.53
-109.53
-120.967
-117.395
-117.4
-117.403
-117.404
-117.404
-117.402
-117.397
-117.39
-117.381
-117.369
-117.354
-117.338
-117.319
-117.298
-117.275
-117.252
-117.226
-117.201
-117.174
-117.147
-117.12
-117.092
-117.065
-117.037
-117.009
-116.982
-116.954
-116.927
-116.9
-116.874
-116.849
-116.825
-116.802
-116.781
-116.762
-116.744
-116.727
-116.712
-116.698
-116.685
-116.673
-116.662
-116.651
-116.641
-116.632
-116.624
-116.616
-116.609
-116.603
-116.597
-116.592
-116.587
-116.583
-116.58
-116.577
-116.575
-116.573
-116.572
-116.572
-128.219
-124.583
-124.588
-124.592
-124.594
-124.594
-124.591
-124.586
-124.579
-124.569
-124.557
-124.542
-124.524
-124.504
-124.482
-124.459
-124.434
-124.407
-124.38
-124.353
-124.325
-124.297
-124.269
-124.241
-124.212
-124.184
-124.156
-124.129
-124.101
-124.074
-124.047
-124.022
-123.997
-123.975
-123.953
-123.933
-123.915
-123.898
-123.882
-123.868
-123.855
-123.842
-123.831
-123.82
-123.81
-123.801
-123.793
-123.785
-123.778
-123.772
-123.766
-123.761
-123.756
-123.752
-123.749
-123.746
-123.744
-123.742
-123.741
-123.74
-135.601
-131.901
-131.907
-131.911
-131.913
-131.912
-131.91
-131.905
-131.897
-131.887
-131.873
-131.857
-131.839
-131.818
-131.795
-131.77
-131.744
-131.716
-131.688
-131.66
-131.631
-131.602
-131.573
-131.544
-131.515
-131.487
-131.458
-131.43
-131.403
-131.375
-131.348
-131.322
-131.298
-131.274
-131.252
-131.232
-131.213
-131.196
-131.18
-131.165
-131.152
-131.139
-131.128
-131.117
-131.107
-131.098
-131.089
-131.081
-131.074
-131.068
-131.062
-131.057
-131.052
-131.048
-131.045
-131.042
-131.04
-131.038
-131.037
-131.037
-143.119
-139.351
-139.358
-139.362
-139.364
-139.364
-139.361
-139.356
-139.347
-139.336
-139.322
-139.305
-139.286
-139.264
-139.24
-139.214
-139.186
-139.157
-139.128
-139.098
-139.068
-139.038
-139.008
-138.978
-138.949
-138.92
-138.891
-138.863
-138.835
-138.807
-138.78
-138.754
-138.729
-138.705
-138.683
-138.662
-138.643
-138.625
-138.609
-138.594
-138.58
-138.568
-138.556
-138.545
-138.535
-138.525
-138.517
-138.509
-138.502
-138.495
-138.489
-138.484
-138.48
-138.476
-138.472
-138.469
-138.467
-138.466
-138.464
-138.464
-150.773
-146.937
-146.944
-146.948
-146.951
-146.95
-146.947
-146.941
-146.932
-146.92
-146.905
-146.887
-146.866
-146.843
-146.817
-146.79
-146.761
-146.731
-146.7
-146.669
-146.637
-146.606
-146.575
-146.545
-146.515
-146.485
-146.456
-146.428
-146.399
-146.372
-146.344
-146.318
-146.292
-146.268
-146.246
-146.225
-146.205
-146.187
-146.17
-146.155
-146.141
-146.128
-146.116
-146.105
-146.095
-146.086
-146.077
-146.069
-146.062
-146.055
-146.049
-146.044
-146.039
-146.035
-146.032
-146.029
-146.027
-146.025
-146.024
-146.024
-158.567
-154.661
-154.668
-154.673
-154.675
-154.674
-154.67
-154.663
-154.653
-154.64
-154.624
-154.604
-154.582
-154.558
-154.531
-154.502
-154.472
-154.44
-154.408
-154.375
-154.342
-154.31
-154.278
-154.247
-154.216
-154.186
-154.156
-154.127
-154.099
-154.071
-154.044
-154.017
-153.991
-153.967
-153.944
-153.922
-153.902
-153.884
-153.867
-153.852
-153.837
-153.824
-153.812
-153.801
-153.791
-153.781
-153.772
-153.764
-153.757
-153.75
-153.744
-153.739
-153.734
-153.731
-153.727
-153.724
-153.722
-153.721
-153.72
-153.719
-166.502
-162.526
-162.533
-162.538
-162.54
-162.538
-162.533
-162.525
-162.513
-162.499
-162.481
-162.461
-162.437
-162.411
-162.382
-162.352
-162.32
-162.287
-162.253
-162.219
-162.185
-162.151
-162.118
-162.086
-162.054
-162.024
-161.994
-161.964
-161.936
-161.908
-161.88
-161.853
-161.827
-161.803
-161.779
-161.757
-161.737
-161.719
-161.701
-161.686
-161.671
-161.658
-161.646
-161.635
-161.624
-161.614
-161.605
-161.597
-161.59
-161.583
-161.577
-161.572
-161.567
-161.563
-161.56
-161.557
-161.555
-161.553
-161.552
-161.552
-174.583
-170.534
-170.542
-170.547
-170.547
-170.545
-170.538
-170.528
-170.515
-170.499
-170.48
-170.457
-170.432
-170.404
-170.374
-170.342
-170.308
-170.274
-170.238
-170.203
-170.167
-170.132
-170.098
-170.064
-170.032
-170.001
-169.97
-169.94
-169.912
-169.883
-169.856
-169.829
-169.803
-169.778
-169.754
-169.732
-169.712
-169.693
-169.675
-169.66
-169.645
-169.632
-169.619
-169.608
-169.597
-169.587
-169.578
-169.57
-169.562
-169.555
-169.549
-169.544
-169.539
-169.535
-169.532
-169.529
-169.527
-169.526
-169.525
-169.524
-182.813
-178.691
-178.699
-178.703
-178.702
-178.698
-178.69
-178.678
-178.662
-178.644
-178.622
-178.598
-178.571
-178.541
-178.509
-178.475
-178.44
-178.404
-178.367
-178.33
-178.293
-178.256
-178.22
-178.186
-178.153
-178.12
-178.09
-178.059
-178.03
-178.002
-177.974
-177.947
-177.921
-177.896
-177.872
-177.85
-177.829
-177.81
-177.793
-177.777
-177.762
-177.748
-177.736
-177.724
-177.713
-177.704
-177.694
-177.686
-177.678
-177.671
-177.665
-177.66
-177.655
-177.651
-177.648
-177.645
-177.643
-177.641
-177.64
-177.64
-191.196
-186.998
-187.007
-187.009
-187.007
-187
-186.988
-186.974
-186.955
-186.934
-186.91
-186.883
-186.854
-186.823
-186.789
-186.753
-186.716
-186.678
-186.64
-186.601
-186.563
-186.525
-186.488
-186.452
-186.418
-186.385
-186.354
-186.323
-186.294
-186.265
-186.238
-186.211
-186.184
-186.159
-186.135
-186.113
-186.092
-186.073
-186.055
-186.039
-186.024
-186.01
-185.997
-185.986
-185.975
-185.965
-185.956
-185.947
-185.939
-185.932
-185.926
-185.921
-185.916
-185.912
-185.908
-185.906
-185.904
-185.902
-185.901
-185.901
-199.738
-195.461
-195.469
-195.469
-195.463
-195.453
-195.438
-195.419
-195.397
-195.373
-195.346
-195.317
-195.285
-195.252
-195.216
-195.179
-195.14
-195.1
-195.06
-195.02
-194.98
-194.941
-194.903
-194.866
-194.831
-194.797
-194.765
-194.734
-194.704
-194.676
-194.648
-194.621
-194.595
-194.57
-194.546
-194.523
-194.503
-194.483
-194.465
-194.449
-194.434
-194.42
-194.407
-194.395
-194.384
-194.374
-194.364
-194.356
-194.348
-194.341
-194.335
-194.329
-194.324
-194.32
-194.317
-194.314
-194.312
-194.311
-194.31
-194.309
-208.446
-204.084
-204.089
-204.086
-204.075
-204.06
-204.039
-204.015
-203.989
-203.961
-203.931
-203.899
-203.865
-203.829
-203.792
-203.753
-203.713
-203.671
-203.629
-203.588
-203.547
-203.506
-203.467
-203.429
-203.393
-203.358
-203.326
-203.294
-203.264
-203.236
-203.208
-203.181
-203.155
-203.13
-203.106
-203.084
-203.063
-203.043
-203.025
-203.008
-202.993
-202.979
-202.966
-202.954
-202.943
-202.933
-202.923
-202.915
-202.907
-202.9
-202.893
-202.888
-202.883
-202.879
-202.875
-202.872
-202.87
-202.869
-202.868
-202.868
-217.325
-212.873
-212.873
-212.864
-212.847
-212.825
-212.798
-212.767
-212.735
-212.702
-212.668
-212.632
-212.596
-212.559
-212.52
-212.48
-212.438
-212.395
-212.352
-212.309
-212.266
-212.225
-212.184
-212.145
-212.108
-212.073
-212.04
-212.008
-211.978
-211.949
-211.921
-211.895
-211.869
-211.844
-211.82
-211.797
-211.776
-211.757
-211.739
-211.722
-211.707
-211.692
-211.679
-211.667
-211.656
-211.646
-211.636
-211.628
-211.62
-211.612
-211.606
-211.6
-211.595
-211.591
-211.588
-211.585
-211.583
-211.581
-211.58
-211.58
-226.379
-221.832
-221.825
-221.807
-221.781
-221.75
-221.714
-221.676
-221.637
-221.597
-221.558
-221.519
-221.48
-221.44
-221.399
-221.358
-221.315
-221.271
-221.227
-221.183
-221.14
-221.097
-221.055
-221.016
-220.978
-220.942
-220.908
-220.876
-220.846
-220.817
-220.789
-220.762
-220.737
-220.712
-220.688
-220.666
-220.645
-220.625
-220.607
-220.59
-220.575
-220.561
-220.548
-220.536
-220.524
-220.514
-220.504
-220.495
-220.487
-220.48
-220.473
-220.468
-220.463
-220.458
-220.455
-220.452
-220.45
-220.449
-220.448
-220.447
-235.618
-230.969
-230.95
-230.92
-230.883
-230.839
-230.793
-230.745
-230.697
-230.65
-230.605
-230.561
-230.519
-230.476
-230.434
-230.392
-230.348
-230.304
-230.259
-230.214
-230.17
-230.127
-230.084
-230.044
-230.005
-229.969
-229.934
-229.902
-229.872
-229.843
-229.815
-229.788
-229.763
-229.738
-229.715
-229.693
-229.672
-229.652
-229.634
-229.618
-229.602
-229.588
-229.574
-229.562
-229.551
-229.54
-229.531
-229.522
-229.513
-229.506
-229.5
-229.494
-229.489
-229.485
-229.481
-229.478
-229.476
-229.475
-229.474
-229.473
-245.051
-240.288
-240.253
-240.208
-240.155
-240.097
-240.037
-239.978
-239.92
-239.865
-239.813
-239.763
-239.716
-239.671
-239.627
-239.583
-239.539
-239.494
-239.449
-239.404
-239.36
-239.316
-239.273
-239.233
-239.193
-239.156
-239.122
-239.089
-239.059
-239.03
-239.002
-238.976
-238.951
-238.926
-238.903
-238.881
-238.86
-238.841
-238.823
-238.806
-238.791
-238.776
-238.763
-238.751
-238.739
-238.729
-238.719
-238.71
-238.702
-238.694
-238.688
-238.682
-238.677
-238.672
-238.669
-238.666
-238.664
-238.662
-238.662
-238.661
-254.686
-249.799
-249.742
-249.675
-249.602
-249.526
-249.451
-249.377
-249.308
-249.244
-249.184
-249.128
-249.076
-249.027
-248.98
-248.934
-248.889
-248.845
-248.8
-248.756
-248.711
-248.668
-248.625
-248.584
-248.545
-248.508
-248.473
-248.44
-248.409
-248.38
-248.353
-248.327
-248.302
-248.278
-248.255
-248.234
-248.213
-248.194
-248.176
-248.16
-248.144
-248.13
-248.116
-248.104
-248.092
-248.082
-248.072
-248.063
-248.054
-248.047
-248.04
-248.034
-248.029
-248.025
-248.021
-248.019
-248.016
-248.015
-248.014
-248.014
-264.535
-259.511
-259.42
-259.325
-259.227
-259.129
-259.035
-258.946
-258.863
-258.788
-258.719
-258.657
-258.6
-258.546
-258.496
-258.448
-258.401
-258.356
-258.312
-258.268
-258.225
-258.182
-258.141
-258.1
-258.061
-258.024
-257.989
-257.956
-257.926
-257.897
-257.87
-257.844
-257.82
-257.796
-257.774
-257.752
-257.732
-257.713
-257.695
-257.679
-257.663
-257.649
-257.635
-257.623
-257.611
-257.6
-257.591
-257.581
-257.573
-257.566
-257.559
-257.553
-257.548
-257.544
-257.54
-257.537
-257.535
-257.534
-257.533
-257.532
-274.637
-269.438
-269.298
-269.163
-269.034
-268.912
-268.796
-268.689
-268.591
-268.504
-268.425
-268.355
-268.292
-268.234
-268.18
-268.13
-268.081
-268.035
-267.991
-267.948
-267.906
-267.865
-267.824
-267.784
-267.746
-267.71
-267.675
-267.643
-267.612
-267.584
-267.557
-267.532
-267.508
-267.485
-267.463
-267.442
-267.422
-267.404
-267.386
-267.369
-267.354
-267.339
-267.326
-267.313
-267.302
-267.291
-267.281
-267.272
-267.263
-267.256
-267.249
-267.243
-267.238
-267.234
-267.23
-267.227
-267.225
-267.224
-267.223
-267.222
-285.148
-279.593
-279.379
-279.19
-279.023
-278.872
-278.734
-278.609
-278.496
-278.395
-278.305
-278.226
-278.155
-278.092
-278.034
-277.981
-277.93
-277.883
-277.838
-277.795
-277.755
-277.715
-277.677
-277.639
-277.602
-277.566
-277.533
-277.501
-277.471
-277.443
-277.417
-277.392
-277.368
-277.346
-277.325
-277.305
-277.285
-277.267
-277.249
-277.233
-277.217
-277.203
-277.189
-277.177
-277.165
-277.154
-277.144
-277.135
-277.126
-277.119
-277.112
-277.106
-277.101
-277.097
-277.093
-277.091
-277.088
-277.087
-277.086
-277.085
-295.961
-290.042
-289.661
-289.402
-289.191
-289.008
-288.847
-288.704
-288.577
-288.464
-288.363
-288.273
-288.194
-288.123
-288.06
-288.003
-287.951
-287.902
-287.857
-287.815
-287.775
-287.737
-287.701
-287.665
-287.63
-287.597
-287.564
-287.533
-287.504
-287.477
-287.451
-287.427
-287.404
-287.383
-287.362
-287.343
-287.324
-287.306
-287.289
-287.272
-287.257
-287.242
-287.228
-287.215
-287.203
-287.192
-287.182
-287.173
-287.165
-287.158
-287.151
-287.145
-287.14
-287.136
-287.132
-287.13
-287.127
-287.126
-287.124
-287.124
-321.072
-319.243
-307.233
-298.638
-293.058
-291.827
-287.513
-287.377
-288.44
-288.481
-287.997
-286.913
-283.812
-278.536
-275.214
-270.194
-264.049
-267.1
-276.928
-475.019
-321.834
-320.818
-315.2
-309.751
-305.522
-302.515
-300.073
-298.699
-298.013
-296.943
-295.448
-293.67
-291.555
-289.22
-286.875
-284.782
-284.646
-290.361
-298.499
-328.389
-325.359
-325.639
-322.418
-319.113
-316.092
-313.628
-311.663
-310.246
-309.162
-308.074
-306.902
-305.643
-304.359
-303.22
-302.57
-302.732
-304.708
-310.379
-320.758
-334.7
-331.145
-331.521
-329.594
-327.619
-325.625
-323.839
-322.31
-321.043
-319.977
-318.99
-318.041
-317.136
-316.356
-315.885
-316.027
-317.175
-319.72
-324.129
-330.502
-337.541
-338.41
-338.643
-337.365
-336.124
-334.795
-333.525
-332.372
-331.357
-330.463
-329.645
-328.896
-328.245
-327.794
-327.687
-328.143
-329.443
-331.843
-335.404
-339.854
-344.513
-346.588
-346.582
-345.711
-344.954
-344.082
-343.197
-342.361
-341.608
-340.926
-340.316
-339.801
-339.418
-339.247
-339.395
-340.008
-341.24
-343.202
-345.922
-349.207
-352.656
-355.427
-355.128
-354.505
-354.052
-353.504
-352.926
-352.352
-351.815
-351.332
-350.924
-350.609
-350.442
-350.489
-350.81
-351.489
-352.622
-354.249
-356.359
-358.828
-361.442
-364.726
-364.15
-363.677
-363.403
-363.047
-362.668
-362.291
-361.938
-361.636
-361.401
-361.256
-361.255
-361.43
-361.833
-362.527
-363.552
-364.924
-366.611
-368.524
-370.528
-374.293
-373.507
-373.118
-372.95
-372.724
-372.476
-372.237
-372.028
-371.869
-371.773
-371.764
-371.88
-372.137
-372.576
-373.246
-374.148
-375.296
-376.654
-378.147
-379.683
-384.031
-383.078
-382.756
-382.667
-382.536
-382.395
-382.263
-382.158
-382.091
-382.088
-382.173
-382.36
-382.665
-383.113
-383.721
-384.497
-385.448
-386.532
-387.687
-388.849
-393.892
-392.833
-392.555
-392.525
-392.46
-392.389
-392.329
-392.297
-392.295
-392.349
-392.481
-392.692
-393.006
-393.429
-393.963
-394.626
-395.397
-396.241
-397.123
-397.987
-403.782
-402.722
-402.462
-402.452
-402.421
-402.397
-402.382
-402.393
-402.443
-402.538
-402.694
-402.914
-403.207
-403.582
-404.039
-404.581
-405.184
-405.826
-406.481
-407.098
-413.64
-412.639
-412.403
-412.424
-412.418
-412.422
-412.44
-412.476
-412.552
-412.673
-412.84
-413.059
-413.325
-413.643
-414.019
-414.443
-414.899
-415.366
-415.819
-416.22
-423.527
-422.592
-422.377
-422.433
-422.465
-422.495
-422.534
-422.584
-422.656
-422.769
-422.921
-423.115
-423.348
-423.613
-423.911
-424.23
-424.558
-424.874
-425.156
-425.382
-433.423
-432.595
-432.402
-432.463
-432.507
-432.548
-432.593
-432.652
-432.726
-432.823
-432.949
-433.105
-433.291
-433.501
-433.724
-433.948
-434.162
-434.352
-434.501
-434.585
-443.298
-442.589
-442.436
-442.495
-442.529
-442.566
-442.609
-442.666
-442.741
-442.829
-442.93
-443.048
-443.184
-443.335
-443.489
-443.629
-443.745
-443.827
-443.86
-443.826
-453.17
-452.61
-452.46
-452.523
-452.557
-452.592
-452.63
-452.675
-452.732
-452.798
-452.873
-452.956
-453.047
-453.139
-453.225
-453.291
-453.324
-453.311
-453.251
-453.179
-463.076
-462.646
-462.495
-462.548
-462.578
-462.604
-462.632
-462.664
-462.699
-462.738
-462.785
-462.836
-462.883
-462.92
-462.94
-462.935
-462.895
-462.827
-462.779
-462.824
-473.042
-472.681
-472.526
-472.565
-472.582
-472.598
-472.614
-472.631
-472.647
-472.663
-472.679
-472.692
-472.697
-472.686
-472.648
-472.589
-472.53
-472.514
-472.576
-472.685
-483.131
-482.694
-482.539
-482.564
-482.571
-482.579
-482.584
-482.584
-482.579
-482.572
-482.559
-482.536
-482.499
-482.447
-482.39
-482.35
-482.359
-482.416
-482.494
-482.584
-493.453
-492.674
-492.533
-492.54
-492.536
-492.531
-492.521
-492.504
-492.483
-492.454
-492.416
-492.369
-492.32
-492.277
-492.262
-492.28
-492.318
-492.368
-492.428
-492.493
-504.154
-502.588
-502.492
-502.488
-502.476
-502.46
-502.437
-502.407
-502.372
-502.332
-502.292
-502.256
-502.234
-502.232
-502.244
-502.264
-502.293
-502.327
-502.367
-502.412
-515.3
-512.464
-512.419
-512.418
-512.406
-512.38
-512.346
-512.314
-512.283
-512.258
-512.24
-512.232
-512.229
-512.232
-512.241
-512.254
-512.27
-512.29
-512.313
-512.34
-526.852
-522.383
-522.343
-522.334
-522.322
-522.297
-522.274
-522.259
-522.249
-522.242
-522.237
-522.235
-522.234
-522.236
-522.239
-522.244
-522.25
-522.258
-522.267
-522.278
-458.352
-327.242
-325.375
-321.077
-316.515
-312.958
-310.583
-308.869
-307.408
-306.16
-305.081
-304.136
-303.297
-302.534
-301.849
-333.43
-334.451
-334.878
-331.964
-327.811
-323.599
-320.54
-318.634
-317.125
-315.874
-314.805
-313.875
-313.053
-312.316
-311.648
-339.231
-340.269
-341.803
-340.752
-337.858
-334.014
-330.472
-328.228
-326.677
-325.441
-324.404
-323.51
-322.724
-322.024
-321.394
-342.189
-345.553
-347.829
-348.04
-346.32
-343.308
-339.97
-337.53
-336.017
-334.848
-333.877
-333.043
-332.312
-331.662
-331.08
-348.481
-351.789
-354.065