/*--------------------------------*- C++ -*----------------------------------*\
| =========                 |                                                 |
| \\      /  F ield         | OpenFOAM: The Open Source CFD Toolbox           |
|  \\    /   O peration     | Version:  v1912                                 |
|   \\  /    A nd           | Website:  www.openfoam.com                      |
|    \\/     M anipulation  |                                                 |
\*---------------------------------------------------------------------------*/
FoamFile
{
    version     2.0;
    format      ascii;
    class       volScalarField;
    location    "2";
    object      p_rgh;
}
// * * * * * * * * * * * * * * * * * * * * * * * * * * * * * * * * * * * * * //

dimensions      [1 -1 -2 0 0 0 0];


internalField   nonuniform List<scalar> 
20320
(
293405
293767
294126
294418
294818
295178
295658
296077
296459
296795
297101
297378
297625
297843
298029
298187
298315
298414
298483
298523
293292
293652
294019
294404
294821
295285
295811
296272
296640
296942
297205
297446
297655
297826
298000
298177
298327
298440
298519
298566
293239
293616
294000
294468
294996
295553
296101
296599
297021
297362
297625
297819
297956
298059
298169
298318
298413
298513
298617
298681
293252
293653
294053
294521
295035
295569
296095
296586
297026
297404
297721
297980
298189
298355
298487
298588
298674
298792
298896
298955
293125
293616
294010
294454
294935
295432
295926
296400
296840
297239
297593
297904
298175
298414
298626
298818
298999
299170
299337
299525
292778
293393
293786
294212
294666
295134
295603
296061
296499
296908
297288
297638
297962
298261
298543
298811
299072
299337
299662
300258
292208
292960
293360
293781
294221
294672
295125
295573
296007
296425
296824
297204
297567
297914
298252
298586
298932
299335
299932
300919
291432
292333
292746
293173
293612
294056
294501
294942
295375
295799
296212
296616
297013
297406
297804
298222
298697
299303
300195
301485
290474
291539
291971
292410
292854
293298
293740
294179
294612
295041
295466
295891
296319
296759
297226
297747
298375
299202
300369
301945
289362
290615
291065
291520
291971
292417
292860
293298
293733
294165
294598
295038
295494
295978
296514
297142
297928
298970
300405
302289
288136
289598
290064
290533
290989
291435
291875
292312
292746
293180
293618
294068
294543
295062
295657
296379
297308
298554
300257
302489
286850
288535
289005
289473
289922
290360
290796
291230
291665
292101
292542
292996
293480
294016
294648
295437
296478
297901
299869
302493
285591
287490
287922
288353
288769
289191
289624
290067
290512
290957
291401
291853
292330
292860
293494
294306
295412
296967
299176
302223
284558
286561
286837
287146
287493
287900
288355
288833
289313
289782
290236
290682
291138
291636
292231
293010
294108
295720
298110
301575
284364
285925
285698
285732
285992
286436
286982
287557
288116
288634
289108
289546
289969
290412
290931
291616
292618
294172
296623
300429
288931
285566
284081
283750
284076
284745
285534
286311
287007
287602
288104
288535
288927
289315
289742
290286
291093
292435
294746
298688
317689
282957
280418
280458
281538
282871
284156
285261
286143
286818
287338
287761
288138
288502
288881
289297
289846
290816
292729
296405
20961.1
228746
270716
275320
278605
281122
283129
284645
285699
286387
286849
287232
287631
288099
288661
289173
289469
289866
291192
294015
53.8772
-198.824
362.337
55566.1
202792
279154
282985
284825
285917
286470
286667
286814
286861
284311
268485
262550
281037
290339
291437
293198
-33.2525
-34.9568
-7.11646
3.8601
0.958455
20.1764
33604.4
106036
131680
88505.9
41109.1
16832.4
1857.25
47.9398
59.9789
79.0427
104.062
21002.6
267262
294893
-1.34085
-1.3399
-1.33931
-1.33782
-1.33521
-1.33139
-1.32633
-1.31999
-1.31235
-1.30339
-1.29312
-1.28154
-1.26865
-1.25446
-1.23902
-1.22238
-1.20465
-1.18598
-1.16654
-1.14653
-1.12614
-1.10557
-1.08496
-1.06445
-1.04418
-1.02431
-1.00496
-0.986251
-0.968252
-0.950997
-0.934471
-0.918637
-0.903454
-0.888886
-0.874899
-0.861456
-0.848534
-0.836119
-0.824211
-0.812807
-0.80191
-0.79153
-0.781668
-0.772316
-0.763482
-0.755181
-0.747421
-0.7402
-0.733522
-0.727393
-0.721812
-0.716771
-0.712269
-0.708308
-0.704895
-0.702042
-0.699752
-0.698022
-0.696869
-0.696268
-1.34162
-1.34177
-1.34187
-1.34091
-1.33875
-1.33532
-1.33062
-1.32462
-1.31733
-1.30872
-1.2988
-1.28755
-1.27498
-1.26107
-1.24584
-1.22936
-1.21169
-1.19298
-1.1734
-1.15317
-1.13249
-1.11158
-1.09058
-1.0696
-1.04876
-1.02822
-1.00819
-0.988849
-0.970313
-0.952634
-0.935787
-0.919714
-0.904348
-0.889629
-0.875514
-0.861964
-0.848952
-0.836463
-0.824488
-0.813018
-0.802058
-0.791621
-0.78171
-0.772319
-0.763453
-0.755131
-0.747356
-0.740123
-0.733437
-0.727299
-0.721711
-0.716664
-0.712156
-0.708189
-0.704772
-0.701912
-0.699613
-0.69788
-0.696707
-0.696132
-1.34284
-1.34378
-1.34465
-1.34427
-1.34258
-1.33958
-1.33525
-1.32962
-1.32267
-1.3144
-1.30481
-1.29388
-1.2816
-1.26796
-1.25295
-1.23661
-1.219
-1.20025
-1.18053
-1.16005
-1.13905
-1.11774
-1.09628
-1.07476
-1.05331
-1.03211
-1.0114
-0.991414
-0.972329
-0.954203
-0.937015
-0.920683
-0.905118
-0.890238
-0.875989
-0.862331
-0.849234
-0.836678
-0.82464
-0.813113
-0.802099
-0.791606
-0.781643
-0.77221
-0.763312
-0.754962
-0.747164
-0.739916
-0.733218
-0.72707
-0.721471
-0.716416
-0.7119
-0.707929
-0.704509
-0.701644
-0.699337
-0.697596
-0.696436
-0.695835
-1.34484
-1.34622
-1.34779
-1.34799
-1.34678
-1.3442
-1.34026
-1.33498
-1.32836
-1.3204
-1.3111
-1.30045
-1.28842
-1.275
-1.26018
-1.24397
-1.22643
-1.20766
-1.18782
-1.16712
-1.14578
-1.12401
-1.10199
-1.07987
-1.05779
-1.03596
-1.01461
-0.994017
-0.974377
-0.955777
-0.938204
-0.921571
-0.905774
-0.890715
-0.876322
-0.862552
-0.84937
-0.836745
-0.824649
-0.81307
-0.802009
-0.791466
-0.78145
-0.771974
-0.763044
-0.754663
-0.746835
-0.739566
-0.732854
-0.726692
-0.721079
-0.716013
-0.71149
-0.707517
-0.704095
-0.701225
-0.698913
-0.697175
-0.696028
-0.695504
-1.34774
-1.34939
-1.35152
-1.35221
-1.35145
-1.34926
-1.34569
-1.34074
-1.33441
-1.32672
-1.31766
-1.30721
-1.29536
-1.2821
-1.26742
-1.25132
-1.23385
-1.21509
-1.19517
-1.17427
-1.15258
-1.1303
-1.10767
-1.0849
-1.0622
-1.03977
-1.01785
-0.996692
-0.976502
-0.957398
-0.939388
-0.922401
-0.906327
-0.891057
-0.876504
-0.862612
-0.849335
-0.836633
-0.824477
-0.812849
-0.801743
-0.791155
-0.781093
-0.771576
-0.762612
-0.754199
-0.746341
-0.739047
-0.732315
-0.726136
-0.720507
-0.715428
-0.7109
-0.706924
-0.7035
-0.700626
-0.698313
-0.69658
-0.695441
-0.694853
-1.35165
-1.35334
-1.35588
-1.35697
-1.35658
-1.35475
-1.3515
-1.34684
-1.34078
-1.33332
-1.32444
-1.31414
-1.30241
-1.28924
-1.27463
-1.25861
-1.24119
-1.22244
-1.20244
-1.18134
-1.1593
-1.13654
-1.11331
-1.08989
-1.06658
-1.04359
-1.02115
-0.999472
-0.978742
-0.959106
-0.940612
-0.923216
-0.906816
-0.891297
-0.876557
-0.86252
-0.849129
-0.836337
-0.824113
-0.812432
-0.801281
-0.790652
-0.780553
-0.770999
-0.762002
-0.753558
-0.745671
-0.738349
-0.731591
-0.725392
-0.719746
-0.714654
-0.710119
-0.70614
-0.702713
-0.699838
-0.697528
-0.695805
-0.694692
-0.694216
-1.35665
-1.35808
-1.3609
-1.36227
-1.36218
-1.36064
-1.35766
-1.35325
-1.34741
-1.34013
-1.33141
-1.32122
-1.30955
-1.29642
-1.28183
-1.26581
-1.24839
-1.22961
-1.20951
-1.1882
-1.16584
-1.14264
-1.11889
-1.0949
-1.071
-1.04749
-1.02455
-1.00237
-0.98111
-0.960927
-0.941909
-0.924054
-0.90728
-0.891467
-0.876503
-0.862291
-0.848758
-0.835856
-0.82355
-0.811808
-0.800607
-0.78994
-0.779811
-0.770228
-0.7612
-0.752727
-0.744812
-0.737462
-0.730676
-0.724453
-0.718788
-0.713682
-0.70914
-0.705156
-0.701725
-0.698851
-0.696549
-0.694839
-0.693734
-0.693178
-1.36274
-1.36363
-1.36659
-1.36816
-1.36828
-1.36697
-1.3642
-1.35998
-1.35431
-1.34717
-1.33855
-1.32842
-1.31678
-1.30363
-1.289
-1.27291
-1.2554
-1.23651
-1.21627
-1.19476
-1.17212
-1.14858
-1.1244
-1.09994
-1.07553
-1.0515
-1.02807
-1.00539
-0.983611
-0.962873
-0.943302
-0.924943
-0.907746
-0.891594
-0.876362
-0.861935
-0.84823
-0.835193
-0.822786
-0.810968
-0.799711
-0.789005
-0.77885
-0.769244
-0.760188
-0.75169
-0.743752
-0.736374
-0.729558
-0.723309
-0.717624
-0.712505
-0.707953
-0.703962
-0.700527
-0.697657
-0.695366
-0.693673
-0.692593
-0.692145
-1.36982
-1.37005
-1.37299
-1.37465
-1.37492
-1.37377
-1.37117
-1.36709
-1.36153
-1.35446
-1.34588
-1.33575
-1.32408
-1.31087
-1.29612
-1.27988
-1.26219
-1.2431
-1.22267
-1.20097
-1.17813
-1.15434
-1.12986
-1.10502
-1.08017
-1.05565
-1.03171
-1.00853
-0.986233
-0.964947
-0.944807
-0.925901
-0.908228
-0.891688
-0.876143
-0.861465
-0.847556
-0.834357
-0.821822
-0.80991
-0.798587
-0.787837
-0.777655
-0.768029
-0.758952
-0.750434
-0.742476
-0.735072
-0.728228
-0.721952
-0.716247
-0.711114
-0.70655
-0.702549
-0.699111
-0.696246
-0.69397
-0.692294
-0.691223
-0.690696
-1.37775
-1.37729
-1.38011
-1.38177
-1.38212
-1.38108
-1.37859
-1.37461
-1.36911
-1.36207
-1.35345
-1.34325
-1.33147
-1.31811
-1.30317
-1.28671
-1.26875
-1.24939
-1.22873
-1.20685
-1.18386
-1.15992
-1.13525
-1.11014
-1.08491
-1.05992
-1.03546
-1.01176
-0.988956
-0.967134
-0.946423
-0.926941
-0.908737
-0.891751
-0.875848
-0.860884
-0.846745
-0.833356
-0.820665
-0.808635
-0.797233
-0.786432
-0.776216
-0.766567
-0.757474
-0.748942
-0.740967
-0.733542
-0.726674
-0.720373
-0.714647
-0.709498
-0.704919
-0.700907
-0.697467
-0.69461
-0.692349
-0.690692
-0.689639
-0.6892
-1.38645
-1.38528
-1.38791
-1.38951
-1.38987
-1.3889
-1.38649
-1.38257
-1.3771
-1.37002
-1.3613
-1.35095
-1.33896
-1.32535
-1.31016
-1.2934
-1.27515
-1.25548
-1.23454
-1.21245
-1.18933
-1.1653
-1.14052
-1.11523
-1.08971
-1.06429
-1.03932
-1.01508
-0.991749
-0.969399
-0.94813
-0.928059
-0.90928
-0.891788
-0.875473
-0.860189
-0.845796
-0.832195
-0.819324
-0.807154
-0.795653
-0.784786
-0.774525
-0.764849
-0.755741
-0.747197
-0.739208
-0.731768
-0.724882
-0.71856
-0.712813
-0.707646
-0.703051
-0.699027
-0.695585
-0.692739
-0.690494
-0.688852
-0.687807
-0.687305
-1.39585
-1.39393
-1.39635
-1.39785
-1.3982
-1.39726
-1.39489
-1.391
-1.3855
-1.37833
-1.36946
-1.35887
-1.34659
-1.33265
-1.31711
-1.30001
-1.28143
-1.26146
-1.24023
-1.2179
-1.19461
-1.17048
-1.14563
-1.12022
-1.09448
-1.06872
-1.04327
-1.01848
-0.994585
-0.971697
-0.949883
-0.929232
-0.909855
-0.891803
-0.875021
-0.859375
-0.844703
-0.830872
-0.817806
-0.805475
-0.793853
-0.782899
-0.772578
-0.762865
-0.753739
-0.745183
-0.737183
-0.729734
-0.722836
-0.716499
-0.710734
-0.705548
-0.700935
-0.6969
-0.693458
-0.690621
-0.688391
-0.686763
-0.685729
-0.685288
-1.40583
-1.40319
-1.4054
-1.4068
-1.40714
-1.40621
-1.40385
-1.39993
-1.39435
-1.38704
-1.37795
-1.36707
-1.35444
-1.3401
-1.32413
-1.30662
-1.28768
-1.26739
-1.24587
-1.22328
-1.19977
-1.17548
-1.15053
-1.12502
-1.09913
-1.07311
-1.04726
-1.02193
-0.997448
-0.973988
-0.951624
-0.930411
-0.91044
-0.8918
-0.8745
-0.858439
-0.843452
-0.829377
-0.816109
-0.803605
-0.791838
-0.780776
-0.770377
-0.760614
-0.75146
-0.742888
-0.734878
-0.727424
-0.720522
-0.714175
-0.708396
-0.70319
-0.69856
-0.694515
-0.691074
-0.688246
-0.686028
-0.68441
-0.683381
-0.682899
-1.41612
-1.41299
-1.41503
-1.41639
-1.41673
-1.41581
-1.41344
-1.40945
-1.40374
-1.39622
-1.38686
-1.37564
-1.3626
-1.3478
-1.33135
-1.31337
-1.29399
-1.27334
-1.25151
-1.22863
-1.20486
-1.18036
-1.15524
-1.12961
-1.10357
-1.07734
-1.05117
-1.02538
-1.00031
-0.976249
-0.95331
-0.931537
-0.910992
-0.891766
-0.873914
-0.857386
-0.842038
-0.827697
-0.814224
-0.80154
-0.789614
-0.77842
-0.767925
-0.758094
-0.748897
-0.740301
-0.732279
-0.724821
-0.717921
-0.711572
-0.705782
-0.700558
-0.695913
-0.691863
-0.688423
-0.685602
-0.683392
-0.681782
-0.680759
-0.680313
-1.4265
-1.42321
-1.42523
-1.42662
-1.427
-1.42611
-1.42372
-1.41965
-1.41377
-1.406
-1.3963
-1.38468
-1.37118
-1.35589
-1.33891
-1.32039
-1.30049
-1.27937
-1.25715
-1.23395
-1.20988
-1.1851
-1.15976
-1.13395
-1.10776
-1.08133
-1.05489
-1.02871
-1.00312
-0.978453
-0.954909
-0.932564
-0.91146
-0.891666
-0.873254
-0.856219
-0.840463
-0.825824
-0.812132
-0.799268
-0.787176
-0.775836
-0.765225
-0.755307
-0.746049
-0.737415
-0.729375
-0.721914
-0.715017
-0.708671
-0.702875
-0.69764
-0.692984
-0.688931
-0.685493
-0.682675
-0.68047
-0.678864
-0.677844
-0.677374
-1.43692
-1.43383
-1.436
-1.43752
-1.438
-1.43716
-1.43477
-1.4306
-1.42453
-1.41647
-1.40639
-1.39431
-1.3803
-1.36445
-1.34689
-1.32777
-1.30727
-1.28557
-1.26285
-1.23923
-1.2148
-1.1897
-1.16406
-1.13803
-1.11165
-1.08502
-1.05833
-1.03181
-1.00577
-0.98054
-0.956391
-0.933461
-0.911799
-0.891453
-0.872488
-0.854933
-0.838733
-0.823755
-0.809819
-0.796768
-0.784512
-0.773021
-0.762279
-0.752254
-0.742915
-0.734228
-0.726161
-0.718691
-0.711796
-0.705454
-0.699658
-0.694418
-0.689759
-0.685705
-0.682269
-0.679453
-0.677248
-0.675643
-0.674625
-0.674178
-1.44748
-1.44485
-1.44738
-1.44915
-1.4498
-1.44905
-1.44665
-1.4424
-1.43614
-1.42776
-1.41726
-1.40466
-1.39005
-1.37357
-1.35535
-1.33556
-1.31438
-1.29202
-1.26867
-1.24449
-1.21961
-1.19411
-1.16812
-1.14179
-1.11519
-1.08836
-1.06143
-1.03461
-1.00817
-0.982427
-0.957704
-0.934194
-0.911973
-0.891083
-0.871577
-0.853504
-0.836843
-0.821491
-0.807276
-0.794022
-0.781604
-0.769964
-0.759083
-0.748936
-0.739498
-0.73074
-0.722631
-0.715142
-0.708242
-0.701904
-0.696113
-0.690877
-0.686221
-0.682171
-0.678738
-0.67592
-0.673713
-0.672105
-0.671088
-0.670629
-1.45838
-1.45635
-1.45943
-1.46157
-1.46245
-1.46182
-1.45944
-1.45509
-1.44863
-1.43994
-1.42898
-1.41582
-1.40055
-1.38332
-1.36433
-1.34377
-1.32182
-1.2987
-1.27461
-1.24976
-1.2243
-1.19832
-1.17191
-1.1452
-1.11831
-1.09127
-1.06413
-1.03703
-1.01023
-0.984031
-0.958775
-0.934709
-0.911943
-0.890516
-0.870482
-0.8519
-0.834776
-0.819026
-0.8045
-0.791019
-0.77843
-0.766645
-0.755625
-0.745349
-0.735797
-0.726951
-0.718785
-0.711261
-0.704345
-0.698005
-0.692223
-0.687
-0.682355
-0.678312
-0.674882
-0.672063
-0.66985
-0.668237
-0.66722
-0.666774
-1.46994
-1.46852
-1.47229
-1.47489
-1.47605
-1.47556
-1.47319
-1.46873
-1.46203
-1.45301
-1.4416
-1.42783
-1.41184
-1.39378
-1.3739
-1.35242
-1.32958
-1.3056
-1.28067
-1.25503
-1.22888
-1.20231
-1.1754
-1.14824
-1.12098
-1.09368
-1.06633
-1.03901
-1.0119
-0.98529
-0.959535
-0.934936
-0.911647
-0.889712
-0.869169
-0.850088
-0.832499
-0.816342
-0.801483
-0.78775
-0.774976
-0.763042
-0.751886
-0.74148
-0.731809
-0.722862
-0.71462
-0.707044
-0.700096
-0.693746
-0.687973
-0.682768
-0.678141
-0.674111
-0.670685
-0.667864
-0.665644
-0.664026
-0.663007
-0.662555
-1.48257
-1.48156
-1.48611
-1.48921
-1.49068
-1.49033
-1.48794
-1.48335
-1.47638
-1.46694
-1.45503
-1.44065
-1.42389
-1.40495
-1.38407
-1.36155
-1.33768
-1.31269
-1.28681
-1.26028
-1.2333
-1.20604
-1.17856
-1.15091
-1.1232
-1.09554
-1.06795
-1.04044
-1.01309
-0.986144
-0.959933
-0.934816
-0.911021
-0.888609
-0.867597
-0.848037
-0.829984
-0.813412
-0.79821
-0.784207
-0.771229
-0.759137
-0.747846
-0.737314
-0.727525
-0.718469
-0.710134
-0.702486
-0.69549
-0.68912
-0.68335
-0.678165
-0.673561
-0.669548
-0.666129
-0.663307
-0.661081
-0.659457
-0.658435
-0.657989
-1.49668
-1.49585
-1.50112
-1.50471
-1.50647
-1.50624
-1.50381
-1.49899
-1.49169
-1.48177
-1.46924
-1.45416
-1.43661
-1.41674
-1.39482
-1.37115
-1.3461
-1.31997
-1.29302
-1.26548
-1.23757
-1.20949
-1.18134
-1.15314
-1.12494
-1.09687
-1.06897
-1.04124
-1.01371
-0.986506
-0.959911
-0.934307
-0.91001
-0.887144
-0.865706
-0.845706
-0.8272
-0.81021
-0.794657
-0.780375
-0.767179
-0.754914
-0.743482
-0.732829
-0.722926
-0.71376
-0.70532
-0.697583
-0.690524
-0.684118
-0.678343
-0.673174
-0.668595
-0.664602
-0.661195
-0.658373
-0.656144
-0.654514
-0.65349
-0.653039
-1.51266
-1.51167
-1.51754
-1.52155
-1.52355
-1.52336
-1.52083
-1.51576
-1.50799
-1.4975
-1.48424
-1.46831
-1.44986
-1.42903
-1.40602
-1.38116
-1.35484
-1.32743
-1.29927
-1.2706
-1.24165
-1.21263
-1.18369
-1.15487
-1.12616
-1.09763
-1.06937
-1.04137
-1.01365
-0.986261
-0.959388
-0.933369
-0.908586
-0.885265
-0.863426
-0.843032
-0.824113
-0.806713
-0.7908
-0.77623
-0.762807
-0.750362
-0.738782
-0.728006
-0.717993
-0.708717
-0.700167
-0.692331
-0.685194
-0.678738
-0.672944
-0.667783
-0.663226
-0.659255
-0.655862
-0.653046
-0.650816
-0.649184
-0.648156
-0.647705
-1.53083
-1.52928
-1.53562
-1.53997
-1.5421
-1.54187
-1.53908
-1.53364
-1.52535
-1.51412
-1.50003
-1.48312
-1.46359
-1.44166
-1.41753
-1.39146
-1.36382
-1.33504
-1.30553
-1.27561
-1.24551
-1.21545
-1.1856
-1.15605
-1.12678
-1.09778
-1.06912
-1.04082
-1.01288
-0.985317
-0.95825
-0.931925
-0.906717
-0.882941
-0.860701
-0.839953
-0.820672
-0.802889
-0.786614
-0.771744
-0.75809
-0.745462
-0.733731
-0.722825
-0.712701
-0.703317
-0.694657
-0.686718
-0.679493
-0.672975
-0.667147
-0.66198
-0.657437
-0.653485
-0.650109
-0.647305
-0.64508
-0.643448
-0.642418
-0.641963
-1.5515
-1.54903
-1.55575
-1.56029
-1.56242
-1.56196
-1.55878
-1.5527
-1.54371
-1.53168
-1.51658
-1.49857
-1.4778
-1.45457
-1.42919
-1.40185
-1.37289
-1.3427
-1.31175
-1.28045
-1.2491
-1.2179
-1.18705
-1.15667
-1.12674
-1.09724
-1.06817
-1.03955
-1.01136
-0.983624
-0.956404
-0.92987
-0.904335
-0.880143
-0.857498
-0.836409
-0.816814
-0.798698
-0.782075
-0.766896
-0.753003
-0.740195
-0.728313
-0.717274
-0.707029
-0.697537
-0.688771
-0.680729
-0.673413
-0.666821
-0.660944
-0.655755
-0.651214
-0.647277
-0.643919
-0.641131
-0.638916
-0.637289
-0.636258
-0.635802
-1.57469
-1.57118
-1.57829
-1.58294
-1.58489
-1.58396
-1.58007
-1.57318
-1.56312
-1.55004
-1.53386
-1.51458
-1.49247
-1.46777
-1.4409
-1.41217
-1.38184
-1.35026
-1.31785
-1.28509
-1.25235
-1.21992
-1.18798
-1.15668
-1.12603
-1.09596
-1.06645
-1.03751
-1.00908
-0.981158
-0.953791
-0.927108
-0.901343
-0.876818
-0.853796
-0.832366
-0.81248
-0.794077
-0.777145
-0.761663
-0.747522
-0.734532
-0.722506
-0.711331
-0.700959
-0.691353
-0.682485
-0.674346
-0.666939
-0.660267
-0.654327
-0.6491
-0.644545
-0.640614
-0.637272
-0.634503
-0.632306
-0.630688
-0.62966
-0.629202
-1.60054
-1.59632
-1.60371
-1.60836
-1.60991
-1.60826
-1.60331
-1.59515
-1.58381
-1.56923
-1.55165
-1.53102
-1.50744
-1.48119
-1.45266
-1.42232
-1.39049
-1.35748
-1.32364
-1.28941
-1.25523
-1.22147
-1.18834
-1.15603
-1.12458
-1.0939
-1.06392
-1.03463
-1.00597
-0.977884
-0.950385
-0.923575
-0.89765
-0.872885
-0.84955
-0.827796
-0.807625
-0.788969
-0.771777
-0.756021
-0.74163
-0.728449
-0.716279
-0.704976
-0.694474
-0.684748
-0.675775
-0.667544
-0.660051
-0.653298
-0.647286
-0.642006
-0.637421
-0.633484
-0.630153
-0.627404
-0.625229
-0.623627
-0.622606
-0.622148
-1.62984
-1.62478
-1.63254
-1.63702
-1.63785
-1.63505
-1.62873
-1.61885
-1.60569
-1.58937
-1.56993
-1.54764
-1.52249
-1.49461
-1.46438
-1.43227
-1.39876
-1.36419
-1.32888
-1.29321
-1.25762
-1.22247
-1.18809
-1.15468
-1.12234
-1.09101
-1.06053
-1.03086
-1.00196
-0.973742
-0.946145
-0.919233
-0.893185
-0.868255
-0.844694
-0.822667
-0.802223
-0.783326
-0.765913
-0.749926
-0.735303
-0.721924
-0.709605
-0.698177
-0.687552
-0.677704
-0.668624
-0.6603
-0.652724
-0.645892
-0.639806
-0.634461
-0.629832
-0.625875
-0.622546
-0.619816
-0.617665
-0.616084
-0.615075
-0.614621
-1.66382
-1.6575
-1.66564
-1.66952
-1.6691
-1.66459
-1.6562
-1.64427
-1.62881
-1.61022
-1.58867
-1.56429
-1.53731
-1.50775
-1.47578
-1.44187
-1.40656
-1.37029
-1.33342
-1.2963
-1.2593
-1.22281
-1.18715
-1.15258
-1.11928
-1.08721
-1.05622
-1.02618
-0.997023
-0.968668
-0.941012
-0.914046
-0.887913
-0.862864
-0.839145
-0.816917
-0.796242
-0.777119
-0.759507
-0.743331
-0.728507
-0.714933
-0.702456
-0.690905
-0.680165
-0.6702
-0.66101
-0.652591
-0.644933
-0.638026
-0.631865
-0.626451
-0.621767
-0.617777
-0.61444
-0.611722
-0.609596
-0.60804
-0.607048
-0.606601
-1.70395
-1.69564
-1.70389
-1.70653
-1.7041
-1.69704
-1.68581
-1.6709
-1.6528
-1.6315
-1.60743
-1.58076
-1.55163
-1.52019
-1.48649
-1.4508
-1.41368
-1.37565
-1.33713
-1.29849
-1.26008
-1.22227
-1.18538
-1.14965
-1.11534
-1.08248
-1.05094
-1.02052
-0.991106
-0.962613
-0.934919
-0.907956
-0.881797
-0.856667
-0.832836
-0.810476
-0.789637
-0.770325
-0.752528
-0.736188
-0.7212
-0.707449
-0.69481
-0.68313
-0.672282
-0.662212
-0.652915
-0.644396
-0.636653
-0.629672
-0.623442
-0.617957
-0.613212
-0.60918
-0.605824
-0.603109
-0.601003
-0.599474
-0.598505
-0.598068
-1.75302
-1.74122
-1.74842
-1.74885
-1.7433
-1.73251
-1.71744
-1.69867
-1.67688
-1.65253
-1.6256
-1.59638
-1.565
-1.53154
-1.49605
-1.45866
-1.41978
-1.38001
-1.33983
-1.29965
-1.25981
-1.22069
-1.1826
-1.14577
-1.11045
-1.07678
-1.04464
-1.01383
-0.984167
-0.955539
-0.927816
-0.900898
-0.874779
-0.849628
-0.825724
-0.803281
-0.782347
-0.762905
-0.744951
-0.728459
-0.713332
-0.699435
-0.686642
-0.674828
-0.663875
-0.653711
-0.644314
-0.635694
-0.627861
-0.620806
-0.614509
-0.608959
-0.604152
-0.60007
-0.596685
-0.593965
-0.591873
-0.590369
-0.589424
-0.589
-1.81545
-1.7961
-1.80054
-1.7974
-1.78721
-1.77142
-1.751
-1.72726
-1.70085
-1.67244
-1.6423
-1.6103
-1.57655
-1.54108
-1.50386
-1.46488
-1.4244
-1.38298
-1.34122
-1.29954
-1.25831
-1.21791
-1.17865
-1.14079
-1.10452
-1.07002
-1.03727
-1.00605
-0.976152
-0.947407
-0.919668
-0.892814
-0.866794
-0.8417
-0.817781
-0.795289
-0.774314
-0.754811
-0.736747
-0.720118
-0.704865
-0.690848
-0.677923
-0.665977
-0.654917
-0.644664
-0.635177
-0.62646
-0.618534
-0.611401
-0.60504
-0.599431
-0.594566
-0.590433
-0.587012
-0.584277
-0.582191
-0.580707
-0.579785
-0.579375
-1.89446
-1.8624
-1.86244
-1.85317
-1.83654
-1.81397
-1.78694
-1.75662
-1.72443
-1.69101
-1.65675
-1.62162
-1.58535
-1.54786
-1.50904
-1.4687
-1.42689
-1.38408
-1.34089
-1.29784
-1.25533
-1.21373
-1.17337
-1.13452
-1.09739
-1.06213
-1.02877
-0.997136
-0.967007
-0.93817
-0.910436
-0.883664
-0.857783
-0.832821
-0.808965
-0.786475
-0.765494
-0.745985
-0.72787
-0.711136
-0.695766
-0.681646
-0.668615
-0.656552
-0.64538
-0.635035
-0.625467
-0.616664
-0.608648
-0.601434
-0.595009
-0.589347
-0.58443
-0.580248
-0.576789
-0.574031
-0.571941
-0.570471
-0.569568
-0.569171
-1.99184
-1.94332
-1.93592
-1.91816
-1.89245
-1.86081
-1.82522
-1.78713
-1.7477
-1.70812
-1.66883
-1.6298
-1.59065
-1.55098
-1.51058
-1.46912
-1.42639
-1.38258
-1.33829
-1.29412
-1.25053
-1.2079
-1.16656
-1.12682
-1.08889
-1.05295
-1.01904
-0.987025
-0.95668
-0.927774
-0.90008
-0.873421
-0.847706
-0.822934
-0.799229
-0.776812
-0.755863
-0.736385
-0.718277
-0.701486
-0.686014
-0.671797
-0.658681
-0.646521
-0.63524
-0.624798
-0.615151
-0.606274
-0.598176
-0.590883
-0.584394
-0.578681
-0.573721
-0.569498
-0.566001
-0.563216
-0.561114
-0.559647
-0.558756
-0.558369
-2.11246
-2.04251
-2.02318
-1.99371
-1.95612
-1.91287
-1.86641
-1.81867
-1.77091
-1.724
-1.67864
-1.63485
-1.59216
-1.54994
-1.50775
-1.4652
-1.42185
-1.37756
-1.33268
-1.28779
-1.24343
-1.20004
-1.15796
-1.11749
-1.07888
-1.04236
-1.00799
-0.97564
-0.945111
-0.916165
-0.888551
-0.862048
-0.836534
-0.811998
-0.788521
-0.766266
-0.745403
-0.725982
-0.707922
-0.691129
-0.675587
-0.661276
-0.648082
-0.635844
-0.624465
-0.61392
-0.604192
-0.59525
-0.587086
-0.579722
-0.57317
-0.567409
-0.562412
-0.558156
-0.554628
-0.551815
-0.549693
-0.548219
-0.54733
-0.546946
-2.26344
-2.1622
-2.1271
-2.08169
-2.02843
-1.97064
-1.91087
-1.85152
-1.79389
-1.73876
-1.68647
-1.63708
-1.59011
-1.54475
-1.50034
-1.45641
-1.41242
-1.368
-1.32311
-1.27809
-1.23346
-1.1897
-1.1472
-1.10626
-1.06717
-1.0302
-0.995468
-0.96288
-0.932228
-0.903285
-0.875795
-0.849502
-0.824243
-0.799986
-0.776798
-0.754793
-0.73409
-0.714763
-0.696775
-0.680025
-0.664455
-0.650063
-0.636786
-0.624477
-0.613014
-0.602371
-0.592558
-0.583556
-0.575341
-0.567922
-0.561313
-0.555507
-0.550478
-0.546198
-0.542646
-0.539809
-0.537664
-0.536172
-0.535274
-0.534886
-2.45013
-2.30764
-2.25052
-2.18362
-2.11069
-2.03483
-1.95902
-1.88574
-1.81666
-1.75216
-1.69229
-1.63671
-1.58481
-1.53572
-1.48857
-1.44276
-1.39776
-1.35315
-1.30862
-1.26411
-1.21984
-1.17626
-1.13379
-1.09278
-1.0535
-1.01629
-0.981347
-0.948629
-0.917945
-0.889071
-0.861757
-0.835736
-0.810801
-0.786885
-0.764043
-0.742362
-0.721905
-0.702723
-0.684825
-0.668143
-0.652586
-0.638133
-0.624765
-0.612378
-0.600841
-0.590111
-0.580215
-0.571155
-0.562903
-0.555448
-0.548797
-0.542952
-0.537896
-0.533599
-0.530034
-0.527178
-0.525008
-0.523491
-0.522574
-0.522173
-2.68157
-2.48728
-2.39695
-2.30137
-2.20365
-2.1061
-2.01158
-1.92219
-1.83957
-1.76432
-1.69593
-1.6336
-1.57634
-1.52306
-1.47276
-1.42463
-1.37811
-1.33288
-1.28862
-1.24499
-1.20174
-1.15901
-1.11717
-1.07657
-1.03753
-1.0004
-0.96546
-0.932756
-0.902158
-0.87345
-0.846387
-0.820704
-0.796174
-0.77268
-0.750253
-0.728964
-0.708832
-0.68986
-0.672078
-0.655471
-0.639949
-0.625456
-0.611991
-0.599509
-0.587899
-0.577099
-0.567129
-0.558015
-0.549738
-0.542268
-0.535596
-0.529723
-0.524646
-0.520339
-0.516769
-0.513902
-0.51171
-0.510162
-0.509216
-0.508796
-2.9931
-2.71033
-2.57087
-2.43595
-2.30675
-2.18432
-2.06867
-1.96163
-1.86404
-1.77627
-1.69795
-1.62788
-1.56461
-1.50669
-1.45292
-1.40223
-1.35386
-1.30754
-1.26314
-1.2203
-1.17843
-1.1372
-1.09666
-1.05708
-1.0188
-0.982198
-0.947587
-0.915111
-0.884747
-0.856325
-0.829609
-0.80435
-0.780315
-0.75735
-0.735433
-0.714609
-0.69487
-0.676174
-0.658538
-0.642003
-0.626515
-0.611991
-0.598424
-0.585826
-0.574134
-0.563276
-0.553252
-0.544095
-0.535804
-0.528342
-0.521673
-0.515791
-0.510702
-0.506393
-0.502826
-0.499956
-0.497747
-0.496167
-0.495184
-0.494737
-3.53836
-2.98822
-2.77378
-2.58444
-2.41798
-2.26639
-2.12874
-2.00349
-1.8906
-1.78961
-1.69994
-1.62064
-1.55009
-1.48662
-1.42882
-1.37535
-1.32509
-1.27752
-1.23263
-1.19021
-1.14963
-1.1102
-1.07156
-1.03367
-0.996788
-0.961276
-0.927447
-0.895513
-0.865581
-0.83759
-0.81134
-0.786609
-0.763185
-0.740885
-0.719613
-0.699347
-0.680058
-0.661684
-0.644226
-0.627754
-0.612269
-0.597697
-0.584018
-0.571282
-0.559491
-0.548587
-0.538537
-0.52936
-0.521071
-0.513635
-0.506998
-0.501132
-0.496046
-0.491742
-0.488186
-0.485321
-0.483099
-0.481488
-0.480467
-0.479989
-4.20681
-3.3829
-3.00111
-2.74221
-2.53119
-2.34874
-2.18767
-2.04503
-1.91785
-1.80429
-1.70318
-1.61356
-1.53418
-1.46365
-1.4006
-1.34364
-1.29135
-1.24278
-1.19749
-1.15526
-1.11563
-1.07788
-1.04138
-1.00573
-0.970919
-0.937168
-0.904693
-0.873729
-0.844508
-0.817116
-0.791461
-0.767389
-0.744732
-0.723291
-0.70285
-0.683261
-0.664463
-0.646427
-0.629167
-0.612746
-0.597212
-0.582534
-0.568709
-0.555814
-0.543909
-0.532967
-0.522925
-0.513766
-0.505503
-0.498116
-0.491538
-0.485716
-0.480655
-0.476369
-0.472831
-0.469977
-0.467749
-0.466111
-0.465051
-0.464542
-19.4148
-22.4909
-10.4809
-1.88557
3.69443
4.92589
9.23921
9.37594
8.31273
8.27143
8.75543
9.83994
12.9409
18.2167
21.5389
26.5587
32.7031
29.6525
19.825
66273
-10.3661
-14.2552
-8.63748
-3.18879
1.04029
4.04784
6.48957
7.86333
8.54944
9.61979
11.1141
12.8928
15.008
17.343
19.6874
21.78
21.9163
16.2014
8.0631
-21.8268
-4.08161
-9.26668
-6.04595
-2.74028
0.2806
2.74445
4.70949
6.12695
7.21077
8.29879
9.47053
10.7294
12.0135
13.1528
13.8023
13.6405
11.6648
5.99366
-4.38504
-18.3271
-0.0573492
-5.33888
-3.41138
-1.43635
0.557598
2.34392
3.87273
5.13918
6.20567
7.19255
8.14112
9.04616
9.82673
10.2972
10.1559
9.00723
6.46241
2.05306
-4.31928
-11.3581
2.48711
-2.65091
-1.37271
-0.131322
1.19787
2.46712
3.62082
4.63511
5.52998
6.34734
7.09621
7.74752
8.19856
8.30523
7.84978
6.54915
4.14921
0.588169
-3.86127
-8.52084
4.11999
-0.779798
0.0915358
0.848831
1.72037
2.60572
3.44117
4.19406
4.8765
5.48699
6.00185
6.38494
6.55535
6.40716
5.79437
4.56245
2.60097
-0.11966
-3.40422
-6.85339
5.09014
0.48454
1.10754
1.56059
2.10824
2.68672
3.2601
3.79789
4.28051
4.68873
5.00321
5.17031
5.12347
4.80248
4.1236
2.99095
1.36373
-0.746693
-3.21521
-5.82979
5.60179
1.27244
1.7459
2.01972
2.37535
2.7542
3.13111
3.48466
3.78638
4.02177
4.16623
4.16765
3.99281
3.58909
2.89542
1.87049
0.498952
-1.18811
-3.10193
-5.10535
5.84441
1.72544
2.11403
2.28225
2.50835
2.7562
2.99557
3.20415
3.36358
3.45909
3.46824
3.35223
3.09587
2.65623
1.98661
1.08484
-0.0632861
-1.4215
-2.91412
-4.45067
5.9163
1.96411
2.28629
2.37546
2.50627
2.64789
2.77974
2.88496
2.95156
2.95401
2.86944
2.68275
2.3778
1.92981
1.32155
0.545988
-0.405898
-1.48976
-2.6445
-3.80635
5.86577
2.01927
2.2977
2.32732
2.39246
2.46399
2.52395
2.55538
2.55746
2.50361
2.3711
2.16045
1.84661
1.42355
0.889219
0.226938
-0.544101
-1.3885
-2.27049
-3.13458
5.78518
1.94025
2.20045
2.21039
2.24147
2.26574
2.28047
2.26914
2.21924
2.12471
1.968
1.74865
1.45594
1.08056
0.623159
0.0811047
-0.521602
-1.1634
-1.81816
-2.43583
5.73742
1.83328
2.06946
2.04893
2.05413
2.05047
2.03225
1.99661
1.92076
1.79917
1.63285
1.41368
1.14782
0.829407
0.453408
0.0294049
-0.426154
-0.893407
-1.34614
-1.74741
5.66053
1.69075
1.90555
1.84957
1.8175
1.78718
1.7485
1.69867
1.62612
1.51327
1.36116
1.16749
0.934304
0.669116
0.371559
0.0521162
-0.275347
-0.591692
-0.873914
-1.09912
5.57424
1.4971
1.69012
1.6299
1.58582
1.5443
1.49951
1.44094
1.36654
1.26972
1.14313
0.987491
0.801743
0.591673
0.368386
0.144123
-0.0690301
-0.259299
-0.408351
-0.492787
5.50965
1.31342
1.46602
1.40778
1.37308
1.33627
1.29389
1.23669
1.16124
1.07329
0.972384
0.854614
0.718837
0.567532
0.413995
0.273169
0.157444
0.0759694
0.0428904
0.0768762
5.44734
1.10282
1.25209
1.1899
1.15535
1.12096
1.08253
1.03729
0.980886
0.914391
0.839755
0.756068
0.665823
0.573793
0.48772
0.421401
0.388685
0.401057
0.461714
0.533528
5.35198
0.876032
1.02798
0.9744
0.944639
0.918334
0.890447
0.858348
0.823635
0.784208
0.737376
0.686981
0.639966
0.602872
0.582439
0.587801
0.627859
0.695768
0.743467
0.698095
5.19531
0.651899
0.806781
0.767886
0.750695
0.734796
0.718552
0.701349
0.685394
0.669875
0.653903
0.640324
0.635045
0.646902
0.684001
0.743762
0.80233
0.818938
0.756438
0.64707
4.91656
0.448777
0.603978
0.578708
0.571152
0.56308
0.558246
0.558957
0.563224
0.570387
0.583599
0.606496
0.643223
0.695529
0.752698
0.792566
0.783293
0.726884
0.648773
0.558031
4.40407
0.278078
0.419031
0.412466
0.416886
0.421582
0.431654
0.448006
0.469706
0.498169
0.536074
0.583085
0.632999
0.675259
0.690584
0.672385
0.634489
0.584026
0.524535
0.45914
3.51323
0.174895
0.270469
0.274525
0.286214
0.302315
0.325927
0.355806
0.390974
0.430151
0.470532
0.506816
0.528127
0.530204
0.518997
0.498347
0.469667
0.435198
0.395639