/*--------------------------------*- C++ -*----------------------------------*\
| =========                 |                                                 |
| \\      /  F ield         | OpenFOAM: The Open Source CFD Toolbox           |
|  \\    /   O peration     | Version:  v1912                                 |
|   \\  /    A nd           | Website:  www.openfoam.com                      |
|    \\/     M anipulation  |                                                 |
\*---------------------------------------------------------------------------*/
FoamFile
{
    version     2.0;
    format      ascii;
    class       surfaceScalarField;
    location    "2";
    object      phi;
}
// * * * * * * * * * * * * * * * * * * * * * * * * * * * * * * * * * * * * * //

dimensions      [0 3 -1 0 0 0 0];
oriented        oriented;


internalField   nonuniform List<scalar> 
40282
(
0.00362942
0.000947858
3.04247
-3.04664
3.03878
0.00785331
-3.03135
3.01569
0.0156596
-2.98604
2.94536
0.0406771
-2.89778
2.84544
0.0523348
-2.78505
2.70797
0.0770785
-2.60847
2.4885
0.11997
-2.35475
2.2141
0.140645
-2.07182
1.93139
0.140429
-1.79491
1.66359
0.131318
-1.53815
1.41895
0.119196
-1.30612
1.19954
0.106579
-1.09898
1.00413
0.0948512
-0.914608
0.829968
0.0846396
-0.74976
0.673583
0.0761778
-0.601049
0.531768
0.0692809
-0.465343
0.401388
0.0639545
-0.339525
0.279372
0.0601532
-0.220534
0.162603
0.0579305
-0.105348
0.0499956
0.0553521
-0.00222216
0.00326737
2.93684
-2.93685
2.93357
-0.0140022
0.0172834
-2.91654
2.88648
-0.0348098
0.0648694
-2.84473
2.78987
-0.0762435
0.131106
-2.72182
2.64134
-0.11825
0.198727
-2.55144
2.4574
-0.172416
0.266457
-2.36272
2.2675
-0.231219
0.326443
-2.17012
2.06913
-0.265315
0.366311
-1.96376
1.85393
-0.273617
0.383445
-1.74005
1.62282
-0.264061
0.38129
-1.50312
1.38204
-0.242908
0.363985
-1.26114
1.14257
-0.215812
0.334377
-1.02911
0.923641
-0.189314
0.294787
-0.828233
0.743326
-0.16758
0.252487
-0.667609
0.598769
-0.15067
0.21951
-0.534535
0.473406
-0.136988
0.198117
-0.414667
0.358068
-0.126254
0.182853
-0.303449
0.250599
-0.11837
0.171219
-0.199289
0.149266
-0.113241
0.163263
-0.100143
0.0509083
-0.108994
0.158229
-0.0161317
0.0468978
2.80186
-2.78834
2.74292
-0.0444822
0.0899013
-2.68858
2.62815
-0.117888
0.178324
-2.56314
2.49457
-0.199095
0.267664
-2.42318
2.34964
-0.278145
0.351681
-2.27471
2.19908
-0.350668
0.426303
-2.12312
2.04684
-0.411318
0.487599
-1.96994
1.89199
-0.454102
0.532049
-1.81256
1.73128
-0.47686
0.558133
-1.64795
1.56245
-0.48098
0.566474
-1.47481
1.38508
-0.46918
0.558912
-1.29334
1.19968
-0.44395
0.537613
-1.10416
1.0069
-0.407376
0.504632
-0.908134
0.808094
-0.361553
0.461592
-0.707
0.6057
-0.308441
0.409741
-0.507181
0.417238
-0.261109
0.351052
-0.34188
0.282515
-0.234238
0.293603
-0.235005
0.193238
-0.219396
0.261163
-0.153442
0.114491
-0.209138
0.248089
-0.0761344
0.0380429
-0.203389
0.241481
-0.0878818
0.135507
2.68354
-2.63959
2.58259
-0.144099
0.201097
-2.52121
2.45681
-0.24284
0.307238
-2.39036
2.32256
-0.337369
0.405169
-2.25393
2.18488
-0.423883
0.49294
-2.11567
2.04648
-0.499305
0.568492
-1.97738
1.90832
-0.560818
0.629881
-1.83916
1.76972
-0.606168
0.67561
-1.69977
1.6291
-0.634331
0.705005
-1.5575
1.48484
-0.64564
0.718308
-1.41098
1.33587
-0.64139
0.716497
-1.25949
1.18184
-0.623315
0.700967
-1.10296
1.02293
-0.593212
0.673247
-0.941811
0.859704
-0.552704
0.634811
-0.776704
0.692929
-0.503212
0.586988
-0.608491
0.523473
-0.445873
0.530891
-0.43809
0.352767
-0.382158
0.467481
-0.268274
0.188515
-0.318254
0.398013
-0.121765
0.0743743
-0.282055
0.329446
-0.0437869
0.0209586
-0.272791
0.295619
-0.185069
0.236647
2.58173
-2.52909
2.47063
-0.260637
0.319094
-2.40946
2.34639
-0.372597
0.435666
-2.28205
2.21694
-0.473081
0.538194
-2.15141
2.08574
-0.561597
0.627272
-2.02009
1.95458
-0.637013
0.702531
-1.88922
1.82399
-0.698106
0.76333
-1.75883
1.69362
-0.74393
0.809143
-1.62823
1.56251
-0.774084
0.839796
-1.49635
1.4296
-0.788806
0.855557
-1.36215
1.29393
-0.788879
0.857104
-1.22486
1.1549
-0.775446
0.845401
-1.08404
1.01229
-0.749801
0.821552
-0.939679
0.866251
-0.713224
0.786652
-0.792086
0.71728
-0.666867
0.741673
-0.641958
0.566279
-0.611672
0.687352
-0.490444
0.414713
-0.548349
0.624079
-0.339436
0.265109
-0.477377
0.551704
-0.192505
0.122997
-0.399433
0.468941
-0.0594074
0.0126372
-0.324322
0.371092
-0.28724
0.337991
2.48838
-2.4347
2.37868
-0.377684
0.433699
-2.32081
2.26156
-0.49816
0.557412
-2.20132
2.14042
-0.602518
0.663418
-2.07911
2.01756
-0.692172
0.753718
-1.95591
1.89423
-0.767382
0.82906
-1.83256
1.77088
-0.827995
0.889673
-1.70916
1.64733
-0.87383
0.935659
-1.58531
1.52301
-0.904912
0.967209
-1.46034
1.3972
-0.921562
0.984704
-1.3335
1.26917
-0.924399
0.988727
-1.20415
1.13839
-0.914255
0.980017
-1.07186
1.00456
-0.892072
0.959375
-0.936496
0.867715
-0.858773
0.927554
-0.79828
0.728286
-0.815138
0.885131
-0.657862
0.587176
-0.761672
0.832358
-0.51644
0.445915
-0.698409
0.768934
-0.375917
0.306808
-0.624546
0.693655
-0.238967
0.172728
-0.537428
0.603667
-0.10848
0.0478754
-0.427894
0.488499
-0.386522
0.434255
2.40006
-2.34922
2.2973
-0.488805
0.540718
-2.24409
2.18982
-0.615324
0.669587
-2.13474
2.07901
-0.722903
0.778629
-2.0228
1.9662
-0.813972
0.870566
-1.90931
1.85216
-0.889658
0.946804
-1.79478
1.73717
-0.950502
1.00812
-1.67929
1.6211
-0.996837
1.05502
-1.56255
1.50358
-1.029
1.08797
-1.44412
1.3841
-1.04742
1.10743
-1.32347
1.26215
-1.05267
1.11398
-1.20011
1.13731
-1.0454
1.1082
-1.07374
1.0094
-1.0263
1.09064
-0.944301
0.878499
-0.995926
1.06173
-0.812057
0.745069
-0.954664
1.02165
-0.677646
0.609914
-0.902521
0.970253
-0.542002
0.474022
-0.838983
0.906962
-0.406045
0.338069
-0.762841
0.830817
-0.270002
0.201711
-0.671789
0.74008
-0.133241
0.0652035
-0.554501
0.622539
-0.47918
0.522743
2.31672
-2.2697
2.22276
-0.59113
0.638068
-2.17492
2.12629
-0.722034
0.770666
-2.07695
2.02699
-0.832495
0.882461
-1.97646
1.9254
-0.92543
0.976482
-1.87386
1.82184
-1.00245
1.05447
-1.76934
1.71635
-1.0645
1.11749
-1.66285
1.60879
-1.11223
1.16629
-1.55413
1.49883
-1.1462
1.2015
-1.44283
1.38608
-1.16692
1.22367
-1.32853
1.27014
-1.17494
1.23334
-1.21085
1.15065
-1.1708
1.231
-1.08951
1.02743
-1.15494
1.21703
-0.964412
0.900484
-1.12766
1.19159
-0.835679
0.770043
-1.08899
1.15462
-0.703624
0.636464
-1.03867
1.10583
-0.568595
0.500021
-0.976189
1.04476
-0.430716
0.36063
-0.900875
0.970961
-0.289709
0.217959
-0.811316
0.883066
-0.145514
0.0726312
-0.694435
0.767318
-0.563198
0.601947
2.23695
-2.19434
2.15289
-0.683118
0.724566
-2.11086
2.06821
-0.817168
0.859814
-2.02494
1.98104
-0.930276
0.974181
-1.93649
1.89128
-1.02551
1.07071
-1.84541
1.79886
-1.10468
1.15123
-1.7516
1.70362
-1.16893
1.21691
-1.65488
1.60534
-1.21908
1.26861
-1.55497
1.50372
-1.25579
1.30704
-1.45154
1.39838
-1.27967
1.33283
-1.34418
1.2889
-1.29126
1.34655
-1.23247
1.17486
-1.29101
1.34862
-1.11603
1.05593
-1.27922
1.33932
-0.994554
0.931869
-1.25601
1.31869
-0.867866
0.802537
-1.22122
1.28655
-0.735875
0.667876
-1.17454
1.24254
-0.598532
0.527839
-1.11556
1.18625
-0.455798
0.382429
-1.04391
1.11728
-0.307791
0.232008
-0.958101
1.03388
-0.155271
0.0777778
-0.843805
0.921299
-0.637506
0.671183
2.16068
-2.12324
2.08747
-0.763887
0.79965
-2.05134
2.01471
-0.900161
0.93679
-1.97749
1.93958
-1.01581
1.05371
-1.90093
1.86149
-1.11378
1.15321
-1.82123
1.78011
-1.19585
1.23697
-1.73811
1.69519
-1.26319
1.3061
-1.65133
1.60649
-1.31667
1.36151
-1.56064
1.5137
-1.35706
1.404
-1.46564
1.41639
-1.38503
1.43428
-1.36588
1.31402
-1.40115
1.453
-1.26076
1.20601
-1.40588
1.46064
-1.14968
1.09171
-1.39948
1.45746
-1.03201
0.97052
-1.38196
1.44345
-0.90717
0.841901
-1.35307
1.41834
-0.774664
0.705422
-1.31242
1.38166
-0.634155
0.560864
-1.25955
1.33284
-0.485584
0.408389
-1.1939
1.27109
-0.329408
0.248825
-1.1134
1.19398
-0.166868
0.0837569
-1.0029
1.08601
-0.701756
0.730439
2.08696
-2.05485
2.02464
-0.833203
0.863413
-1.99416
1.96318
-0.971135
1.00211
-1.93154
1.8991
-1.08943
1.12186
-1.8658
1.83157
-1.19062
1.22484
-1.7964
1.76027
-1.27622
1.31236
-1.72315
1.68505
-1.3473
1.38541
-1.64594
1.60577
-1.40478
1.44495
-1.56451
1.52209
-1.44952
1.49193
-1.47844
1.43346
-1.48231
1.52729
-1.38707
1.33914
-1.50388
1.55181
-1.28957
1.23822
-1.51475
1.5661
-1.18497
1.12969
-1.51522
1.57051
-1.07224
1.01248
-1.50529
1.56504
-0.950301
0.885574
-1.48464
1.54936
-0.818199
0.748092
-1.45271
1.52282
-0.675198
0.599499
-1.40877
1.48447
-0.521024
0.439852
-1.35174
1.43291
-0.356125
0.270037
-1.27877
1.36486
-0.181818
0.0916602
-1.17406
1.26422
-0.756265
0.780346
2.0158
-1.9885
1.96329
-0.891534
0.916749
-1.93769
1.91139
-1.03111
1.05741
-1.8842
1.85601
-1.15252
1.1807
-1.82681
1.79661
-1.25745
1.28765
-1.76545
1.73337
-1.34694
1.37902
-1.70041
1.66657
-1.42196
1.45579
-1.63185
1.5962
-1.48353
1.51918
-1.55955
1.52182
-1.53278
1.57051
-1.48289
1.44262
-1.57075
1.61102
-1.40088
1.3575
-1.59839
1.64177
-1.31231
1.26513
-1.61638
1.66356
-1.21578
1.16405
-1.62513
1.67685
-1.10976
1.05271
-1.62467
1.68172
-0.992687
0.929507
-1.61465
1.67783
-0.86299
0.792975
-1.59433
1.66434
-0.719334
0.641979
-1.56254
1.6399
-0.560872
0.476036
-1.51752
1.60236
-0.38756
0.295585
-1.45552
1.5475
-0.200275
0.101704
-1.36017
1.45874
-0.801914
0.821903
1.94706
-1.92417
1.90282
-0.940271
0.96162
-1.88052
1.85696
-1.08246
1.10602
-1.83207
1.80592
-1.208
1.23415
-1.77869
1.7506
-1.31705
1.34514
-1.72182
1.69251
-1.41011
1.43943
-1.66274
1.63254
-1.48834
1.51854
-1.60187
1.57065
-1.55325
1.58447
-1.53874
1.50599
-1.60646
1.63922
-1.4722
1.43717
-1.64944
1.68447
-1.40069
1.36253
-1.68338
1.72154
-1.32247
1.28026
-1.70918
1.75138
-1.23568
1.18847
-1.72735
1.77456
-1.13838
1.08515
-1.73803
1.79126
-1.02851
0.968179
-1.74091
1.80124
-0.903886
0.835363
-1.7351
1.80362
-0.762361
0.684662
-1.71907
1.79676
-0.602095
0.514544
-1.69032
1.77787
-0.421953
0.324321
-1.64415
1.74178
-0.221645
0.113726
-1.56382
1.67174
-0.83957
0.855416
1.88042
-1.86076
1.84113
-0.982106
1.00174
-1.81905
1.79457
-1.12986
1.15433
-1.76819
1.74055
-1.26101
1.28864
-1.71229
1.68391
-1.37359
1.40197
-1.65578
1.62811
-1.46836
1.49604
-1.60093
1.57419
-1.54757
1.57431
-1.54773
1.52132
-1.61392
1.64033
-1.49468
1.46752
-1.66983
1.69699
-1.43953
1.4104
-1.71723
1.74636
-1.37983
1.34752
-1.75749
1.7898
-1.3132
1.2766
-1.79157
1.82817
-1.23745
1.19549
-1.82003
1.862
-1.15044
1.102
-1.84313
1.89157
-1.04988
0.993716
-1.86071
1.91687
-0.933158
0.867813
-1.87201
1.93736
-0.797279
0.721153
-1.87538
1.9515
-0.639051
0.550617
-1.86779
1.95622
-0.45554
0.353534
-1.8437
1.9457
-0.244263
0.127025
-1.7865
1.90373
-0.868353
0.878012
1.81877
-1.79877
1.77573
-1.02243
1.04547
-1.74712
1.71493
-1.18206
1.21425
-1.68123
1.6477
-1.31925
1.35278
-1.61549
1.58524
-1.43177
1.46202
-1.55723
1.53143
-1.52346
1.54926
-1.5076
1.48536
-1.59949
1.62172
-1.46428
1.44385
-1.66439
1.68481
-1.42359
1.40299
-1.72145
1.74205
-1.3816
1.35898
-1.77278
1.79539
-1.33476
1.30858
-1.81958
1.84576
-1.28016
1.24922
-1.86252
1.89346
-1.21553
1.17885
-1.90198
1.93866
-1.13896
1.09559
-1.93828
1.98164
-1.04847
0.997265
-1.97158
2.02279
-0.941564
0.880895
-2.00168
2.06235
-0.814712
0.742403
-2.02738
2.09969
-0.663315
0.576765
-2.04573
2.13228
-0.482053
0.378429
-2.05088
2.15451
-0.264985
0.140162
-2.02737
2.15219
-0.882518
0.880097
1.76536
-1.73327
1.6914
-1.07531
1.11719
-1.64242
1.5932
-1.25465
1.30387
-1.54746
1.50689
-1.39096
1.43152
-1.47198
1.44247
-1.49323
1.52274
-1.41775
1.39707
-1.57358
1.59426
-1.37961
1.36455
-1.64114
1.6562
-1.35107
1.33842
-1.70189
1.71454
-1.32587
1.31276
-1.75929
1.7724
-1.29851
1.28261
-1.81499
1.83089
-1.26461
1.24418
-1.86938
1.88981
-1.22103
1.19495
-1.92233
1.94841
-1.16575
1.1333
-1.97365
2.00609
-1.09749
1.0582
-2.0235
2.06279
-1.01528
0.968521
-2.0725
2.11925
-0.917604
0.862105
-2.12146
2.17695
-0.801413
0.734802
-2.17059
2.2372
-0.661375
0.58015
-2.21817
2.29939
-0.489995
0.389589
-2.25918
2.35958
-0.277155
0.149756
-2.28158
2.40898
-0.88564
1.02134
1.5641
-1.60237
1.51202
-1.18227
1.27262
-1.43788
1.37957
-1.36287
1.42118
-1.3348
1.30099
-1.47267
1.50648
-1.27572
1.25699
-1.549
1.56773
-1.2433
1.23343
-1.61052
1.62039
-1.22638
1.22124
-1.66671
1.67185
-1.21713
1.21325
-1.72295
1.72683
-1.20881
1.20311
-1.78186
1.78756
-1.19553
1.18555
-1.8439
1.85388
-1.17273
1.15674
-1.90813
1.92411
-1.13735
1.11437
-1.97314
1.99611
-1.08769
1.05725
-2.03778
2.06822
-1.02305
0.985129
-2.10165
2.13958
-0.943585
0.898474
-2.1655
2.21061
-0.849805
0.797399
-2.2314
2.2838
-0.740886
0.679621
-2.30203
2.36329
-0.612776
0.539349
-2.37828
2.45171
-0.458213
0.367857
-2.45769
2.54805
-0.265696
0.146914
-2.53634
2.65512
-1.2403
1.09171
0.267392
-1.03338
1.0623
-1.35463
1.32571
-1.06878
1.06823
-1.46074
1.46128
-1.06645
1.06472
-1.52598
1.5277
-1.06375
1.06373
-1.57699
1.57702
-1.06475
1.06681
-1.62377
1.6217
-1.06979
1.07334
-1.67208
1.66853
-1.07692
1.07985
-1.72681
1.72388
-1.08145
1.08102
-1.79024
1.79067
-1.07799
1.07182
-1.86175
1.86793
-1.0621
1.04855
-1.93887
1.95242
-1.03097
1.00914
-2.01871
2.04054
-0.982887
0.951989
-2.09919
2.13009
-0.916325
0.87587
-2.17897
2.21942
-0.830843
0.781587
-2.2577
2.30696
-0.728613
0.672448
-2.33776
2.39393
-0.613487
0.551849
-2.42463
2.48627
-0.487261
0.419297
-2.52289
2.59086
-0.348127
0.274496
-2.63219
2.70582
-0.197691
0.111776
-2.76415
2.85006
-1.31695
0.900603
0.416345
-0.384073
0.704407
-1.13676
0.816426
-0.826446
0.884232
-1.43467
1.37689
-0.901076
0.911252
-1.52102
1.51085
-0.918114
0.923119
-1.57251
1.56751
-0.926995
0.930778
-1.61705
1.61327
-0.935232
0.940183
-1.66303
1.65808
-0.945045
0.949125
-1.71939
1.71531
-0.951714
0.952244
-1.78996
1.78943
-0.950094
0.944623
-1.87345
1.87892
-0.93536
0.922251
-1.9658
1.97891
-0.905199
0.883935
-2.0626
2.08386
-0.857903
0.826429
-2.16209
2.19356
-0.788608
0.743644
-2.26299
2.30795
-0.690746
0.629117
-2.3625
2.42413
-0.558435
0.479906
-2.45897
2.5375
-0.397072
0.315573
-2.55467
2.63617
-0.239261
0.16789
-2.66046
2.73184
-0.100848
0.0423858
-2.77222
2.83068
-0.00216781
-0.00886449
-2.9033
2.91433
-0.70822
0.610365
0.0978553
-0.15015
0.146698
-0.643736
0.647188
-0.258254
0.394457
-1.21081
1.07461
-0.532831
0.657624
-1.47463
1.34984
-0.757171
0.811316
-1.56299
1.50885
-0.827692
0.827792
-1.61072
1.61062
-0.824193
0.823774
-1.65542
1.65584
-0.823352
0.821853
-1.71349
1.71499
-0.819498
0.815916
-1.79045
1.79404
-0.81093
0.803021
-1.88533
1.89324
-0.791579
0.777304
-1.99224
2.00652
-0.760562
0.740443
-2.10406
2.12418
-0.714407
0.678113
-2.22493
2.26122
-0.633888
0.58637
-2.35581
2.40333
-0.530741
0.463753
-2.49311
2.56009
-0.383473
0.290108
-2.63691
2.73027
-0.183183
0.0491038
-2.75061
2.88469
0.114408
-0.196228
-2.80764
2.88946
0.239698
-0.267139
-2.87965
2.90709
0.275439
-0.22942
-2.88941
2.84339
0.00146923
-0.00281267
0.00134344
-0.00277373
0.00394643
-0.0011727
-0.00498209
0.00594308
-0.000960993
-0.00684973
0.00770195
-0.000852225
-0.00849649
0.00923504
-0.000738548
-0.00991892
0.0105504
-0.000631427
-0.0111292
0.0116559
-0.000526747
-0.0121299
0.0125527
-0.00042276
-0.0129281
0.0132607
-0.000332576
-0.0135519
0.0138038
-0.00025183
-0.0140138
0.0141845
-0.000170726
-0.0143162
0.014418
-0.000101746
-0.0144867
0.0145246
-3.78942e-05
-0.0145289
0.0145096
1.92616e-05
-0.0144656
0.0144034
6.22732e-05
-0.0143171
0.0142156
0.000101451
-0.0140982
0.0139674
0.000130802
-0.0138228
0.0136692
0.000153583
-0.0135073
0.0133383
0.000168932
-0.0131667
0.0129937
0.000172966
-0.0128255
0.0126584
0.000167043
-0.0124913
0.0123236
0.000167675
-0.0121543
0.0119833
0.000170965
-0.0118091
0.0116268
0.000182341
-0.0114391
0.0112465
0.00019264
-0.0110523
0.0108511
0.000201202
-0.0106472
0.0104417
0.00020558
-0.0102403
0.0100427
0.000197555
-0.00984322
0.00964379
0.000199427
-0.00944001
0.00924023
0.000199773
-0.0090408
0.00884228
0.000198519
-0.0086432
0.00844365
0.000199553
-0.00824993
0.008061
0.000188937
-0.00787899
0.00770112
0.000177874
-0.00752641
0.00735743
0.000168982
-0.00719469
0.00703646
0.000158229
-0.00688441
0.00673258
0.000151833
-0.00658579
0.0064396
0.000146193
-0.00629758
0.00615569
0.000141886
-0.0060148
0.00587031
0.00014449
-0.00572683
0.00558109
0.000145731
-0.00544027
0.00530077
0.000139502
-0.0051635
0.00502583
0.000137668
-0.00488484
0.00474032
0.000144518
-0.00459446
0.00444802
0.000146435
-0.00430607
0.00416723
0.000138847
-0.00403287
0.00390119
0.000131675
-0.00376903
0.00363715
0.000131883
-0.00350222
0.00336598
0.000136244
-0.00322795
0.00308901
0.000138939
-0.00295145
0.00281428
0.000137164
-0.0026801
0.00254703
0.000133072
-0.00241683
0.00228804
0.000128784
-0.00216183
0.00203701
0.000124822
-0.00191428
0.00179196
0.000122319
-0.00167093
0.00154991
0.00012102
-0.00142929
0.0013085
0.00012079
-0.00118722
0.00106488
0.000122342
-0.000941312
0.000814521
0.000126791
-0.000686471
0.000535927
0.000150544
0.00412687
-0.00536786
0.00124099
-0.00244694
0.00354552
0.00230347
-0.00340205
-0.00460761
0.00561272
0.00194441
-0.00294952
-0.00655539
0.00743767
0.00171823
-0.00260051
-0.0082619
0.00902962
0.0014936
-0.00226133
-0.00974087
0.0103987
0.00127955
-0.00193733
-0.0110032
0.0115576
0.00107253
-0.00162693
-0.0120624
0.0125201
0.000871147
-0.00132885
-0.012932
0.0133017
0.000693702
-0.00106337
-0.0136318
0.0139237
0.000535015
-0.000826875
-0.01418
0.0144014
0.000380319
-0.000601731
-0.0145895
0.0147447
0.000243926
-0.000399058
-0.0148694
0.0149616
0.000116948
-0.000209108
-0.0150251
0.015059
6.56926e-07
-3.46047e-05
-0.0150651
0.0150435
-9.61823e-05
0.000117797
-0.0149963
0.0149229
-0.000182653
0.000256069
-0.0148269
0.0147102
-0.000252919
0.000369656
-0.0145738
0.0144215
-0.00031039
0.00046267
-0.0142552
0.0140816
-0.000344256
0.000517905
-0.0139031
0.0137262
-0.000349976
0.000526887
-0.0135526
0.0133843
-0.000335171
0.000503438
-0.0132201
0.013057
-0.000330189
0.000493345
-0.0128938
0.0127251
-0.000337642
0.000506337
-0.0125494
0.0123623
-0.00036647
0.000553571
-0.0121626
0.011951
-0.000399653
0.00061122
-0.0117284
0.0115015
-0.000423566
0.000650499
-0.011272
0.0110488
-0.000426091
0.000649238
-0.0108343
0.0106319
-0.000399576
0.000601984
-0.010442
0.0102596
-0.000386921
0.000569284
-0.0100821
0.00990318
-0.000384371
0.000563311
-0.00971994
0.00953027
-0.000390431
0.000580096
-0.00933523
0.0091388
-0.000396582
0.000593006
-0.0089437
0.00875418
-0.000377969
0.000567487
-0.00857149
0.0083942
-0.000355653
0.000532941
-0.00822253
0.00805106
-0.00034
0.000511476
-0.00788065
0.00770841
-0.000326949
0.000499197
-0.00753545
0.00736399
-0.000319492
0.000490957
-0.00719585
0.00703175
-0.000307882
0.000471978
-0.00687338
0.00671623
-0.000297537
0.000454691
-0.00655982
0.00640059
-0.000301459
0.000460695
-0.00623861
0.00607487
-0.000305376
0.000469122
-0.0059117
0.0057511
-0.000295452
0.000456053
-0.00559499
0.00544151
-0.000288662
0.000442148
-0.00529045
0.00513843
-0.000295208
0.000447228
-0.00498464
0.00482843
-0.00029912
0.000455327
-0.00467088
0.00451397
-0.000289139
0.000446049
-0.00435907
0.004207
-0.000277249
0.000429323
-0.00405817
0.00391066
-0.00027485
0.000422363
-0.00376453
0.00361751
-0.000279633
0.000426657
-0.00347022
0.00332257
-0.000283047
0.000430692
-0.00317517
0.00302899
-0.000279556
0.000425733
-0.00288462
0.00274215
-0.000271634
0.000414104
-0.00260183
0.00246307
-0.000263516
0.00040227
-0.00232597
0.00218975
-0.000256957
0.000393187
-0.0020548
0.00192066
-0.000252222
0.000386356
-0.00178767
0.00165516
-0.000249074
0.000381586
-0.00152348
0.00139196
-0.000247917
0.000379438
-0.00126041
0.00112827
-0.000250099
0.000382238
-0.000995334
0.000860328
-0.00025785
0.000392857
-0.00071992
0.000582378
-0.00029164
0.000429182
0.0066177
-0.00789075
0.00127305
-0.00241048
0.00351387
0.00448791
-0.0055913
-0.00457843
0.00559985
0.00395685
-0.00497827
-0.00656328
0.00746772
0.00349021
-0.00439465
-0.00831246
0.00909964
0.00303452
-0.00382171
-0.00982916
0.0105038
0.00259927
-0.00327392
-0.0111236
0.0116919
0.00218521
-0.0027535
-0.0122083
0.0126756
0.00178941
-0.00225672
-0.0130946
0.0134696
0.00143536
-0.00181042
-0.0138013
0.0140924
0.00111994
-0.00141099
-0.0143433
0.0145579
0.000822777
-0.00103734
-0.0147379
0.0148857
0.000555591
-0.000703423
-0.0150028
0.015091
0.000304824
-0.000393011
-0.0151511
0.0151852
7.31415e-05
-0.000107285
-0.0151947
0.0151811
-0.000131421
0.000145021
-0.0151466
0.0150916
-0.000318425
0.00037338
-0.0150178
0.0149276
-0.000473938
0.000564096
-0.0148229
0.0147038
-0.000599749
0.000718847
-0.0145718
0.0144283
-0.000678954
0.000822377
-0.0142746
0.0141128
-0.00069769
0.000859456
-0.0139435
0.0137677
-0.000673383
0.000849252
-0.0135862
0.013399
-0.000663979
0.00085116
-0.013206
0.0130082
-0.000684541
0.000882359
-0.0128065
0.0126021
-0.000745719
0.000950072
-0.012396
0.0121885
-0.000820402
0.00102788
-0.0119797
0.0117725
-0.000869011
0.00107617
-0.0115678
0.0113659
-0.000861635
0.00106356
-0.0111677
0.0109741
-0.00079633
0.000989906
-0.0107857
0.0106025
-0.000745276
0.000928393
-0.0104231
0.0102444
-0.000736179
0.000914838
-0.0100654
0.00988431
-0.000763384
0.000944509
-0.00970079
0.00951582
-0.000784658
0.000969621
-0.00932993
0.0091443
-0.000756097
0.000941733
-0.00896102
0.00877957
-0.000712418
0.000893863
-0.00860064
0.0084213
-0.000687419
0.000866762
-0.00824156
0.0080603
-0.000678367
0.000859632
-0.00788025
0.0077016
-0.000670082
0.000848733
-0.00752682
0.007355
-0.000642982
0.000814806
-0.0071868
0.00701882
-0.000619137
0.000787115
-0.0068514
0.00668181
-0.00062786
0.000797451
-0.00651133
0.00634033
-0.000639776
0.000810774
-0.00617123
0.00600476
-0.000621812
0.000788278
-0.00584343
0.00568496
-0.000599007
0.000757476
-0.00552892
0.00537217
-0.000601498
0.00075825
-0.00521348
0.00505169
-0.000614127
0.000775916
-0.00488794
0.00472386
-0.00060674
0.000770823
-0.00456193
0.00440332
-0.000584587
0.000743198
-0.00424861
0.00409614
-0.000571724
0.000724201
-0.00394528
0.00379365
-0.000575484
0.000727114
-0.00364103
0.00348742
-0.00058116
0.000734767
-0.00333387
0.00318078
-0.000575153
0.000728244
-0.00302945
0.0028798
-0.000559913
0.000709561
-0.00273205
0.00258565
-0.000544744
0.000691148
-0.00244058
0.00229617
-0.000533748
0.000678158
-0.00215327
0.00201118
-0.000525123
0.000667211
-0.00187053
0.00173088
-0.000517724
0.000657366
-0.00159228
0.00145383
-0.000513996
0.000652448
-0.00131577
0.0011773
-0.000517008
0.000655487
-0.00103818
0.000899518
-0.000528947
0.000667604
-0.000763165
0.000627535
-0.000563744
0.000699373
0.0092216
-0.0105468
0.00132516
-0.00252515
0.00365592
0.00670471
-0.00783547
-0.00473471
0.00576582
0.00599912
-0.00703022
-0.00673976
0.00765924
0.00530288
-0.00622236
-0.00852015
0.0093265
0.0046155
-0.00542185
-0.0100752
0.0107704
0.00395714
-0.00465241
-0.0114098
0.0119981
0.0033298
-0.00391812
-0.0125322
0.0130146
0.00272973
-0.00321216
-0.0134439
0.0138247
0.00218688
-0.00256765
-0.0141559
0.0144404
0.00169787
-0.00198244
-0.0146777
0.0148732
0.00124162
-0.00143711
-0.0150286
0.0151489
0.00083733
-0.000957623
-0.0152359
0.0152948
0.000466887
-0.000525766
-0.015328
0.0153389
0.000130365
-0.000141265
-0.0153311
0.0153074
-0.000162396
0.000186106
-0.0152713
0.0152232
-0.000423304
0.000471412
-0.0151661
0.0150994
-0.000640077
0.000706749
-0.0150263
0.0149435
-0.000817901
0.000900694
-0.0148512
0.0147444
-0.000944135
0.00105086
-0.0146235
0.0144824
-0.00100817
0.00114929
-0.0143205
0.0141367
-0.00102721
0.00121104
-0.0139333
0.0137145
-0.00105332
0.00127212
-0.0134846
0.013251
-0.00109754
0.00133114
-0.0130204
0.0127993
-0.00116142
0.00138248
-0.0125923
0.0124002
-0.00122536
0.0014175
-0.0122227
0.0120552
-0.00126069
0.00142817
-0.011894
0.0117295
-0.00124391
0.00140838
-0.011557
0.0113724
-0.00117667
0.00136126
-0.011178
0.0109783
-0.00111723
0.00131691
-0.0107787
0.0105833
-0.00109859
0.00129405
-0.0103961
0.0102187
-0.00112053
0.00129799
-0.0100505
0.00988565
-0.00114262
0.00130746
-0.00971954
0.00954613
-0.001121
0.00129442
-0.00936506
0.00917704
-0.00107947
0.00126749
-0.00898583
0.00879376
-0.00105438
0.00124646
-0.00860406
0.00841718
-0.00104594
0.00123281
-0.00823532
0.00805519
-0.00103056
0.00121069
-0.00787645
0.00769491
-0.00099368
0.00117522
-0.0075115
0.00732605
-0.00096575
0.00115119
-0.00714256
0.00696229
-0.000974823
0.00115509
-0.00678783
0.00661663
-0.000984766
0.00115597
-0.00644878
0.00628057
-0.000957449
0.00112566
-0.00611265
0.00594353
-0.00092146
0.00109058
-0.00577524
0.00560728
-0.000920383
0.00108834
-0.00544089
0.00527502
-0.00093993
0.0011058
-0.00510999
0.00494492
-0.000935673
0.00110074
-0.00478086
0.00461707
-0.000903962
0.00106775
-0.00445507
0.00429398
-0.000879801
0.00104089
-0.00413459
0.00397549
-0.000881536
0.00104063
-0.0038171
0.00365827
-0.000890747
0.00104958
-0.00349975
0.00334101
-0.000884033
0.00104277
-0.00318311
0.00302578
-0.000863036
0.00102037
-0.00286961
0.00271424
-0.000841847
0.000997227
-0.00256051
0.00240778
-0.000826862
0.000979591
-0.0022569
0.00210714
-0.000813419
0.000963186
-0.00195921
0.00181208
-0.000800709
0.000947836
-0.00166618
0.00152033
-0.000794033
0.000939881
-0.00137486
0.0012291
-0.000797008
0.000942771
-0.00108322
0.00093577
-0.000809375
0.000956824
-0.000785646
0.000640902
-0.00083727
0.000982013
0.0118587
-0.0131205
0.00126187
-0.00253752
0.00369209
0.00897222
-0.0101268
-0.00479056
0.00583074
0.0080587
-0.00909888
-0.00681538
0.00774282
0.00714055
-0.00806799
-0.00861593
0.00943254
0.00622981
-0.00704642
-0.0101947
0.0109019
0.00535151
-0.00605872
-0.0115571
0.0121611
0.00451143
-0.0051155
-0.0127121
0.0132132
0.00370233
-0.00420342
-0.0136628
0.0140632
0.00295568
-0.00335609
-0.0144134
0.0147149
0.00227176
-0.00257325
-0.0149677
0.0151767
0.00163447
-0.00184345
-0.0153433
0.0154707
0.00107585
-0.00120325
-0.0155609
0.0156192
0.000579553
-0.000637755
-0.0156501
0.0156577
0.000147285
-0.000154871
-0.0156454
0.0156165
-0.000213387
0.000242291
-0.0155744
0.0155196
-0.000520747
0.00057553
-0.0154547
0.0153806
-0.000772142
0.000846221
-0.0152973
0.0152039
-0.000981438
0.00107488
-0.0150982
0.014981
-0.00115428
0.00127151
-0.0148499
0.0147035
-0.00128686
0.00143327
-0.0145384
0.0143563
-0.00139284
0.00157496
-0.014157
0.0139476
-0.00148923
0.00169862
-0.0137293
0.0135102
-0.00156158
0.0017807
-0.0132927
0.0130854
-0.00159691
0.00180421
-0.0128908
0.0127105
-0.00159929
0.00177958
-0.0125444
0.0123881
-0.00158174
0.00173801
-0.0122389
0.0120865
-0.00155997
0.00171234
-0.0119258
0.0117505
-0.00153998
0.0017152
-0.0115624
0.0113641
-0.00151889
0.00171719
-0.0111611
0.0109594
-0.00149424
0.00169594
-0.0107648
0.010581
-0.0014757
0.00165951
-0.0104101
0.0102465
-0.00146614
0.00162971
-0.0100852
0.00991778
-0.00146202
0.00162948
-0.0097421
0.00955741
-0.00145553
0.00164021
-0.0093666
0.00917331
-0.00144231
0.00163561
-0.00898016
0.00878965
-0.00142283
0.00161334
-0.00860215
0.00841513
-0.00139447
0.00158148
-0.00822648
0.00803326
-0.00136405
0.00155727
-0.00783581
0.00763745
-0.00134623
0.00154459
-0.00744301
0.00725667
-0.00134088
0.00152722
-0.00707991
0.0069092
-0.00132749
0.0014982
-0.00674098
0.006569
-0.00129646
0.00146844
-0.00639172
0.00620931
-0.00126734
0.00144975
-0.00602645
0.00584622
-0.00126342
0.00144365
-0.00567218
0.00550352
-0.00127325
0.00144191
-0.00533932
0.00517522
-0.00126486
0.00142896
-0.00500971
0.00484073
-0.00123349
0.00140247
-0.0046696
0.00449704
-0.00120697
0.00137954
-0.0043261
0.00415732
-0.00120378
0.00137256
-0.00399196
0.00382823
-0.00121026
0.00137399
-0.00366584
0.00350262
-0.00120327
0.00136649
-0.00333892
0.00317404
-0.00118129
0.00134617
-0.00300899
0.00284514
-0.00115689
0.00132075
-0.00268277
0.0025224
-0.00113611
0.00129648
-0.00236398
0.00220724
-0.00111631
0.00127306
-0.00205179
0.00189723
-0.00109854
0.0012531
-0.00174319
0.00158952
-0.00108923
0.0012429
-0.00143606
0.00128286
-0.00109113
0.00124434
-0.00113021
0.000979822
-0.0011048
0.00125519
-0.000833176
0.000684575
-0.00112901
0.00127761
0.0143618
-0.0155852
0.00122338
-0.0024619
0.00362954
0.0112808
-0.0124485
-0.00474139
0.00579362
0.0101377
-0.01119
-0.00678394
0.00772001
0.00899275
-0.00992882
-0.00859947
0.0094221
0.00786028
-0.00868291
-0.0101893
0.0109025
0.00676418
-0.0074774
-0.0115638
0.012173
0.00571826
-0.00632747
-0.0127346
0.0132491
0.00470773
-0.00522226
-0.0137189
0.0141444
0.00376662
-0.00419211
-0.0145263
0.0148636
0.00289069
-0.00322796
-0.0151575
0.0154098
0.00207213
-0.00232449
-0.0156225
0.0157952
0.00135148
-0.0015242
-0.0159289
0.0160256
0.00071385
-0.000810532
-0.0160877
0.0161185
0.000173214
-0.000203963
-0.0161193
0.0160936
-0.000268368
0.000294061
-0.0160437
0.0159718
-0.000636288
0.000708161
-0.0158795
0.0157694
-0.000935985
0.00104608
-0.0156431
0.0155011
-0.0011907
0.00133273
-0.0153444
0.0151772
-0.00141181
0.00157898
-0.0150025
0.0148268
-0.0015926
0.00176833
-0.0146496
0.0144757
-0.00175252
0.00192646
-0.014304
0.0141365
-0.00188564
0.00205305
-0.0139726
0.0138098
-0.00197072
0.00213356
-0.0136461
0.0134803
-0.00198939
0.00215512
-0.0133114
0.0131364
-0.0019544
0.00212937
-0.0129562
0.0127744
-0.00190326
0.00208512
-0.0125938
0.0124171
-0.00187317
0.0020499
-0.0122445
0.0120748
-0.00188692
0.00205663
-0.0119058
0.0117343
-0.00190317
0.00207468
-0.0115585
0.0113753
-0.00189028
0.0020735
-0.0111861
0.0109937
-0.00184746
0.00203983
-0.0108032
0.0106162
-0.00180225
0.00198919
-0.0104347
0.0102574
-0.00179893
0.00197624
-0.0100836
0.0099104
-0.00181823
0.00199138
-0.00973609
0.0095568
-0.00182361
0.0020029
-0.00937014
0.00917545
-0.00180678
0.00200147
-0.0089756
0.00877189
-0.00177724
0.00198095
-0.00856728
0.00836288
-0.00175761
0.00196201
-0.0081605
0.00796057
-0.00174649
0.00194642
-0.0077662
0.00757779
-0.00171604
0.00190445
-0.00739595
0.00721686
-0.00167286
0.00185196
-0.00703806
0.00685451
-0.00164673
0.00183028
-0.00666654
0.00647508
-0.00163823
0.00182969
-0.00628449
0.00609819
-0.00162842
0.00181472
-0.00591928
0.00574693
-0.00161282
0.00178518
-0.00557885
0.0054106
-0.00159418
0.00176243
-0.00523978
0.00506382
-0.00157442
0.00175038
-0.00488393
0.00470184
-0.00155658
0.00173867
-0.00452113
0.00434305
-0.00154547
0.00172354
-0.00416926
0.00399858
-0.00154033
0.001711
-0.00382989
0.00366098
-0.00153164
0.00170056
-0.00349122
0.00332035
-0.00151412
0.00168499
-0.00314908
0.00297787
-0.0014887