/*--------------------------------*- C++ -*----------------------------------*\
| =========                 |                                                 |
| \\      /  F ield         | OpenFOAM: The Open Source CFD Toolbox           |
|  \\    /   O peration     | Version:  v1912                                 |
|   \\  /    A nd           | Website:  www.openfoam.com                      |
|    \\/     M anipulation  |                                                 |
\*---------------------------------------------------------------------------*/
FoamFile
{
    version     2.0;
    format      ascii;
    class       volVectorField;
    location    "2";
    object      U;
}
// * * * * * * * * * * * * * * * * * * * * * * * * * * * * * * * * * * * * * //

dimensions      [0 1 -1 0 0 0 0];


internalField   nonuniform List<vector> 
20320
(
(2.95858 0.00347884 0)
(2.95562 -0.00225286 0)
(2.89835 0.00270432 0)
(2.87869 0.0394063 0)
(2.75438 0.0442475 0)
(2.66732 0.0650675 0)
(2.45536 0.12789 0)
(2.20385 0.156033 0)
(1.92785 0.152275 0)
(1.66543 0.14159 0)
(1.42372 0.131396 0)
(1.20625 0.121141 0)
(1.0124 0.109804 0)
(0.839815 0.0982678 0)
(0.6852 0.0883593 0)
(0.545362 0.0804864 0)
(0.417282 0.074424 0)
(0.297988 0.0701353 0)
(0.184542 0.0677743 0)
(0.0734625 0.0645794 0)
(2.95743 0.0052474 0)
(2.95218 0.0259123 0)
(2.89895 0.0925552 0)
(2.82139 0.214765 0)
(2.68231 0.350201 0)
(2.50498 0.497255 0)
(2.31473 0.631662 0)
(2.11975 0.717168 0)
(1.90905 0.747908 0)
(1.68144 0.733494 0)
(1.44225 0.68411 0)
(1.20057 0.608094 0)
(0.97345 0.519956 0)
(0.783325 0.446178 0)
(0.632208 0.402467 0)
(0.503251 0.37215 0)
(0.385737 0.343893 0)
(0.276568 0.321887 0)
(0.173421 0.307272 0)
(0.0757491 0.296615 0)
(2.93845 0.0627276 0)
(2.86902 0.143436 0)
(2.75748 0.326774 0)
(2.62271 0.517841 0)
(2.47463 0.700471 0)
(2.3193 0.864831 0)
(2.16177 1.00064 0)
(2.00229 1.09806 0)
(1.83756 1.15308 0)
(1.66475 1.1676 0)
(1.48301 1.1466 0)
(1.29278 1.09568 0)
(1.09468 1.02004 0)
(0.889757 0.922811 0)
(0.680744 0.802399 0)
(0.475754 0.666134 0)
(0.320495 0.566584 0)
(0.22203 0.53113 0)
(0.138157 0.509166 0)
(0.0591623 0.494981 0)
(2.92081 0.245721 0)
(2.80853 0.381835 0)
(2.67709 0.61047 0)
(2.53418 0.824888 0)
(2.38659 1.01891 0)
(2.23775 1.18687 0)
(2.08913 1.32355 0)
(1.9404 1.42495 0)
(1.78996 1.48923 0)
(1.63599 1.51696 0)
(1.47716 1.51059 0)
(1.31288 1.47354 0)
(1.14326 1.40948 0)
(0.968816 1.32188 0)
(0.790324 1.21394 0)
(0.608662 1.08866 0)
(0.424879 0.948599 0)
(0.244994 0.792011 0)
(0.0987786 0.66038 0)
(0.0346016 0.631255 0)
(2.91424 0.467843 0)
(2.7885 0.643902 0)
(2.65236 0.898264 0)
(2.50888 1.12398 0)
(2.36272 1.32132 0)
(2.2163 1.4887 0)
(2.07052 1.6241 0)
(1.92517 1.72593 0)
(1.77931 1.79357 0)
(1.63172 1.82756 0)
(1.48129 1.8295 0)
(1.32723 1.80169 0)
(1.16919 1.74679 0)
(1.00722 1.66742 0)
(0.841799 1.56595 0)
(0.673798 1.44426 0)
(0.504656 1.30361 0)
(0.336734 1.14466 0)
(0.174682 0.967183 0)
(0.0337236 0.764487 0)
(2.91219 0.694789 0)
(2.78426 0.901936 0)
(2.65058 1.17352 0)
(2.51124 1.4073 0)
(2.36938 1.60719 0)
(2.22676 1.77436 0)
(2.08408 1.90893 0)
(1.94129 2.01086 0)
(1.79781 2.0804 0)
(1.65282 2.11831 0)
(1.50546 2.12593 0)
(1.35504 2.105 0)
(1.20113 2.05743 0)
(1.04367 1.9851 0)
(0.88304 1.88953 0)
(0.720118 1.77154 0)
(0.556469 1.6308 0)
(0.394443 1.46482 0)
(0.236836 1.2669 0)
(0.0946347 1.01482 0)
(2.91241 0.912515 0)
(2.78728 1.14466 0)
(2.65978 1.42861 0)
(2.52762 1.66933 0)
(2.39274 1.8726 0)
(2.25624 2.04128 0)
(2.11857 2.17687 0)
(1.9797 2.28033 0)
(1.83923 2.35254 0)
(1.69657 2.39454 0)
(1.55108 2.40757 0)
(1.40224 2.393 0)
(1.24971 2.3522 0)
(1.09353 2.28626 0)
(0.934121 2.19581 0)
(0.772347 2.08062 0)
(0.609378 1.93942 0)
(0.446124 1.76976 0)
(0.282572 1.56725 0)
(0.124938 1.30562 0)
(2.91412 1.11407 0)
(2.79461 1.36675 0)
(2.67579 1.65968 0)
(2.55303 1.90665 0)
(2.42729 2.11431 0)
(2.29905 2.28641 0)
(2.16842 2.42523 0)
(2.03529 2.53235 0)
(1.89929 2.60906 0)
(1.75996 2.65657 0)
(1.61676 2.6761 0)
(1.46925 2.66876 0)
(1.31712 2.63546 0)
(1.16032 2.5767 0)
(0.999073 2.49242 0)
(0.833791 2.38201 0)
(0.66488 2.24438 0)
(0.492318 2.07835 0)
(0.315812 1.88093 0)
(0.141992 1.62216 0)
(2.91696 1.2956 0)
(2.80495 1.56522 0)
(2.69673 1.86455 0)
(2.58505 2.1173 0)
(2.47006 2.3303 0)
(2.35167 2.50762 0)
(2.2297 2.65185 0)
(2.1039 2.76488 0)
(1.9739 2.84824 0)
(1.83922 2.90328 0)
(1.69934 2.93123 0)
(1.55371 2.93307 0)
(1.40185 2.90943 0)
(1.24343 2.86046 0)
(1.07823 2.78578 0)
(0.906159 2.68463 0)
(0.72715 2.55619 0)
(0.541132 2.39961 0)
(0.348465 2.21137 0)
(0.157106 1.95903 0)
(2.92068 1.45516 0)
(2.8174 1.73847 0)
(2.72107 2.04232 0)
(2.6214 2.30069 0)
(2.51796 2.52003 0)
(2.41018 2.70418 0)
(2.29775 2.85571 0)
(2.18036 2.97662 0)
(2.05761 3.06859 0)
(1.92896 3.1332 0)
(1.79375 3.17176 0)
(1.65118 3.18532 0)
(1.50042 3.17444 0)
(1.34062 3.1391 0)
(1.17105 3.07875 0)
(0.991058 2.99242 0)
(0.800268 2.879 0)
(0.598705 2.73703 0)
(0.387231 2.56155 0)
(0.175173 2.31851 0)
(2.92502 1.59236 0)
(2.83097 1.88629 0)
(2.74686 2.19364 0)
(2.65898 2.45804 0)
(2.56652 2.68481 0)
(2.46887 2.8771 0)
(2.36584 3.03723 0)
(2.25725 3.16723 0)
(2.1427 3.26912 0)
(2.02151 3.34478 0)
(1.8927 3.39588 0)
(1.75507 3.42369 0)
(1.60723 3.42888 0)
(1.44772 3.41147 0)
(1.27508 3.37072 0)
(1.08801 3.30531 0)
(0.885615 3.21337 0)
(0.667688 3.09218 0)
(0.435108 2.93496 0)
(0.198423 2.70631 0)
(2.92971 1.70827 0)
(2.84448 2.01019 0)
(2.77144 2.32139 0)
(2.6931 2.59311 0)
(2.60901 2.82848 0)
(2.51928 3.02949 0)
(2.42435 3.19825 0)
(2.32435 3.33721 0)
(2.21882 3.44904 0)
(2.1067 3.53626 0)
(1.98649 3.60108 0)
(1.85635 3.64516 0)
(1.71422 3.66945 0)
(1.55787 3.67409 0)
(1.38501 3.65827 0)
(1.19344 3.62024 0)
(0.981336 3.55719 0)
(0.747701 3.46478 0)
(0.492688 3.33419 0)
(0.227643 3.12886 0)
(2.93478 1.80502 0)
(2.85665 2.11382 0)
(2.79097 2.43179 0)
(2.71656 2.71341 0)
(2.63527 2.95799 0)
(2.54933 3.16645 0)
(2.46043 3.34161 0)
(2.36884 3.48728 0)
(2.27355 3.60741 0)
(2.17264 3.70551 0)
(2.0637 3.78439 0)
(1.94405 3.84611 0)
(1.8109 3.89189 0)
(1.6613 3.9221 0)
(1.49213 3.93608 0)
(1.3001 3.93185 0)
(1.08205 3.90584 0)
(0.835391 3.85213 0)
(0.55854 3.75977 0)
(0.262762 3.59161 0)
(2.9414 1.88413 0)
(2.86636 2.20404 0)
(2.79912 2.53679 0)
(2.71735 2.8317 0)
(2.62982 3.08331 0)
(2.5427 3.29388 0)
(2.45853 3.4695 0)
(2.37656 3.61701 0)
(2.29406 3.74229 0)
(2.20736 3.84985 0)
(2.11266 3.94278 0)
(2.00635 4.02314 0)
(1.88509 4.09221 0)
(1.74553 4.15057 0)
(1.58406 4.19804 0)
(1.39646 4.23307 0)
(1.17794 4.25205 0)
(0.92353 4.2481 0)
(0.628546 4.20854 0)
(0.302531 4.09692 0)
(2.95328 1.94069 0)
(2.87161 2.29532 0)
(2.78138 2.659 0)
(2.67307 2.96653 0)
(2.5696 3.21457 0)
(2.47962 3.41466 0)
(2.40305 3.58042 0)
(2.33532 3.72299 0)
(2.27021 3.85005 0)
(2.20149 3.96624 0)
(2.12366 4.07399 0)
(2.03236 4.17447 0)
(1.92413 4.26836 0)
(1.79596 4.35634 0)
(1.64458 4.43902 0)
(1.46562 4.51636 0)
(1.25296 4.5862 0)
(0.998771 4.64229 0)
(0.693832 4.67168 0)
(0.343375 4.64126 0)
(2.96809 1.94511 0)
(2.85572 2.42737 0)
(2.69475 2.83708 0)
(2.54217 3.13464 0)
(2.42581 3.35202 0)
(2.34343 3.52176 0)
(2.28523 3.66596 0)
(2.24032 3.79823 0)
(2.19849 3.92607 0)
(2.151 4.0526 0)
(2.09104 4.17811 0)
(2.0139 4.30168 0)
(1.9166 4.42251 0)
(1.79728 4.54076 0)
(1.65424 4.65799 0)
(1.48455 4.77672 0)
(1.28225 4.8985 0)
(1.03743 5.02049 0)
(0.736112 5.13249 0)
(0.376366 5.21061 0)
(2.50196 2.13886 0)
(2.69267 2.72233 0)
(2.42761 3.09822 0)
(2.27307 3.3158 0)
(2.18552 3.46757 0)
(2.13815 3.59338 0)
(2.11377 3.7123 0)
(2.09958 3.83537 0)
(2.08423 3.96782 0)
(2.05804 4.10996 0)
(2.01375 4.25889 0)
(1.94674 4.41065 0)
(1.85455 4.56212 0)
(1.73637 4.71196 0)
(1.59279 4.86164 0)
(1.42456 5.01644 0)
(1.22916 5.18396 0)
(0.997993 5.36793 0)
(0.716647 5.56442 0)
(0.377676 5.77068 0)
(-0.704463 2.51274 0)
(1.91237 3.02581 0)
(1.91527 3.25757 0)
(1.9093 3.39927 0)
(1.90579 3.50805 0)
(1.90953 3.60828 0)
(1.92022 3.71336 0)
(1.93304 3.83532 0)
(1.93871 3.97967 0)
(1.92783 4.14458 0)
(1.89301 4.32376 0)
(1.82998 4.50999 0)
(1.73586 4.69837 0)
(1.60803 4.88559 0)
(1.44668 5.06989 0)
(1.25678 5.25526 0)
(1.04519 5.45423 0)
(0.813444 5.68072 0)
(0.558241 5.93417 0)
(0.290981 6.24555 0)
(-0.0125938 2.58492 0)
(1.10839 2.60627 0)
(1.61554 3.21418 0)
(1.68733 3.37756 0)
(1.71165 3.48874 0)
(1.7264 3.58849 0)
(1.74252 3.68961 0)
(1.76054 3.81565 0)
(1.77023 3.97688 0)
(1.76218 4.17007 0)
(1.72785 4.38492 0)
(1.66457 4.61006 0)
(1.56779 4.84173 0)
(1.42709 5.0755 0)
(1.2305 5.30624 0)
(0.967738 5.53054 0)
(0.661471 5.75642 0)
(0.374996 6.00227 0)
(0.128905 6.23586 0)
(-0.0255308 6.49801 0)
(0.185238 1.46056 0)
(0.241196 1.42125 0)
(0.624569 2.50906 0)
(1.14732 3.14255 0)
(1.55089 3.46785 0)
(1.59724 3.58091 0)
(1.58965 3.67847 0)
(1.58606 3.80766 0)
(1.5769 3.97972 0)
(1.55648 4.19144 0)
(1.51344 4.42816 0)
(1.44843 4.67079 0)
(1.34624 4.92198 0)
(1.17927 5.19866 0)
(0.964565 5.4952 0)
(0.655219 5.79551 0)
(0.242085 6.0159 0)
(-0.31882 6.21801 0)
(-0.481591 6.41585 0)
(-0.519368 6.36766 0)
(0.00513418 -0.00432476 0)
(0.0135894 -0.00126852 0)
(0.0215503 -0.00100885 0)
(0.0284709 -0.000898377 -3.9047e-23)
(0.0345259 -0.000774077 0)
(0.0397357 -0.000659497 0)
(0.0441381 -0.00054745 0)
(0.047735 -0.000431764 0)
(0.050586 -0.000333864 0)
(0.0527917 -0.000246469 -9.2081e-23)
(0.0543748 -0.000155419 0)
(0.0553727 -8.14765e-05 0)
(0.0558791 -1.31898e-05 1.28773e-22)
(0.0559062 4.63894e-05 1.40848e-22)
(0.055566 8.27958e-05 0)
(0.0549037 0.000119425 -1.62721e-22)
(0.0539966 0.000142678 1.72231e-22)
(0.0528857 0.000158422 -3.60824e-22)
(0.0516351 0.000174519 0)
(0.0503119 0.000182186 -1.91232e-22)
(0.0490107 0.000178953 1.94231e-22)
(0.0477235 0.000185463 3.90532e-22)
(0.0464205 0.000188551 -1.95094e-22)
(0.0450705 0.000195543 1.93207e-22)
(0.0436261 0.000196221 0)
(0.0421204 0.000198694 1.85934e-22)
(0.0405482 0.000206822 0)
(0.0389972 0.00020503 -1.74199e-22)
(0.0374649 0.000218074 -3.34996e-22)
(0.0359126 0.00022168 0)
(0.0343819 0.000215285 -1.54039e-22)
(0.0328496 0.000214441 1.47586e-22)
(0.0313589 0.000201727 -7.08657e-23)
(0.0299568 0.000189731 6.79667e-23)
(0.0286199 0.000179369 0)
(0.0273685 0.000162658 0)
(0.0261898 0.000152019 6.03938e-23)
(0.0250523 0.000145997 0)
(0.0239532 0.000142301 -5.55158e-23)
(0.0228608 0.000146304 0)
(0.0217499 0.000146635 0)
(0.0206602 0.000137342 -4.81943e-23)
(0.0195998 0.000136697 0)
(0.0185135 0.00014909 0)
(0.0173919 0.000151453 4.07608e-23)
(0.0162978 0.000139852 3.82073e-23)
(0.015262 0.000130019 0)
(0.0142469 0.000132054 -1.65333e-23)
(0.0132114 0.000139688 1.52267e-23)
(0.0121507 0.000144302 -1.39251e-23)
(0.0110902 0.000142653 0)
(0.0100544 0.000137951 1.13479e-23)
(0.00905037 0.000133092 0)
(0.00807746 0.000128309 -4.38699e-24)
(0.00713027 0.000125583 0)
(0.00619672 0.000124121 0)
(0.00526768 0.000124155 2.61366e-28)
(0.00433368 0.000126435 -2.10481e-28)
(0.0034031 0.000131743 0)
(0.00258294 0.000164328 0)
(0.00729183 -0.009451 0)
(0.0140857 -0.00570829 0)
(0.0217485 -0.00489451 3.20723e-23)
(0.0285656 -0.00431995 0)
(0.0345031 -0.00375709 0)
(0.0396116 -0.00321992 -9.72717e-23)
(0.0439301 -0.00270274 1.19657e-22)
(0.0475089 -0.00220327 0)
(0.0504186 -0.00176058 -1.82649e-25)
(0.052734 -0.00136542 -9.32594e-23)
(0.0545041 -0.000985484 -1.73612e-25)
(0.0557795 -0.000645293 -2.27358e-22)
(0.0565873 -0.000327202 1.23487e-22)
(0.0569471 -3.45536e-05 0)
(0.0568973 0.000216185 0)
(0.0564541 0.000441487 1.50128e-22)
(0.0556646 0.000626839 0)
(0.0545866 0.000778995 0)
(0.0533098 0.000867597 2.316e-25)
(0.0519669 0.000880763 0)
(0.0506757 0.000840154 0)
(0.0494439 0.000822996 0)
(0.0482036 0.000843069 -1.82311e-22)
(0.0468532 0.00092118 1.81215e-22)
(0.045322 0.0010147 -1.78805e-22)
(0.0436334 0.00108007 -1.75194e-22)
(0.0419125 0.00108186 0)
(0.0403216 0.00100674 0)
(0.0389003 0.000960509 -1.60818e-22)
(0.0375627 0.000951735 -1.20375e-25)
(0.0361777 0.000974472 0)
(0.0347079 0.000992678 1.13136e-25)
(0.0332531 0.000947393 1.38788e-22)
(0.0318898 0.00089024 0)
(0.0306001 0.000852434 0)
(0.0293188 0.000826494 1.2385e-22)
(0.0280218 0.00081123 0)
(0.0267612 0.000780964 0)
(0.0255689 0.000753184 0)
(0.0243869 0.000762875 5.2577e-23)
(0.0231657 0.000775068 5.01828e-23)
(0.0219409 0.000752596 -9.5405e-23)
(0.0207665 0.000732628 4.52655e-23)
(0.0196252 0.000744222 0)
(0.0184653 0.000755577 -4.0345e-23)
(0.0172827 0.000735732 0)
(0.0161202 0.000707494 3.52808e-23)
(0.014999 0.000698579 -1.63764e-23)
(0.0138953 0.000707615 -1.51023e-23)
(0.0127855 0.000714646 1.38198e-23)
(0.0116775 0.000705879 -1.25448e-23)
(0.0105919 0.000686358 -1.12825e-23)
(0.00953663 0.000666381 2.00369e-23)
(0.00850461 0.000650437 0)
(0.00748858 0.000638786 0)
(0.00648667 0.000631035 0)
(0.00549485 0.00062779 0)
(0.00450422 0.000632597 -8.56987e-25)
(0.00351473 0.000651526 7.50753e-25)
(0.00258477 0.000717751 0)
(0.00978596 -0.0143262 0)
(0.0158831 -0.0099607 3.78993e-23)
(0.0232146 -0.00882804 0)
(0.0298122 -0.00778797 8.07737e-23)
(0.0355525 -0.00677118 1.03905e-22)
(0.0404794 -0.00580085 1.26507e-22)
(0.0446281 -0.00487671 0)
(0.0480408 -0.00399598 1.70352e-22)
(0.0507854 -0.00320724 0)
(0.0529297 -0.00250328 0)
(0.0545034 -0.00184281 0)
(0.0555865 -0.00125029 0)
(0.0562267 -0.000695316 0)
(0.0564693 -0.00018246 0)
(0.0563654 0.000272005 0)
(0.0559549 0.000687187 0)
(0.0552872 0.00103345 0)
(0.0544156 0.00131407 1.6205e-22)
(0.0533824 0.0014947 0)
(0.0522372 0.00154559 0)
(0.0510059 0.00150433 0)
(0.0496736 0.00149102 0)
(0.0482358 0.00154059 0)
(0.0467092 0.00167212 0)
(0.0451432 0.00183006 0)
(0.0435802 0.00193136 0)
(0.0420785 0.0019113 0)
(0.0406604 0.00176768 0)
(0.0393058 0.00165132 -1.5819e-22)
(0.0379895 0.00162925 0)
(0.0366555 0.00168935 1.4928e-22)
(0.0352954 0.00173778 0)
(0.0339418 0.00167981 0)
(0.0326125 0.00158548 0)
(0.0313034 0.00153272 0)
(0.029981 0.00151779 0)
(0.028657 0.00149962 6.01694e-23)
(0.0273802 0.00143817 0)
(0.0261468 0.00138587 0)
(0.0249071 0.00140541 0)
(0.0236465 0.00143201 -5.04914e-23)
(0.0224064 0.00139223 4.79794e-23)
(0.0212229 0.0013383 -4.54713e-23)
(0.0200717 0.00134142 0)
(0.0188983 0.00137205 -4.04466e-23)
(0.0176941 0.00135975 0)
(0.016507 0.00131029 0)
(0.0153697 0.00127882 0)
(0.0142563 0.00128542 0)
(0.0131315 0.00129857 1.38441e-23)
(0.0120006 0.0012861 0)
(0.0108882 0.0012522 2.2612e-23)
(0.00980229 0.00121884 0)
(0.00873445 0.00119525 0)
(0.00768111 0.00117591 3.72289e-24)
(0.00664566 0.00115898 -3.06181e-24)
(0.00562433 0.00115058 4.78983e-24)
(0.00460665 0.00115653 -8.62214e-25)
(0.00359293 0.0011803 0)
(0.00268967 0.00125329 -6.90445e-26)
(0.0124256 -0.0194538 0)
(0.0182996 -0.0143368 0)
(0.0254006 -0.0128499 0)
(0.0317107 -0.0113651 0)
(0.0372248 -0.00989654 -1.21394e-22)
(0.0419717 -0.00848784 0)
(0.0459775 -0.0071446 0)
(0.0492556 -0.0058567 -4.99635e-25)
(0.0518424 -0.00468702 0)
(0.0537788 -0.00362979 5.40175e-25)
(0.0550778 -0.00264422 2.44856e-22)
(0.0558415 -0.00177461 0)
(0.0561516 -0.000984715 0)
(0.0561096 -0.00027272 -2.83973e-25)
(0.0558159 0.000340607 2.82151e-25)
(0.0553513 0.000882543 -2.78793e-25)
(0.0547746 0.00133127 1.57913e-22)
(0.0541157 0.00169967 0)
(0.0533551 0.00197278 -1.65242e-22)
(0.0524288 0.00213137 0)
(0.051238 0.00220769 -2.39754e-25)
(0.049746 0.00229108 2.24542e-25)
(0.0480584 0.00239287 -2.07452e-25)
(0.0463589 0.00250929 -1.7115e-22)
(0.0448368 0.00261146 1.68988e-22)
(0.0435447 0.00266054 0)
(0.0423942 0.00262392 0)
(0.0411854 0.00250599 -1.35953e-25)
(0.0398162 0.00239834 1.25398e-25)
(0.0383888 0.00235628 0)
(0.037034 0.00238501 -1.49838e-22)
(0.0358139 0.00241984 0)
(0.0346257 0.00238499 0)
(0.0333384 0.00231411 0)
(0.0319706 0.00226689 2.63206e-22)
(0.0306065 0.00224639 0)
(0.0293005 0.00220984 0)
(0.0280235 0.00213659 5.85063e-23)
(0.0267093 0.00208384 -1.12087e-22)
(0.0253829 0.00209849 5.35572e-23)
(0.02412 0.00211164 1.0206e-22)
(0.0229173 0.00205402 0)
(0.0217163 0.00198138 9.18548e-23)
(0.0205026 0.00197808 0)
(0.0192975 0.00201682 4.07625e-23)
(0.0181091 0.00200864 -3.81858e-23)
(0.0169327 0.00194349 0)
(0.0157698 0.00189186 -1.65095e-23)
(0.0146197 0.00189372 0)
(0.0134757 0.00191257 1.39454e-23)
(0.012334 0.00189922 1.26656e-23)
(0.0111988 0.00185559 -1.13882e-23)
(0.0100755 0.00181173 1.00975e-23)
(0.00896855 0.00177977 8.80844e-24)
(0.00788172 0.00175051 0)
(0.0068158 0.00172277 -3.08329e-24)
(0.00576377 0.00170825 -2.41256e-24)
(0.00471454 0.00171394 8.55935e-25)
(0.00366976 0.00174039 0)
(0.00270408 0.00178362 0)
(0.0146609 -0.0244741 1.8362e-23)
(0.0203545 -0.0187519 -5.36088e-23)
(0.0272005 -0.0168449 0)
(0.0332175 -0.0149311 1.08107e-22)
(0.038471 -0.0130337 -1.32562e-22)
(0.0429914 -0.0112013 0)
(0.0468104 -0.00944993 0)
(0.0499448 -0.00775788 -5.57725e-25)
(0.0524337 -0.00619104 5.75382e-25)
(0.0542876 -0.00474972 -2.35663e-22)
(0.0555095 -0.00340675 -2.52885e-22)
(0.0562007 -0.0022299 6.01951e-25)
(0.0564173 -0.00118924 1.41389e-22)
(0.0562808 -0.000293061 0)
(0.0559081 0.000447908 2.94901e-25)
(0.055374 0.00107382 3.12985e-22)
(0.0547315 0.00158342 0)
(0.0539944 0.00201062 1.62695e-22)
(0.0531308 0.00237294 1.65077e-22)
(0.0521111 0.00266592 0)
(0.0508692 0.00291573 -1.68124e-22)
(0.0493987 0.00313822 -1.97957e-25)
(0.0478173 0.00329264 0)
(0.046274 0.00334802 0)
(0.0449164 0.0033196 -1.66503e-22)
(0.043766 0.0032569 1.46436e-25)
(0.0427282 0.00321075 0)
(0.0416008 0.00319788 0)
(0.0402811 0.00318114 1.12999e-25)
(0.038866 0.0031336 0)
(0.0375097 0.00307566 3.01524e-22)
(0.0363142 0.00303594 -8.26304e-26)
(0.0351773 0.00303438 -1.42476e-22)
(0.0339392 0.00304125 2.76046e-22)
(0.0326015 0.0030237 -2.66603e-22)
(0.0312523 0.00297997 -2.56732e-22)
(0.0299417 0.00291887 0)
(0.0286208 0.00286538 -1.68518e-26)
(0.0272343 0.00283653 0)
(0.0258678 0.00281503 -5.4089e-23)
(0.024628 0.00277368 -5.15582e-23)
(0.0234503 0.00271279 -4.90022e-23)
(0.0222074 0.00266465 -4.64064e-23)
(0.0209182 0.00265526 4.37608e-23)
(0.0196887 0.00266468 -4.1138e-23)
(0.018532 0.00264424 -3.85357e-23)
(0.0173724 0.00258634 7.18287e-23)
(0.0161701 0.00253667 -1.10024e-26)
(0.0149644 0.00252694 -1.53409e-23)
(0.0137962 0.00253564 1.40526e-23)
(0.0126512 0.00252162 -1.27724e-23)
(0.0114993 0.00247965 0)
(0.0103413 0.00243071 -1.01708e-23)
(0.0091993 0.0023866 8.86208e-24)
(0.00808451 0.00234423 0)
(0.00699011 0.00230702 -3.10979e-24)
(0.00590476 0.00228777 -2.42372e-24)
(0.00482309 0.0022914 -3.08316e-27)
(0.00375878 0.00231541 0)
(0.00282757 0.00237044 1.52323e-25)
(0.0168655 -0.0291916 1.89226e-23)
(0.0220914 -0.0231916 0)
(0.028631 -0.0208424 -4.86064e-25)
(0.0343504 -0.0184902 0)
(0.0393105 -0.0161659 0)
(0.0435534 -0.0139164 1.61827e-22)
(0.0471338 -0.011769 0)
(0.0500827 -0.00970158 -2.03131e-22)
(0.052479 -0.00777307 2.21736e-22)
(0.0543416 -0.00597219 -4.79085e-22)
(0.0556661 -0.00428693 2.5576e-22)
(0.0565232 -0.0027994 2.71847e-22)
(0.0569172 -0.0014796 -5.71607e-22)
(0.0569095 -0.000361942 -1.49419e-22)
(0.056566 0.000550762 0)
(0.0559363 0.00131016 -3.17911e-22)
(0.055073 0.00192937 0)
(0.0540101 0.00245647 0)
(0.0527705 0.0029134 -3.30949e-22)
(0.0514445 0.00327926 0)
(0.0501225 0.0035969 0)
(0.04886 0.00385836 1.66036e-22)
(0.0476844 0.00402368 3.3163e-22)
(0.0465541 0.00406012 0)
(0.0454136 0.00399291 1.65224e-22)
(0.0442089 0.0038922 0)
(0.0429886 0.00382747 -1.62757e-22)
(0.041796 0.00385338 0)
(0.0406242 0.0038934 -3.16565e-22)
(0.0394187 0.00387905 0)
(0.038138 0.00379805 1.51961e-22)
(0.036848 0.00369947 -1.481e-22)
(0.0356019 0.00368567 0)
(0.0343974 0.00372456 1.39465e-22)
(0.0331941 0.00374211 -1.3476e-22)
(0.0319135 0.00372094 1.29809e-22)
(0.0305436 0.00366902 -3.02438e-26)
(0.0291394 0.00363307 -5.97721e-23)
(0.0277451 0.00360941 5.71695e-23)
(0.0264168 0.00353748 6.62749e-27)
(0.0251784 0.00344145 0)
(0.0239495 0.00339471 4.94604e-23)
(0.0226536 0.00338763 4.68477e-23)
(0.0213424 0.00336409 0)
(0.0201142 0.00331898 6.77813e-27)
(0.01896 0.0032783 3.88841e-23)
(0.0177854 0.00324731 -3.62411e-23)
(0.0165479 0.00321855 -3.3562e-23)
(0.0153018 0.0031927 3.09548e-23)
(0.0141044 0.0031754 1.41667e-23)
(0.0129426 0.00315703 -1.28631e-23)
(0.0117745 0.00312463 -1.15486e-23)
(0.0105946 0.00307554 1.02271e-23)
(0.00942807 0.00301697 0)
(0.00828751 0.00296012 -7.59656e-24)
(0.00716258 0.00291643 0)
(0.00604303 0.00289396 -2.42193e-24)
(0.00492906 0.00289277 0)
(0.00383088 0.00291063 0)
(0.00282736 0.0029378 0)
(0.0193146 -0.0339187 -1.85864e-23)
(0.0241488 -0.0276052 0)
(0.0303357 -0.0248294 0)
(0.0357323 -0.0220392 -1.14013e-22)
(0.0404012 -0.0192842 0)
(0.0443882 -0.0166229 0)
(0.0477505 -0.0140893 0)
(0.0505215 -0.0116665 0)
(0.0527874 -0.00941551 0)
(0.0545725 -0.00730187 0)
(0.0558955 -0.00531477 0)
(0.0568084 -0.00353408 2.7251e-22)
(0.0572795 -0.00191966 0)
(0.05732 -0.000523256 0)
(0.0569445 0.000641642 -3.11446e-22)
(0.056188 0.00161367 0)
(0.0551322 0.00240404 2.93389e-25)
(0.0538643 0.00305954 0)
(0.052467 0.00360548 -2.62719e-25)
(0.0510624 0.00398178 0)
(0.049769 0.00424069 0)
(0.0486567 0.00442593 1.654e-22)
(0.0477061 0.0045487 1.65272e-22)
(0.0468066 0.00461355 -1.65647e-22)
(0.0458008 0.00463628 1.65559e-22)
(0.0445935 0.00461767 0)
(0.0432869 0.00454476 1.17881e-25)
(0.0420455 0.00450247 1.13505e-25)
(0.0409501 0.00450061 0)
(0.0398962 0.00453004 1.56925e-22)
(0.0387196 0.00452936 0)
(0.0374069 0.00445039 1.49686e-22)
(0.0360789 0.00438726 5.55083e-26)
(0.0348595 0.00437023 1.40903e-22)
(0.0337123 0.00440049 0)
(0.0324695 0.00446368 -1.31107e-22)
(0.0310726 0.00447039 1.25946e-22)
(0.0296458 0.00442273 1.20655e-22)
(0.0282985 0.00436324 5.7683e-23)
(0.0270124 0.00426164 5.50552e-23)
(0.0257207 0.0041543 0)
(0.0243959 0.00412224 -4.98776e-23)
(0.0230708 0.0041259 -4.7257e-23)
(0.0217927 0.00407706 1.03777e-26)
(0.0205729 0.00398934 0)
(0.0193756 0.00393793 -3.92391e-23)
(0.0181527 0.00393303 3.65781e-23)
(0.0168959 0.00392368 -3.3898e-23)
(0.0156376 0.00388486 0)
(0.0144091 0.00384148 -1.42856e-23)
(0.0132111 0.00381323 0)
(0.0120227 0.00378656 0)
(0.010835 0.00373775 0)
(0.00965526 0.00366818 0)
(0.00848842 0.00360023 0)
(0.00732951 0.0035523 0)
(0.00617652 0.00352628 0)
(0.00503409 0.00351829 1.70074e-24)
(0.00391781 0.00352882 4.99273e-25)
(0.00294093 0.00356866 -1.37067e-25)
(0.0218073 -0.0388295 0)
(0.026441 -0.0320044 6.33358e-25)
(0.0322568 -0.0287857 -7.93148e-23)
(0.0373069 -0.0255742 -1.06973e-22)
(0.0416911 -0.0224073 0)
(0.0454559 -0.0193463 0)
(0.0486317 -0.0164321 0)
(0.0512426 -0.0136555 -1.99931e-22)
(0.0533476 -0.0110711 0)
(0.054935 -0.00864415 0)
(0.0560625 -0.00637238 0)
(0.0567993 -0.00430922 2.7234e-22)
(0.0571211 -0.00240721 0)
(0.0570647 -0.000724901 0)
(0.0566391 0.00072171 3.1247e-22)
(0.055862 0.00193309 0)
(0.0548308 0.00289684 0)
(0.0536525 0.00365875 0)
(0.0524369 0.0042564 1.66722e-22)
(0.0512483 0.00464158 1.66707e-22)
(0.0500887 0.00486497 0)
(0.0489558 0.00499249 1.66823e-22)
(0.0478776 0.00506852 1.67103e-22)
(0.0468587 0.00513543 1.67535e-22)
(0.0458503 0.00522596 1.67855e-22)
(0.0447939 0.00530002 0)
(0.0436703 0.00526027 0)
(0.0424995 0.00517511 0)
(0.0413423 0.00511234 0)
(0.0402269 0.00514026 0)
(0.039117 0.00520973 0)
(0.0379423 0.00519636 -1.51544e-22)
(0.0366827 0.00512518 0)
(0.0354008 0.00505439 0)
(0.0341339 0.00507146 1.37343e-22)
(0.0328528 0.00519462 1.32283e-22)
(0.0315345 0.00525839 -7.61302e-27)
(0.0302092 0.00519779 0)
(0.0289045 0.00510571 0)
(0.0275848 0.0050129 0)
(0.0262114 0.00492759 0)
(0.0248291 0.00488804 0)
(0.0235122 0.00486061 0)
(0.0222648 0.00478556 0)
(0.0210274 0.00468974 0)
(0.0197649 0.00464272 0)
(0.0184904 0.00464602 0)
(0.0172233 0.00464 0)
(0.0159621 0.00459646 0)
(0.0147042 0.0045403 -2.88544e-23)
(0.0134637 0.0044976 0)
(0.0122535 0.00446269 0)
(0.0110638 0.00441081 0)
(0.00987589 0.00433806 0)
(0.00868253 0.00426706 -7.64804e-24)
(0.00748914 0.00421546 0)
(0.0063054 0.00418319 0)
(0.00513723 0.00416657 0)
(0.00399031 0.00416806 0)
(0.0029487 0.00418415 1.75364e-26)
(0.0240197 -0.0436815 1.26454e-23)
(0.0284363 -0.0363966 0)
(0.0338727 -0.0327006 -1.37883e-22)
(0.0385733 -0.0290806 0)
(0.0426454 -0.0255271 0)
(0.0461451 -0.0220861 0)
(0.0490862 -0.0187942 1.69364e-22)
(0.0514827 -0.0156593 0)
(0.0533858 -0.0127255 -4.26344e-22)
(0.0547734 -0.00995607 0)
(0.0557064 -0.00738644 2.52435e-22)
(0.0562544 -0.00504749 -2.70658e-22)
(0.0564489 -0.00288769 0)
(0.0563629 -0.000965805 0)
(0.0560159 0.000722155 -6.22352e-22)
(0.0554111 0.00215143 3.2061e-22)
(0.0546047 0.00327708 -6.57203e-22)
(0.0536556 0.00413329 3.34315e-22)
(0.0526434 0.00477408 1.68759e-22)
(0.0516209 0.00519917 0)
(0.0505496 0.00547279 -1.69702e-22)
(0.0493874 0.00564332 1.70077e-22)
(0.048161 0.00571867 0)
(0.0469726 0.00574412 -1.71007e-22)
(0.0458941 0.00578706 0)
(0.0449395 0.00585821 1.7098e-22)
(0.0440052 0.0058745 -1.69912e-22)
(0.0429486 0.00585209 0)
(0.0417658 0.00580128 0)
(0.0405763 0.00578318 0)
(0.0394891 0.00582533 -1.57709e-22)
(0.0384407 0.00585598 -1.535e-22)
(0.0372781 0.00585825 2.97736e-22)
(0.0359415 0.0058295 0)
(0.0345223 0.005827 -1.38669e-22)
(0.03319 0.00591 2.66885e-22)
(0.0319864 0.00596987 1.28145e-22)
(0.0307855 0.0059339 -2.45489e-22)
(0.0294827 0.00587274 1.1733e-22)
(0.0280862 0.00581491 1.11956e-22)
(0.0266644 0.00573863 -5.3293e-23)
(0.0252935 0.00566411 1.99945e-26)
(0.0239968 0.00559546 4.79528e-23)
(0.0227289 0.00551156 4.53063e-23)
(0.0214365 0.00543043 4.26337e-23)
(0.0201218 0.00538883 -3.99226e-23)
(0.0188194 0.00538251 0)
(0.0175401 0.00536935 -3.45572e-23)
(0.0162623 0.00532812 4.00652e-26)
(0.0149773 0.00526932 0)
(0.0137088 0.00520983 0)
(0.0124805 0.00515415 0)
(0.0112817 0.00509462 0)
(0.0100809 0.0050264 1.81487e-23)
(0.00886363 0.0049601 0)
(0.00764089 0.00490478 0)
(0.00643085 0.00486345 4.81721e-24)
(0.00523935 0.0048373 1.67846e-24)
(0.00407415 0.00483189 4.83639e-25)
(0.00304623 0.00485734 1.14037e-25)
(0.0261405 -0.0482455 0)
(0.0301487 -0.0407767 0)
(0.0352585 -0.036596 0)
(0.0396455 -0.0325526 0)
(0.0433952 -0.0286075 0)
(0.0465686 -0.0247924 0)
(0.0491973 -0.0211297 0)
(0.0513202 -0.017643 0)
(0.0529762 -0.0143657 0)
(0.0541717 -0.0112689 0)
(0.0549943 -0.00840553 0)
(0.0554808 -0.00580096 0)
(0.0556687 -0.00341711 0)
(0.0556515 -0.00130425 0)
(0.0554556 0.000568141 0)
(0.055081 0.00218426 0)
(0.054536 0.00348782 0)
(0.0537908 0.00449236 0)
(0.0528756 0.0052293 0)
(0.0518672 0.00572269 0)
(0.0508005 0.00606118 0)
(0.0496839 0.00630171 0)
(0.0485234 0.00641718 0)
(0.0473552 0.00642014 0)
(0.0462277 0.0063892 0)
(0.0451918 0.00639743 0)
(0.044216 0.00643176 -1.7402e-22)
(0.0432235 0.00647914 0)
(0.0421722 0.00648508 0)
(0.0410732 0.00644487 0)
(0.0399837 0.00643535 0)
(0.0388817 0.00648516 0)
(0.0376884 0.00657918 0)
(0.0363663 0.00664571 0)
(0.0349654 0.00663948 0)
(0.0336455 0.00662291 0)
(0.032465 0.00663251 0)
(0.0312713 0.00665249 0)
(0.0299451 0.00667016 0)
(0.0285351 0.00664694 0)
(0.0271406 0.0065528 0)
(0.0258021 0.00643813 0)
(0.0244903 0.00635266 0)
(0.0231574 0.00628095 0)
(0.0218025 0.0062112 0)
(0.0204614 0.00616031 0)
(0.0191478 0.00613802 0)
(0.0178449 0.00612118 0)
(0.0165364 0.00608462 3.21361e-23)
(0.0152306 0.00602148 2.93661e-23)
(0.0139517 0.00594235 0)
(0.0127099 0.0058639 0)
(0.0114899 0.00579595 0)
(0.0102661 0.00573501 0)
(0.00902785 0.00567591 7.71901e-24)
(0.00778479 0.00561735 -3.1235e-24)
(0.0065534 0.00556583 2.39071e-24)
(0.00533891 0.00553023 0)
(0.00414457 0.00551759 4.41521e-25)
(0.00306309 0.00552553 0)
(0.0285089 -0.0527829 -1.18559e-23)
(0.0321405 -0.0451433 0)
(0.0369101 -0.04049 1.05638e-22)
(0.0409856 -0.0360072 -7.62727e-23)
(0.044452 -0.0316555 0)
(0.0473504 -0.0274511 0)
(0.0497021 -0.0234166 0)
(0.0515672 -0.0195871 -1.71944e-22)
(0.0529779 -0.0159718 -1.96347e-22)
(0.0539621 -0.0125778 0)
(0.0546352 -0.00945389 2.40281e-22)
(0.055021 -0.00659723 0)
(0.0551485 -0.00400386 0)
(0.0551025 -0.00172004 -2.95298e-22)
(0.0549138 0.00030401 -3.10049e-22)
(0.0546062 0.00207082 3.21388e-22)
(0.0542023 0.00354001 -6.43509e-25)
(0.0536446 0.00473226 0)
(0.0528921 0.00562959 3.50596e-22)
(0.0519821 0.00623275 -3.56879e-22)
(0.0509719 0.00662645 4.89383e-25)
(0.0499319 0.00690113 3.64377e-22)
(0.0488855 0.00705447 -1.8291e-22)
(0.047818 0.00708726 -1.82763e-22)
(0.0467039 0.00705552 0)
(0.0455767 0.00702432 1.22587e-25)
(0.0445046 0.00701877 -1.7865e-22)
(0.0435314 0.00704313 0)
(0.0426198 0.00707241 -1.72256e-22)
(0.0416358 0.00707839 -1.68101e-22)
(0.0405085 0.00710449 1.63326e-22)
(0.0392561 0.00718777 -1.58218e-22)
(0.0379737 0.00730623 0)
(0.0367364 0.00740703 0)
(0.0354972 0.00741989 0)
(0.0342258 0.00736082 0)
(0.032945 0.00734061 -1.30419e-22)
(0.0316371 0.00739839 1.24874e-22)
(0.0303029 0.00746393 -4.64178e-26)
(0.0289783 0.00745501 1.13787e-22)
(0.027658 0.00735367 1.08234e-22)
(0.026314 0.00723113 0)
(0.0249397 0.00715317 -4.86052e-23)
(0.0235437 0.00709701 0)
(0.0221533 0.00702196 0)
(0.0207958 0.00694973 0)
(0.0194635 0.0069154 0)
(0.0181293 0.00690236 0)
(0.0167913 0.00686625 0)
(0.0154749 0.00678983 -2.96259e-23)
(0.0141933 0.0066901 0)
(0.0129359 0.00659538 -1.19763e-23)
(0.0116858 0.00652257 -1.05784e-23)
(0.010433 0.00646618 9.15821e-24)
(0.00917596 0.00641098 7.70682e-24)
(0.0079198 0.0063493 0)
(0.00667163 0.00628954 2.37856e-24)
(0.00543462 0.00624623 1.64481e-24)
(0.00421949 0.00622851 0)
(0.0031405 0.00624201 4.60563e-26)
(0.0310422 -0.0575991 9.76733e-24)
(0.0344877 -0.0494898 0)
(0.0388422 -0.044352 0)
(0.0425738 -0.039448 6.52752e-23)
(0.0457739 -0.0347053 0)
(0.0484584 -0.0301154 -1.12031e-22)
(0.0506261 -0.025699 -1.37964e-22)
(0.0523027 -0.0215111 0)
(0.0535081 -0.0175522 -3.75183e-22)
(0.0542976 -0.0138532 2.12205e-22)
(0.0547626 -0.0104693 -4.70086e-22)
(0.0549381 -0.00737221 0)
(0.0549013 -0.00457523 0)
(0.0547144 -0.00212049 0)
(0.0544033 4.20996e-05 3.12964e-22)
(0.0540222 0.00191933 -6.97655e-25)
(0.0536216 0.00349452 0)
(0.0531808 0.00482301 0)
(0.052645 0.0058828 -3.60884e-22)
(0.051967 0.00663951 0)
(0.0511183 0.00713735 3.75175e-22)
(0.0501534 0.00746143 0)
(0.0491512 0.00764486 -1.90404e-22)
(0.048141 0.00771644 -1.89772e-22)
(0.0471038 0.00771909 -1.88632e-22)
(0.0460565 0.00768294 -1.86428e-22)
(0.0450372 0.00763319 0)
(0.0440665 0.00759443 0)
(0.0431101 0.00762565 1.76459e-22)
(0.0420538 0.00771319 0)