/*--------------------------------*- C++ -*----------------------------------*\
| =========                 |                                                 |
| \\      /  F ield         | OpenFOAM: The Open Source CFD Toolbox           |
|  \\    /   O peration     | Version:  v1912                                 |
|   \\  /    A nd           | Website:  www.openfoam.com                      |
|    \\/     M anipulation  |                                                 |
\*---------------------------------------------------------------------------*/
FoamFile
{
    version     2.0;
    format      ascii;
    class       surfaceScalarField;
    location    "38";
    object      alphaPhi0.water;
}
// * * * * * * * * * * * * * * * * * * * * * * * * * * * * * * * * * * * * * //

dimensions      [0 3 -1 0 0 0 0];
oriented        oriented;


internalField   nonuniform List<scalar> 
40282
(
0.00279453
0.00264825
1.91915
-1.92578
1.9202
0.00557547
-1.91113
1.89897
0.0121581
-1.88378
1.8657
0.0180792
-1.84466
1.82084
0.0238224
-1.79419
1.76487
0.0293195
-1.73281
1.6982
0.0346142
-1.66099
1.62137
0.0396188
-1.57929
1.53489
0.0443966
-1.48818
1.43929
0.0488935
-1.38821
1.33505
0.0531618
-1.27984
1.22271
0.0571355
-1.16379
1.10311
0.0606839
-1.0408
0.976758
0.0640407
-0.911283
0.844149
0.0671343
-0.775771
0.705615
0.0701565
-0.634218
0.560844
0.0733744
-0.486152
0.408825
0.0773273
-0.329624
0.246447
0.0831771
-0.160392
0.068231
0.0921613
-0.00422519
0.00559998
1.85427
-1.8498
1.84285
-0.0140946
0.0210462
-1.83318
1.82074
-0.0256236
0.0380616
-1.80552
1.78755
-0.036916
0.054888
-1.76687
1.7435
-0.0479802
0.0713483
-1.71749
1.68887
-0.0587701
0.0873935
-1.65768
1.62395
-0.0692119
0.102941
-1.58774
1.54911
-0.0792677
0.117899
-1.50812
1.4648
-0.0888878
0.132205
-1.41923
1.37144
-0.0980272
0.145814
-1.3215
1.26947
-0.10664
0.158672
-1.21541
1.15937
-0.114703
0.170747
-1.10139
1.04153
-0.122128
0.181988
-0.97984
0.916405
-0.128864
0.192299
-0.851255
0.784473
-0.134821
0.201602
-0.716075
0.64617
-0.139941
0.209846
-0.574771
0.502078
-0.144357
0.217051
-0.428155
0.353351
-0.148667
0.22347
-0.277754
0.201937
-0.154275
0.230092
-0.126008
0.0548697
-0.166482
0.23762
-0.0070107
0.008358
1.78782
-1.78364
1.77682
-0.0281819
0.0349927
-1.76736
1.75525
-0.0506894
0.0627946
-1.74052
1.72317
-0.0729342
0.0902832
-1.70322
1.68068
-0.094754
0.11729
-1.65559
1.62798
-0.116032
0.143647
-1.59788
1.56534
-0.136668
0.169212
-1.53039
1.49308
-0.156532
0.193843
-1.45346
1.41158
-0.175524
0.217395
-1.36753
1.32135
-0.193576
0.239751
-1.27313
1.22293
-0.21064
0.260839
-1.17083
1.11688
-0.226676
0.280619
-1.06117
1.00375
-0.241654
0.299071
-0.944689
0.884028
-0.255511
0.316172
-0.82182
0.758118
-0.268086
0.331788
-0.692963
0.626406
-0.279079
0.345637
-0.558496
0.48933
-0.288198
0.357364
-0.419043
0.347875
-0.295436
0.366604
-0.276128
0.204318
-0.301519
0.373328
-0.133144
0.0647712
-0.309229
0.377601
-0.00964288
0.0109187
1.7238
-1.71994
1.71352
-0.041714
0.0481355
-1.70454
1.69301
-0.0748284
0.0863564
-1.67895
1.66236
-0.107568
0.12415
-1.64328
1.62171
-0.139754
0.16132
-1.59769
1.57123
-0.171203
0.197663
-1.54236
1.51112
-0.201734
0.232977
-1.47754
1.44165
-0.231164
0.26705
-1.4035
1.36315
-0.259317
0.299674
-1.32063
1.27602
-0.286034
0.33065
-1.22937
1.18076
-0.311189
0.359797
-1.13027
1.078
-0.334708
0.386984
-1.02402
0.968436
-0.356563
0.412146
-0.911339
0.852812
-0.376769
0.435295
-0.792932
0.731761
-0.395277
0.456448
-0.669352
0.605754
-0.411834
0.475432
-0.541011
0.475166
-0.425852
0.491697
-0.408256
0.340345
-0.436458
0.504369
-0.27156
0.20217
-0.443274
0.512664
-0.132545
0.0643021
-0.447359
0.515602
-0.0121385
0.0133448
1.66207
-1.65841
1.65232
-0.0545086
0.060598
-1.64381
1.63287
-0.0978041
0.10874
-1.61953
1.60378
-0.140623
0.156368
-1.58565
1.56515
-0.182752
0.203254
-1.54229
1.5171
-0.223974
0.249165
-1.4896
1.45981
-0.264067
0.293858
-1.42776
1.39348
-0.302789
0.337067
-1.35701
1.31839
-0.339904
0.378528
-1.27765
1.23486
-0.375176
0.417973
-1.19005
1.14329
-0.408378
0.455134
-1.09466
1.04421
-0.439316
0.489761
-0.992044
0.938248
-0.46786
0.521656
-0.882924
0.82618
-0.493983
0.550727
-0.768122
0.708847
-0.517727
0.577002
-0.648439
0.586967
-0.539021
0.600493
-0.524478
0.461004
-0.557388
0.620863
-0.39657
0.331204
-0.571743
0.63711
-0.264941
0.197869
-0.580701
0.647773
-0.130038
0.0632139
-0.583863
0.650688
-0.0144915
0.0156187
1.60266
-1.59905
1.59333
-0.0666169
0.0723377
-1.58533
1.57505
-0.119551
0.129832
-1.56249
1.54767
-0.171945
0.186768
-1.53059
1.51125
-0.223555
0.242893
-1.48967
1.46586
-0.274133
0.297944
-1.43983
1.4116
-0.323418
0.351647
-1.38119
1.34862
-0.371121
0.403687
-1.31393
1.27713
-0.416947
0.453746
-1.23826
1.19737
-0.460599
0.501494
-1.15449
1.10967
-0.501771
0.546587
-1.06297
1.01446
-0.540159
0.588677
-0.96419
0.912254
-0.5755
0.627436
-0.858738
0.803744
-0.607626
0.66262
-0.747382
0.689765
-0.636512
0.694128
-0.631006
0.571205
-0.662205
0.722005
-0.510445
0.448783
-0.68447
0.746132
-0.386256
0.322882
-0.702276
0.765651
-0.258659
0.19358
-0.713707
0.778786
-0.127496
0.0626033
-0.717457
0.78235
-0.0166833
0.017722
1.54506
-1.54203
1.53671
-0.077962
0.0832739
-1.52928
1.51972
-0.139945
0.149501
-1.50804
1.49424
-0.201361
0.215166
-1.47831
1.46025
-0.261951
0.280006
-1.44007
1.41777
-0.321445
0.343747
-1.39335
1.36682
-0.379553
0.406086
-1.33818
1.30745
-0.435939
0.466668
-1.27465
1.23978
-0.490258
0.525124
-1.20288
1.16397
-0.542149
0.581061
-1.12308
1.08025
-0.59123
0.63406
-1.03552
0.988944
-0.637105
0.683679
-0.940581
0.890497
-0.679388
0.729473
-0.838767
0.78548
-0.717756
0.771042
-0.730739
0.674657
-0.752022
0.808104
-0.617355
0.558955
-0.782196
0.840596
-0.499571
0.4393
-0.808228
0.868499
-0.378218
0.316377
-0.829327
0.891168
-0.253798
0.190445
-0.843399
0.906752
-0.12594
0.0632373
-0.84835
0.911052
-0.0186947
0.0196341
1.48988
-1.48712
1.48226
-0.0884568
0.0933115
-1.47546
1.46671
-0.158833
0.167581
-1.45601
1.44334
-0.228662
0.241333
-1.42869
1.41206
-0.297687
0.314318
-1.39343
1.3728
-0.365628
0.386261
-1.35015
1.32548
-0.432179
0.456849
-1.29878
1.27005
-0.496965
0.525694
-1.23929
1.2065
-0.559591
0.59238
-1.1717
1.13488
-0.619635
0.65645
-1.09608
1.05531
-0.676638
0.717408
-1.0126
0.967998
-0.730107
0.774711
-0.921541
0.873285
-0.77954
0.827796
-0.823295
0.771646
-0.824459
0.876108
-0.718428
0.663749
-0.864483
0.919163
-0.607727
0.550494
-0.89946
0.956693
-0.492183
0.43292
-0.929373
0.988637
-0.372812
0.311944
-0.953632
1.0145
-0.250355
0.188008
-0.970146
1.03249
-0.124252
0.0635242
-0.976793
1.03752
-0.0205035
0.0213317
1.43657
-1.43392
1.42958
-0.0980017
0.102343
-1.42349
1.41565
-0.176042
0.183884
-1.40604
1.39464
-0.253609
0.265011
-1.38143
1.36639
-0.330468
0.345508
-1.34949
1.33072
-0.406352
0.425123
-1.31005
1.28745
-0.480948
0.503549
-1.26289
1.23637
-0.553857
0.580377
-1.20787
1.17735
-0.62464
0.655152
-1.14483
1.11028
-0.692812
0.727358
-1.07371
1.03513
-0.757832
0.796413
-0.994552
0.95199
-0.819107
0.861669
-0.907478
0.861056
-0.876007
0.92243
-0.812773
0.762694
-0.9279
0.977979
-0.710895
0.657475
-0.974195
1.02762
-0.602549
0.546253
-1.01451
1.07081
-0.488737
0.430157
-1.04873
1.10731
-0.370665
0.310397
-1.0764
1.13667
-0.249451
0.187831
-1.09554
1.15716
-0.124501
0.0658151
-1.10404
1.16273
-0.0220857
0.0227901
1.38531
-1.383
1.37923
-0.106482
0.110253
-1.37394
1.3671
-0.191371
0.198205
-1.35871
1.34872
-0.275922
0.285909
-1.33711
1.32384
-0.359947
0.373213
-1.30888
1.29219
-0.443214
0.45991
-1.27371
1.25341
-0.525426
0.545722
-1.23125
1.20719
-0.606172
0.630237
-1.18118
1.15318
-0.68498
0.712974
-1.12317
1.09112
-0.761307
0.793365
-1.05699
1.02077
-0.834529
0.870743
-0.982463
0.942056
-0.903939
0.944345
-0.899563
0.855004
-0.968768
1.01333
-0.808412
0.759835
-1.02821
1.07679
-0.709335
0.657
-1.08146
1.13379
-0.602937
0.547286
-1.12782
1.18348
-0.490211
0.4319
-1.16698
1.22529
-0.372557
0.312397
-1.1985
1.25866
-0.251611
0.190333
-1.22056
1.28184
-0.126878
0.070374
-1.23119
1.2877
-0.0234164
0.0239849
1.33573
-1.3338
1.33066
-0.113779
0.116919
-1.32624
1.32052
-0.204609
0.210326
-1.31348
1.30506
-0.295302
0.303719
-1.29523
1.28394
-0.385745
0.397035
-1.27113
1.25676
-0.475767
0.490144
-1.24074
1.22304
-0.565113
0.582823
-1.20356
1.18226
-0.653382
0.674685
-1.15906
1.13391
-0.740086
0.765243
-1.10673
1.07747
-0.824635
0.853893
-1.04608
1.01251
-0.906323
0.939892
-0.976723
0.938689
-0.984326
1.02236
-0.898389
0.855818
-1.05772
1.10029
-0.810983
0.763909
-1.12551
1.17258
-0.714639
0.66324
-1.18661
1.23801
-0.60981
0.55448
-1.24001
1.29534
-0.497422
0.438848
-1.28502
1.34359
-0.379004
0.318176
-1.32106
1.38189
-0.256654
0.194729
-1.34644
1.40836
-0.129505
0.0750637
-1.35965
1.41409
-0.0244722
0.0248941
1.28802
-1.28631
1.28385
-0.119773
0.122225
-1.28039
1.2759
-0.21554
0.220037
-1.27032
1.26363
-0.311435
0.318131
-1.25575
1.24664
-0.407451
0.416563
-1.23622
1.22442
-0.503508
0.515309
-1.21116
1.19634
-0.599427
0.61424
-1.17989
1.16171
-0.694842
0.713025
-1.1417
1.11977
-0.789276
0.811204
-1.09583
1.06978
-0.882119
0.90817
-1.04153
1.011
-0.972596
1.00313
-0.978107
0.942789
-1.05977
1.09509
-0.904986
0.864652
-1.14256
1.18289
-0.821759
0.776296
-1.21973
1.26519
-0.728275
0.677735
-1.28993
1.34047
-0.624751
0.569445
-1.35171
1.40701
-0.511992
0.452633
-1.4039
1.46326
-0.391676
0.329518
-1.44562
1.50778
-0.26661
0.203524
-1.47518
1.53827
-0.135417
0.0835977
-1.49172
1.54354
-0.0252333
0.0255009
1.24217
-1.24089
1.23917
-0.124356
0.126076
-1.23673
1.23354
-0.223964
0.227157
-1.22955
1.2247
-0.324023
0.328867
-1.21895
1.2122
-0.424661
0.431407
-1.20438
1.19541
-0.525922
0.534896
-1.18518
1.17358
-0.627733
0.639332
-1.1605
1.14583
-0.729811
0.744485
-1.12943
1.11119
-0.831727
0.84997
-1.09097
1.06863
-0.932887
0.955224
-1.04405
1.01709
-1.03249
1.05945
-0.98762
0.955529
-1.1295
1.16159
-0.9207
0.883034
-1.22269
1.26035
-0.842445
0.798869
-1.31059
1.35417
-0.752264
0.702621
-1.39152
1.44116
-0.649972
0.594408
-1.46352
1.51908
-0.536094
0.475293
-1.52478
1.58558
-0.412382
0.347907
-1.57386
1.63834
-0.282568
0.217439
-1.60901
1.67414
-0.144968
0.0965089
-1.63011
1.67857
-0.0256861
0.0257956
1.19763
-1.19699
1.19603
-0.127443
0.128401
-1.19465
1.19282
-0.229721
0.23155
-1.19049
1.1876
-0.332816
0.335705
-1.18409
1.17986
-0.437012
0.441235
-1.17484
1.16892
-0.542509
0.548429
-1.16199
1.15392
-0.649387
0.657454
-1.14459
1.13384
-0.757485
0.768231
-1.12153
1.1075
-0.866478
0.880511
-1.09158
1.07358
-0.975851
0.993844
-1.05334
1.03066
-1.08483
1.10751
-1.00536
0.977255
-1.19237
1.22048
-0.946153
0.91188
-1.29711
1.33138
-0.87427
0.833174
-1.3974
1.43849
-0.788464
0.740046
-1.49118
1.5396
-0.68787
0.631958
-1.57593
1.63184
-0.572423
0.509514
-1.64894
1.71185
-0.443654
0.375546
-1.70788
1.77599
-0.306199
0.237342
-1.7506
1.81945
-0.158122
0.112206
-1.77767
1.82358
-0.0258256
0.0257781
1.15493
-1.15476
1.15457
-0.128985
0.129172
-1.15427
1.15383
-0.232707
0.233149
-1.1532
1.15231
-0.337629
0.338512
-1.15111
1.14951
-0.444211
0.445812
-1.14741
1.14472
-0.552832
0.555526
-1.14131
1.13704
-0.663764
0.668029
-1.13178
1.12536
-0.777021
0.783443
-1.1176
1.10833
-0.892449
0.901722
-1.09734
1.0844
-1.00969
1.02262
-1.0693
1.05179
-1.1281
1.14561
-1.03162
1.00851
-1.24671
1.26981
-0.982208
0.952426
-1.36417
1.39396
-0.918887
0.881318
-1.47873
1.5163
-0.839458
0.79307
-1.58803
1.63442
-0.741961
0.686009
-1.68894
1.74489
-0.625207
0.559728
-1.77765
1.84313
-0.490005
0.416931
-1.85042
1.92349
-0.341968
0.267923
-1.90429
1.97834
-0.180561
0.138745
-1.94035
1.98216
-0.0256566
0.0254588
1.11372
-1.11381
1.11437
-0.128976
0.128411
-1.11514
1.11606
-0.232898
0.231973
-1.11711
1.11822
-0.33839
0.337278
-1.11933
1.12038
-0.446094
0.445051
-1.12126
1.12188
-0.556586
0.555966
-1.12212
1.12184
-0.670357
0.670632
-1.12091
1.11914
-0.787648
0.789414
-1.11636
1.11237
-0.908541
0.912534
-1.10694
1.09982
-1.03293
1.04005
-1.09074
1.07942
-1.16043
1.17175
-1.06554
1.04875
-1.29031
1.3071
-1.02869
1.00497
-1.42144
1.44516
-0.977158
0.944829
-1.55217
1.5845
-0.907526
0.864793
-1.68008
1.72282
-0.816188
0.761319
-1.80159
1.85646
-0.699903
0.631857
-1.91162
1.97967
-0.55744
0.477574
-2.00433
2.08419
-0.394137
0.311142
-2.07479
2.15779
-0.211249
0.172261
-2.12493
2.16392
-0.0251949
0.0248586
1.07398
-1.07468
1.07596
-0.127465
0.126189
-1.07772
1.07994
-0.230359
0.228136
-1.08259
1.08562
-0.335155
0.332126
-1.08898
1.0926
-0.442661
0.439041
-1.0964
1.10031
-0.553649
0.549741
-1.10422
1.10799
-0.668847
0.665071
-1.1115
1.11459
-0.788755
0.785665
-1.11709
1.11878
-0.913749
0.912057
-1.11944
1.11883
-1.04407
1.04469
-1.11664
1.11257
-1.17972
1.18379
-1.10625
1.09728
-1.32042
1.32938
-1.08522
1.06956
-1.46551
1.48117
-1.04975
1.02517
-1.61386
1.63844
-0.995127
0.958877
-1.76351
1.79976
-0.915609
0.86449
-1.91095
1.96207
-0.80472
0.735648
-2.05022
2.11929
-0.656988
0.569311
-2.17284
2.26052
-0.474616
0.378142
-2.27
2.36647
-0.261375
0.223169
-2.34404
2.38225
-0.0244663
0.0240079
1.03552
-1.03661
1.03853
-0.124551
0.12263
-1.0412
1.04461
-0.225253
0.221847
-1.04872
1.05352
-0.32812
0.323326
-1.05895
1.06498
-0.4341
0.42807
-1.07155
1.07859
-0.544137
0.537097
-1.08602
1.09375
-0.659191
0.651467
-1.10165
1.10961
-0.780027
0.772072
-1.11746
1.12504
-0.907345
0.899767
-1.13213
1.13852
-1.04179
1.03541
-1.14391
1.14801
-1.18388
1.17978
-1.15045
1.15082
-1.33394
1.33357
-1.14865
1.14337
-1.49213
1.49741
-1.13434
1.1208
-1.65832
1.67186
-1.10186
1.07648
-1.83181
1.8572
-1.04343
1.00129
-2.01045
2.05259
-0.948469
0.883287
-2.18887
2.25406
-0.804192
0.710409
-2.35683
2.45061
-0.602819
0.487068
-2.4994
2.61515
-0.347275
0.302454
-2.61706
2.66188
-0.0235048
0.0229438
0.99852
-1.00014
1.00262
-0.120378
0.1179
-1.00608
1.01052
-0.217832
0.213395
-1.01592
1.02227
-0.317622
0.311273
-1.02955
1.03773
-0.420797
0.412617
-1.04678
1.05667
-0.528434
0.518547
-1.06734
1.07873
-0.641687
0.630296
-1.09076
1.10336
-0.761564
0.748969
-1.11641
1.12977
-0.889069
0.875701
-1.14331
1.15684
-1.02527
1.01174
-1.17014
1.18295
-1.17121
1.15839
-1.19499
1.20588
-1.32795
1.31705
-1.21521
1.22247
-1.49665
1.48939
-1.22703
1.22815
-1.67864
1.67753
-1.22488
1.21605
-1.8754
1.88422
-1.20019
1.17543
-2.08794
2.1127
-1.13939
1.08913
-2.3149
2.36516
-1.02113
0.931612
-2.54905
2.63857
-0.817485
0.680195
-2.77231
2.9096
-0.51076
0.438775
-2.98152
3.05351
-0.0223503
0.021708
0.962987
-0.964703
0.967639
-0.11513
0.112194
-0.971751
0.977041
-0.208419
0.203129
-0.983508
0.991153
-0.304114
0.296469
-0.999975
1.00997
-0.403316
0.393319
-1.02114
1.03347
-0.507179
0.494849
-1.04695
1.06155
-0.616994
0.602391
-1.07725
1.09401
-0.733949
0.717191
-1.11177
1.13049
-0.859288
0.840574
-1.15007
1.17041
-0.994422
0.974076
-1.1914
1.21288
-1.14088
1.1194
-1.23466
1.25651
-1.30037
1.27852
-1.27817
1.29929
-1.47503
1.45391
-1.31946
1.33813
-1.66772
1.64905
-1.35462
1.36803
-1.88252
1.86911
-1.37714
1.38028
-2.12506
2.12191
-1.37513
1.3584
-2.40206
2.4188
-1.32551
1.2701
-2.7193
2.7747
-1.18399
1.05518
-3.07753
3.20635
-0.88291
0.799038
-3.49437
3.57824
0.11093
-0.264638
0.156897
-0.23207
0.316885
-0.0848143
-0.369413
0.40627
-0.0368574
-0.435313
0.460709
-0.0253956
-0.486074
0.503968
-0.0183222
-0.52072
0.534562
-0.0133281
-0.539359
0.526444
0.015576
-0.49959
0.465599
0.0339912
-0.421945
0.359915
0.0620305
-0.267786
0.116713
0.151073
0.165113
-0.741961
0.576848
1.15005
-1.34095
0.30701
2.11131
-2.31523
0.181321
2.38972
-2.39028
-0.017248
2.44015
-2.46344
0.023284
2.5353
-2.62388
0.0885802
2.74643
-2.98264
0.179359
3.35233
-3.11626
0.45333
1.58211
-0.597653
0.0196156
2.37004
-1.51638
-1.76444
-0.984394
2.44871
-1.46432
-3.40686
4.07614
-0.669289
-4.57571
4.96507
-0.38936
-5.27437
5.52153
-0.247165
-5.71916
5.87695
-0.157799
-6.00266
6.10243
-0.0997694
-6.18127
6.24324
-0.0619716
-6.29173
6.32945
-0.0377171
-6.35861
6.38093
-0.0223251
-6.39781
6.41033
-0.0125206
-6.41935
6.41983
-0.00602183
-6.42344
6.4252
-0.00176077
-6.42483
6.42577
0.00252299
-6.42422
6.4192
0.00501388
-6.41301
6.40554
0.00747137
-6.39822
6.39508
0.00313324
-6.4016
6.41856
-0.0169625
-4.17005
4.15412
-0.00474566
-4.06072
4.22468
-0.00262741
-4.11107
4.38939
-0.00126344
-4.10085
5.46602
0.022506
-6.38781
6.38589
0.00191917
-6.40716
4.3289
-0.0355836
-1.7558
1.7382
-0.00846837
-1.78053
1.75643
0.000752669
-1.8042
1.76654
-0.0015631
-1.81588
1.78925
0.00372846
-2.34878
2.25733
0.0103571
-1.47378
0.850554
0.00245185
-0.84642
0.859323
-0.00954578
-0.884818
0.909056
-0.00779963
-0.871665
0.66576
0.0081586
-0.611349
0.593048
-0.0230727
-0.729809
1.70578
0.0240062
-1.90295
0.895465
-0.135386
-0.662314
1.28824
0.0407446
-5.08583
5.49866
0.0125299
-5.67791
5.29078
-0.0768351
-5.34723
5.38802
-0.0419066
-5.40394
5.8742
-0.0149831
0.415389
-0.558138
0.137123
-0.214169
0.234287
0.142447
-0.20149
-0.28091
0.312133
0.0620921
-0.111428
-0.358322
0.368393
0.0444614
-0.0740362
-0.412686
0.43999
0.0353565
-0.0598337
-0.489634
0.505072
0.0282179
-0.0438302
-0.510507
0.492578
-0.0242458
0.0274316
-0.464497
0.44018
-0.0641266
0.0825324
-0.411386
0.367706
-0.111249
0.14498
-0.316544
0.259775
-0.2399
0.277838
-0.221373
0.200196
-0.727133
0.748706
-0.159431
-0.0425104
-0.763795
1.30593
0.14312
-0.185004
-0.176191
0.0692802
0.142488
-0.0736625
-0.0313341
0
0.00735044
-4.98579e-05
0.00236279
-4.29958e-09
6.83162e-20
-1.64962e-19
-6.93889e-18
3.77214e-21
2.54577e-19
8.71728e-19
7.6994e-14
-7.70176e-14
1.02201e-19
-5.25142e-19
0
2.04615e-19
-5.98363e-20
-9.37596e-19
0
2.09075e-26
-0.0803058
1.21125
3.02646
-4.56665
-1.99213
2.81451
2.59055
-3.41293
-3.54103
4.14601
1.31532
-1.92029
-4.64244
5.04908
0.791572
-1.19822
-5.38243
5.65547
0.509531
-0.782572
-5.87838
6.05922
0.329652
-0.510501
-6.20499
6.32173
0.210361
-0.3271
-6.41458
6.48799
0.131662
-0.205065
-6.54569
6.59076
0.0807816
-0.125853
-6.62568
6.65253
0.0482879
-0.0751451
-6.67292
6.68805
0.0274228
-0.0425581
-6.69894
6.70633
0.0135868
-0.0209745
-6.71074
6.71277
0.00392305
-0.00595489
-6.71322
6.71135
-0.00388378
0.00576203
-6.70804
6.70357
-0.00949851
0.0139701
-6.69861
6.69395
-0.0120306
0.0166942
-6.68986
6.68629
-0.00300541
0.00657755
-6.68193
6.67691
0.0147056
-0.00968304
-6.67287
6.6707
0.00659285
-0.00441939
-6.66886
6.6654
0.00193579
0.00152759
-6.66049
6.65632
-0.00568889
0.00986293
-6.65577
6.65741
-0.025936
0.0242968
-6.65787
6.65609
0.000849771
0.000933859
-6.65214
6.64713
0.0335832
-0.028573
-6.64425
6.64545
0.0173604
-0.0185579
-6.64784
6.64992
0.0013956
-0.00346887
-6.65044
6.64896
0.000859284
0.000620299
-6.64633
6.64503
-0.0109248
0.0122193
-6.64263
6.63897
-0.020486
0.0241394
-6.63782
6.63799
-0.00797044
0.0105728
-6.63328
6.62495
0.0183943
-0.0100618
-6.6136
6.60349
0.00536594
0.00337531
-6.60393
6.61469
-0.00428497
-0.000986387
-6.61229
6.59844
0.119525
-0.105675
-6.58486
5.28438
0.0573935
-0.0401479
-0.870957
-0.00505689
0.0095034
-0.00103645
-0.00583468
0.00691797
-0.00206198
0.000976768
-0.0183728
2.9689
0.0264534
-0.0176844
-6.33425
6.33344
0.12437
-0.123552
-6.33664
6.33988
0.0599069
-0.0631447
-6.34522
6.34728
0.024163
-0.0262186
0.684825
-0.765926
0.112105
-0.207443
0.263155
0.26034
-0.316051
-0.308684
0.347597
0.150328
-0.189241
-0.380738
0.408663
0.104469
-0.132394
-0.432133
0.453233
0.0823411
-0.103441
-0.469412
0.463434
0.0543233
-0.065149
-0.463363
0.468853
-0.0305124
0.0322948
-0.460556
0.445103
-0.0958277
0.13134
-0.41887
0.38987
-0.157757
0.218502
-0.370646
0.34213
-0.330791
0.365668
-0.321519
0.334303
-0.738479
0.725694
-0.409278
0.489501
-1.3408
1.26058
-0.524915
0.268783
-0.423475
1.28785
-0.0775189
2.58492e-21
-1.21004e-20
0.0775189
2.93579e-21
-4.28224e-08
4.29958e-09
4.47421e-08
4.26467e-08
-3.22287e-12
-7.76748e-12
4.22206e-08
1.5337e-26
-6.95977e-23
-3.78247e-13
3.78247e-13
2.64845e-05
-1.75589e-07
-8.71744e-08
-5.06178e-06
-5.89628e-07
0.196258
6.0217e-19
-0.196258
-2.4837
2.70534
5.95638
-6.17803
-2.96849
3.40237
3.99394
-4.42783
-3.89039
4.3659
2.45519
-2.9307
-4.79912
5.17908
1.5909
-1.97086
-5.50382
5.77629
1.055
-1.32747
-6.00089
6.18346
0.692437
-0.875014
-6.33018
6.44649
0.444141
-0.560451
-6.53766
6.60862
0.277796
-0.348754
-6.66318
6.70475
0.169682
-0.211249
-6.73612
6.75947
0.100627
-0.123977
-6.77656
6.78874
0.0564431
-0.0686197
-6.79699
6.80214
0.0273697
-0.0325189
-6.80474
6.80522
0.00733892
-0.00781795
-6.80396
6.80132
-0.00794418
0.0105832
-6.79747
6.79274
-0.0185717
0.0232987
-6.78755
6.7822
-0.0216891
0.0270357
-6.77666
6.77054
-0.0116469
0.0177578
-6.76355
6.75593
0.00294952
0.00466531
-6.74901
6.74355
-1.06259e-05
0.0054718
-6.73884
6.73411
-0.00581814
0.0105509
-6.72939
6.72592
-0.0137011
0.0171732
-6.72499
6.72575
-0.0230017
0.02224
-6.72587
6.72373
-0.00277295
0.00491585
-6.71897
6.71275
0.0223434
-0.0161203
-6.70753
6.70475
0.0170556
-0.0142707
-6.70378
6.7035
0.00422425
-0.00395104
-6.70294
6.70163
-0.00195189
0.00325653
-6.69994
6.6989
-0.0134355
0.0144766
-6.69877
6.69826
-0.0241636
0.0246783
-6.69605
6.69124
-0.0142186
0.0190324
-6.6834
6.67345
0.000825914
0.00912225
-6.66435
6.66015
-0.00818525
0.0123772
-6.66304
6.66306
0.00111104
-0.00113457
-6.64899
6.6188
0.0598592
-0.0296737
-6.57065
4.1788
-0.0615515
0.13014
-0.0551675
0.00467307
-0.000643213
0.0511356
-0.0047787
1.21973
-0.000308839
0.0961712
-5.79491
6.622
0.0339301
0.00188435
-6.5827
6.55485
0.1012
-0.0733532
-6.53811
6.52781
0.0572026
-0.0468991
-6.52275
6.51817
0.0241421
-0.0195604
0.840796
-0.962021
0.0466775
-0.157087
0.221994
0.371994
-0.391455
-0.271829
0.314798
0.228283
-0.252869
-0.350386
0.379838
0.160914
-0.182696
-0.403168
0.414296
0.124178
-0.125544
-0.425834
0.441631
0.0763888
-0.0805361
-0.458894
0.467803
-0.0289006
0.0223166
-0.469035
0.456444
-0.146399
0.15899
-0.43572
0.410272
-0.244043
0.269491
-0.33715
0.29101
-0.394071
0.37659
-0.286709
0.29785
-0.647694
0.632854
-0.345041
0.441936
-1.18314
1.04516
-0.48551
0.499414
-1.25771
1.2438
-0.491759
0.437842
-0.969162
1.23129
-0.0417451
-2.03439e-07
-4.47421e-08
0.0776836
-1.57705e-11
1.32146e-07
-1.35085e-07
3.10114e-09
7.85088e-05
-0.000639686
-0.000473157
0.000931294
-3.9705e-05
1.34776e-07
3.8996e-05
-1.08183e-09
-0.272758
3.18608
1.3545
-4.29002
-3.41298
3.44598
6.21274
-6.24573
-3.60283
3.88878
4.76477
-5.05072
-4.24978
4.63737
3.35151
-3.7391
-5.01585
5.36492
2.33104
-2.68011
-5.67108
5.93153
1.59216
-1.8526
-6.14562
6.31774
1.05206
-1.22418
-6.45335
6.55857
0.671355
-0.776576
-6.63868
6.69915
0.414535
-0.475006
-6.74418
6.77737
0.248546
-0.281738
-6.80156
6.8191
0.144164
-0.161697
-6.83156
6.84028
0.0786997
-0.0874165
-6.84607
6.84962
0.0364757
-0.0400208
-6.85134
6.85159
0.00781383
-0.00806098
-6.85062
6.84862
-0.0132202
0.0152195
-6.84571
6.84201
-0.0277434
0.0314405
-6.83771
6.83292
-0.0323188
0.0371113
-6.8276
6.82159
-0.0240561
0.0300626
-6.81489
6.80785
-0.0121925
0.0192255
-6.80125
6.79558
-0.0112743
0.0169462
-6.79074
6.78647
-0.0151975
0.0194668
-6.78285
6.78038
-0.0201586
0.0226269
-6.77949
6.7796
-0.0219562
0.0218483
-6.77938
6.77769
-0.00696238
0.00865069
-6.77418
6.76948
0.0105949
-0.005892
-6.76491
6.76147
0.0109563
-0.0075163
-6.75924
6.75781
0.00295943
-0.0015223
-6.75662
6.75538
-0.00451413
0.0057587
-6.7541
6.75296
-0.0155124
0.0166508
-6.75177
6.74962
-0.0260023
0.0281536
-6.74546
6.73846
-0.0249284
0.0319275
-6.72843
6.71622
-0.0199752
0.032179
-6.70402
6.69433
-0.0188489
0.0285443
-6.68803
6.67981
-0.00306414
0.0112806
-6.6627
6.63613
0.00190014
0.0246658
-6.58017
6.49386
-0.16535
0.185636
-6.45222
6.50586
-0.290548
0.341176
-6.68935
6.76334
-0.277566
0.237076
-6.76401
6.74476
-0.0311822
0.0504303
-6.72014
6.69874
0.0477164
-0.0263131
-6.68309
6.67204
0.0354557
-0.024415
-6.66476
6.65865
0.0138157
-0.00770947
1.00388
-1.03742
0.0335449
-0.0860283
0.122989
0.397094
-0.4745
-0.165594
0.201359
0.240507
-0.26501
-0.230249
0.278034
0.186517
-0.222969
-0.328027
0.388407
0.120088
-0.186557
-0.412169
0.410925
0.0821009
-0.114318
-0.370372
0.370436
-0.0148916
0.0105368
-0.37273
0.361445
-0.134505
0.141499
-0.387601
0.407516
-0.247015
0.314981
-0.384856
0.35999
-0.439055
0.467116
-0.338982
0.325683
-0.672262
0.715509
-0.313808
0.292379
-0.915073
0.935719
-0.314702
0.323603
-1.14471
1.07946
-0.318552
0.282984
-1.25014
1.28884
-0.264196
0.0623525
-0.387852
1.06546
-1.99223e-18
4.58493e-11
-2.62545e-08
2.62087e-08
-0.0003278
0.000847297
-0.000303637
0.000372688
-0.000101891
0.275129
1.00148e-17
-0.275027
-3.45652
3.72596
6.42739
-6.69682
-3.76608
3.84599
6.29793
-6.37783
-4.00261
4.24287
5.30357
-5.54383
-4.54915
4.88794
4.09566
-4.43445
-5.23082
5.55196
3.01238
-3.33352
-5.83581
6.07401
2.10083
-2.33904
-6.26551
6.41458
1.3849
-1.53397
-6.52892
6.61533
0.872041
-0.958446
-6.67965
6.7279
0.528389
-0.576637
-6.76413
6.79141
0.310689
-0.33797
-6.81229
6.82864
0.177352
-0.193705
-6.8416
6.852
0.0958857
-0.106287
-6.86036
6.86708
0.0443064
-0.0510199
-6.87234
6.87635
0.00959658
-0.0136149
-6.87934
6.88127
-0.0156731
0.0137428
-6.88218
6.88206
-0.0336404
0.0337651
-6.8809
6.87876
-0.0407834
0.0429296
-6.87565
6.87173
-0.0351505
0.0390776
-6.86713
6.86222
-0.0252448
0.0301586
-6.85744
6.85321
-0.0219617
0.0261969
-6.84967
6.84689
-0.0230178
0.0258014
-6.84488
6.84377
-0.0244236
0.0255358
-6.84364
6.84418
-0.0216091
0.0210679
-6.84463
6.8442
-0.00974685
0.0101807
-6.84246
6.83962
0.00216716
0.000675161
-6.83636
6.8334
0.0042869
-0.00132884
-6.83106
6.82929
-0.000122644
0.00189173
-6.82787
6.82657
-0.00698899
0.008283
-6.82529
6.82387
-0.0178966
0.0193142
-6.8219
6.8185
-0.0309737
0.0343699
-6.8128
6.80422
-0.03974
0.0483176
-6.79249
6.77762
-0.0456277
0.060493
-6.7607
6.7441
-0.0415356
0.0581362
-6.73058
6.71865
-0.0218672
0.0337988
-6.70407
6.68813
-0.0460264
0.0619631
-6.6798
6.6901
-0.182053
0.171745
-6.72255
6.76659
-0.292228
0.248187
-6.80699
6.83354
-0.209852
0.183297
-6.84273
6.83861
-0.0611967
0.0653146
-6.82821
6.81697
0.0101891
0.00104695
-6.80742
6.79983
0.0149329
-0.00734009
-6.7939
6.78868
0.00192245
0.00330453
1.05662
-1.06734
0.0107288
-0.06334
0.120683
0.622973
-0.680316
-0.181504
0.237204
0.411385
-0.467085
-0.285509
0.325553
0.295441
-0.335485
-0.358576
0.383388
0.208393
-0.233205
-0.40077
0.4137
0.126647
-0.139578
-0.424362
0.433566
-0.00385558
-0.00534852
-0.439674
0.440073
-0.177526
0.177127
-0.431238
0.41053
-0.336325
0.35463
-0.381633
0.352183
-0.494777
0.524657
-0.324236
0.300725
-0.730006
0.753517
-0.284944
0.268422
-1.01419
1.07151
-0.238546
0.211315
-1.10464
1.32598
-0.144681
0.0583129
-1.35219
1.43856
-0.0113529
0.0432162
-1.73949
1.70763
-0.0575108
0
-0.150642
0.150751
-2.53963e-20
-4.72893e-21
0
9.17519e-20
-0.161494
3.45757
1.29442
-4.11533
-3.78659
3.87445
6.7545
-6.84236
-3.98077
4.11556
6.48666
-6.62144
-4.297
4.53039
5.77871
-6.0121
-4.81051
5.11684
4.75401
-5.06034
-5.4242
5.70826
3.63594
-3.92001
-5.95118
6.14733
2.55726
-2.7534
-6.29676
6.41004
1.66493
-1.77821
-6.49887
6.56906
1.03424
-1.10443
-6.6264
6.675
0.621622
-0.670224
-6.71699
6.75267
0.366639
-0.402319
-6.78417
6.81178
0.213611
-0.241226
-6.83592
6.85702
0.12081
-0.141909
-6.87536
6.89114
0.0616599
-0.0776265
-6.9037
6.91417
0.0210133
-0.0316753
-6.92365
6.93274
-0.00888959
0.000823434
-6.9397
6.9445
-0.0314121
0.026611
-6.94768
6.94915
-0.0432634
0.041791
-6.94894
6.94734
-0.0417081
0.0433135
-6.94478
6.94169
-0.033946
0.0370361
-6.93851
6.93562
-0.0296058
0.0324999
-6.9333
6.9318
-0.0278227
0.0293161
-6.93119
6.93124
-0.0259982
0.0259479
-6.93189
6.93303
-0.0201878
0.0190469
-6.93425
6.93495
-0.00997887
0.00928223
-6.93465
6.93319
-0.00270817
0.00417399
-6.93086
6.92833
-0.00132761
0.00385965
-6.92602
6.92402
-0.00373609
0.00573862
-6.92224
6.92055
-0.00970414
0.0113978
-6.91879
6.91677
-0.0209414
0.0229558
-6.91414
6.91013
-0.0381033
0.0421157
-6.90372
6.89454
-0.057246
0.0664304
-6.88236
6.86626
-0.0761574
0.0922528
-6.84544
6.82172
-0.0780592
0.101773
-6.80186
6.78916
-0.0461466
0.0588429
-6.77889
6.77129
-0.0730202
0.0806171
-6.77255
6.78736
-0.15839
0.143582
-6.81617
6.85253
-0.208757
0.172392
-6.88686
6.91238
-0.157568
0.132044
-6.92687
6.93207
-0.064154
0.0589594
-6.93161
6.92876
-0.0076917
0.0105428
-6.92538
6.922
0.0019376
0.00143866
-6.91854
6.91488
-0.00772703
0.0113892
1.06843
-1.05697
-0.0114629
-0.023136
0.0625425
0.728199
-0.767631
-0.11401
0.170639
0.52377
-0.580421
-0.226482
0.276343
0.380108
-0.429972
-0.317913
0.349791
0.260941
-0.29282
-0.372078
0.387868
0.153648
-0.169654
-0.400562
0.411258
0.0151323
-0.0258361
-0.419467
0.421824
-0.175097
0.171877
-0.416407
0.400824
-0.372404
0.389183
-0.374973
0.34119
-0.556987
0.591337
-0.304746
0.266609
-0.784433
0.822028
-0.226191
0.183374
-1.09756
1.14038
-0.134411
0.0723954
-1.38132
1.44334
0.0112733
-0.11754
-1.54113
1.64739
0.189276
-0.0808941
-1.67614
0.849303
0.00439904
0.00068242
-0.0398698
0.042252
-0.0056472
0.0056472
-3.47921e-21
-5.90413e-18
-3.24443
3.73262
6.59247
-7.03866
-3.85442
3.99524
6.95835
-7.09917
-4.15123
4.32627
6.7798
-6.95484
-4.52847
4.7584
6.24402
-6.47395
-5.01535
5.28356
5.34688
-5.61509
-5.53988
5.76118
4.17389
-4.39519
-5.9285
5.98068
2.91755
-2.96973
-5.14406
3.72667
1.87154
-0.361659
-2.3462
1.42337
0.993298
4.6486e-20
-0.832791
0.458396
0.377477
3.31388e-20
-0.195868
0.0313843
0.116261
1.74896e-20
-5.5825e-20
-9.14221e-20
0
1.13221e-20
1.60757e-19
-1.97587e-19
0
8.24881e-21
1.80252e-19
-1.46285e-19
0
5.30098e-21
1.1877e-19
-1.01201e-19
0
2.74377e-21
6.02795e-20
-8.07021e-05
8.07021e-05
8.83334e-22
-0.00150072
0.00670352
-0.00259792
1.40607e-19
-0.0166383
0.033877
-0.00596297
0
-0.0638763
0.114717
-0.00854885
0
-0.195392
0.31385
-0.0101019
-2.1684e-19
-0.471382
0.651918
-0.0101392
-4.33681e-19
-0.835178
1.01364
-0.0101337
0
-1.12092
1.12226
-0.0106666
0
-1.11796
1.11085
-0.00944145
0
-1.08963
1.02032
-0.0050142
0
-0.854355
0.606654
-0.00317448
0
-0.411404
0.377605
-0.00385002
0
-0.381525
0.386242
-0.0046922
-1.19262e-18
-0.393164
0.404282
-0.0078494
-9.32414e-18
-0.422462
0.450529
-0.0147079
-1.47451e-17
-0.496638
0.587808
-0.0248779
-2.60209e-18
-0.756354
0.855447
-0.0255932
-4.12262e-07
-0.840885
0.724418
-0.0357383
-0.000236013
-0.480293
0.557965
-0.0429727
-0.00332455
-2.09064
5.78494
-0.0467486
0.014765
-6.85817
6.87588
-0.0856856
0.0679737
-6.88277
6.89855
-0.128448
0.112668
-6.92341
6.95479
-0.139059
0.107678
-6.98499