/*--------------------------------*- C++ -*----------------------------------*\
| =========                 |                                                 |
| \\      /  F ield         | OpenFOAM: The Open Source CFD Toolbox           |
|  \\    /   O peration     | Version:  v1912                                 |
|   \\  /    A nd           | Website:  www.openfoam.com                      |
|    \\/     M anipulation  |                                                 |
\*---------------------------------------------------------------------------*/
FoamFile
{
    version     2.0;
    format      ascii;
    class       volScalarField;
    location    "38";
    object      alpha.water;
}
// * * * * * * * * * * * * * * * * * * * * * * * * * * * * * * * * * * * * * //

dimensions      [0 0 0 0 0 0 0];


internalField   nonuniform List<scalar> 
20320
(
1
1
1
1
1
1
1
1
1
1
1
1
1
1
1
1
1
1
1
1
1
1
1
1
1
1
1
1
1
1
1
1
1
1
1
1
1
1
1
1
1
1
1
1
1
1
1
1
1
1
1
1
1
1
1
1
1
1
1
1
1
1
1
1
1
1
1
1
1
1
1
1
1
1
1
1
1
1
1
1
1
1
1
1
1
1
1
1
1
1
1
1
1
1
1
1
1
1
1
1
1
1
1
1
1
1
1
1
1
1
1
1
1
1
1
1
1
1
1
1
1
1
1
1
1
1
1
1
1
1
1
1
1
1
1
1
1
1
1
1
1
1
1
1
1
1
1
1
1
1
1
1
1
1
1
1
1
1
1
1
1
1
1
1
1
1
1
1
1
1
1
1
1
1
1
1
1
1
1
1
1
1
1
1
1
1
1
1
1
1
1
1
1
1
1
1
1
1
1
1
1
1
1
1
1
1
1
1
1
1
1
1
1
1
1
1
1
1
1
1
1
1
1
1
1
1
1
1
1
1
1
1
1
1
1
1
1
1
1
1
1
1
1
1
1
1
1
1
1
1
1
1
1
1
1
1
1
1
1
1
1
1
1
1
1
1
1
1
1
1
1
1
1
1
1
1
1
1
1
1
1
1
1
1
1
1
1
1
1
1
1
1
1
1
1
1
1
1
1
1
1
1
1
1
1
1
1
1
1
1
1
1
1
1
1
1
1
1
1
1
1
1
1
1
1
1
1
1
1
1
1
1
1
1
1
1
1
1
1
1
1
1
1
1
1
1
1
1
1
1
1
1
1
1
1
1
1
1
1
1
1
1
1
1
1
1
1
1
1
1
1
1
1
1
1
1
1
1
1
1
1
1
1
1
1
1
1
1
1
1
1
1
1
1
1
1
1
1
1
1
0.982959
0.999878
0.999878
0.999878
0.99943
0.994914
0.998114
1
1
1
1
0.569985
0.983965
0.990714
0.997225
0.997225
0.97523
0.900707
0.13901
0.831152
1
1
1
1
1
1
1
1
1
1
0.999667
0.999031
0.999137
1
1
1
1
0.63206
0.630215
0.628668
0.679382
1
0.922426
0.2548
0.25463
0.25463
0.2548
0.374392
0.171124
0.123351
0.131126
0.117025
0.0912738
0.175716
0.234412
0.0376503
0.964197
0.957704
0.908748
0.940755
0.982773
0.934918
0.839354
0.839361
0.843173
0.993313
0.98647
0.961254
0.969793
0.936577
0.99995
0.789084
0.0954804
0.0333613
3.78476e-05
8.91097e-20
-1.80202e-20
1.16291e-19
-1.43353e-21
0.80102
1
1
1
1
1
1
1
1
1
1
1
1
1
1
1
1
1
1
1
1
1
1
1
1
1
1
1
0.999278
0.999821
1
0.999907
0.999724
1
0.989364
0.0287252
0.000718591
0.091242
1
1
1
0.982924
1
1
1
1
0.995525
0.941983
0.945731
0.938266
0.998525
1
1
0.666789
1.33513e-19
1.94663e-08
1.18805e-08
1.73197e-23
7.61723e-06
-1.38025e-19
1
1
1
1
1
1
1
1
1
1
1
1
1
1
1
1
1
1
1
1
1
1
1
1
1
1
1
1
1
1
1
1
1
1
0.957656
0.000718591
0.0346995
0.974907
1
1
1
0.819591
0.960126
0.989714
0.992393
0.983091
0.97017
0.990718
1
1
0.867128
0.853784
0.988354
1
0.959867
0.0192873
2.41981e-10
0.000410558
7.7249e-08
0.587307
1
1
1
1
1
1
1
1
1
1
1
1
1
1
1
1
1
1
1
1
1
1
1
1
1
1
1
1
1
1
1
1
1
1
0.990078
0.971558
0.999168
1
1
1
1
1
0.670663
0.666705
0.666702
0.813214
0.944831
0.797719
0.797719
0.913236
0.99963
0.983999
0.853796
0.858765
0.999619
0.262711
2.90573e-18
0.000703166
6.99717e-20
1
1
1
1
1
1
1
1
1
1
1
1
1
1
1
1
1
1
1
1
1
1
1
1
1
1
1
1
1
1
1
1
1
1
1
1
1
1
1
1
1
1
1
1
1
1
1
1
1
1
0.9993
0.997458
1
0.985803
0.92375
1
1
0.0791737
-1.98142e-21
0.556203
1
1
1
1
1
1
1
1
1
1
1
1
0.999999
0.999802
0.999885
1
1
1
1
1
1
1
1
1
1
1
1
1
1
1
1
1
1
1
1
1
1
1
1
1
1
1
0.999997
0.999945
0.999957
0.999998
1
0.998545
0.998456
0.99964
0.994663
0.999965
0.999985
0.999999
1
1
0.845894
0.00144246
-2.09736e-21
0.997462
1
1
1
1
1
1
0.782718
0.394574
0.146066
0.00800366
-1.21949e-20
-2.83496e-20
-2.13564e-20
-1.46415e-20
5.77087e-23
0.000811364
0.00450283
0.0153944
0.042285
0.0908279
0.148194
0.184436
0.182921
0.174528
0.123164
0.0633799
0.0621588
0.0638677
0.0690043
0.0833688
0.128376
0.124315
0.0670427
0.554331
1
1
1
1
1
1
1
1
0.999995
0.999995
0.982695
0.996771
0.999968
1
1
0.999991
1
0.946933
0.999397
1
0.997864
0.950805
0.0572215
0.167667
0.383845
1
1
1
1
1
0.741359
7.25911e-21
-2.35994e-21
-4.56435e-20
-3.43607e-20
-3.20788e-20
-3.68893e-20
-3.85752e-20
-3.55489e-20
-3.04747e-20
-2.70996e-20
-2.65973e-20
-2.8066e-20
-3.02008e-20
-3.15272e-20
-3.16987e-20
-3.0879e-20
-2.94942e-20
-2.79199e-20
-2.1541e-20
7.02458e-20
6.71751e-18
1.76739e-16
1.00585e-15
9.25226e-16
6.25148e-17
8.58513e-06
1.64607e-05
2.13824e-05
0.00144167
0.00885752
0.0456813
0.740665
0.921164
0.850227
0.835561
0.847243
0.721224
0.993205
0.702574
0.681245
0.681245
0.681245
0.686336
0.955807
0.999958
0.978979
0.980794
1
0.945114
0.99965
0.991438
0.893904
-8.60129e-20
0.937065
1
1
1
1
0.680659
1.77712e-20
-1.72427e-20
-1.43161e-20
-1.2972e-20
-1.31197e-20
-1.34197e-20
-1.3576e-20
-1.36711e-20
-1.37982e-20
-1.38848e-20
-1.37675e-20
-1.33242e-20
-1.2649e-20
-1.20019e-20
-1.15434e-20
-1.1286e-20
-1.11787e-20
-1.11756e-20
-1.11371e-20
-6.3872e-21
2.54167e-19
1.59055e-17
9.30227e-17
1.75563e-15
8.35162e-13
1.47256e-10
-1.50578e-26
-1.25269e-26
3.81426e-13
1.80104e-20
-4.66763e-22
-9.95437e-23
-1.66244e-22
-1.84782e-21
-1.83189e-22
-6.83743e-24
-1.05639e-22
-3.87284e-22
0.9836
0.99865
1
1
1
0.979305
0.876074
0.903761
0.999948
0.92117
0.99833
0.953215
1
0.808488
0.265775
0.0183775
1
1
1
1
0.98899
1.02665e-19
-2.60281e-20
-1.55238e-20
-1.04236e-20
-8.75846e-21
-8.2014e-21
-8.04694e-21
-8.02951e-21
-8.01898e-21
-7.99346e-21
-7.94059e-21
-7.82057e-21
-7.61104e-21
-7.37094e-21
-7.19807e-21
-7.12012e-21
-7.10922e-21
-7.13156e-21
-7.16302e-21
-7.19757e-21
-7.22847e-21
-7.25025e-21
-7.25976e-21
-7.26574e-21
-7.29167e-21
-7.37321e-21
-7.55473e-21
-7.87721e-21
-8.35641e-21
-8.96669e-21
-9.65053e-21
-1.03766e-20
-1.11499e-20
-1.18651e-20
-1.23584e-20
-1.26142e-20
-1.26884e-20
-1.26328e-20
-1.24737e-20
0.997071
0.727909
0.984624
1
0.999572
0.99998
0.999964
0.980078
0.946571
0.833827
0.929227
1
1
7.07692e-19
1.00242e-11
0.731026
1
1
1
1
0.106178
-1.1362e-20
-1.24654e-20
-9.07167e-21
-7.03712e-21
-5.81601e-21
-5.07906e-21
-4.6762e-21
-4.48212e-21
-4.38808e-21
-4.33038e-21
-4.2837e-21
-4.2452e-21
-4.22313e-21
-4.23412e-21
-4.28605e-21
-4.35599e-21
-4.40956e-21
-4.42784e-21
-4.41036e-21
-4.36684e-21
-4.3103e-21
-4.25377e-21
-4.21088e-21
-4.19878e-21
-4.23772e-21
-4.34769e-21
-4.54354e-21
-4.82899e-21
-5.19488e-21
-5.62581e-21
-6.11418e-21
-6.6749e-21
-7.31997e-21
-7.95893e-21
-8.42972e-21
-8.64133e-21
-8.57445e-21
-8.26289e-21
-7.76634e-21
0.849369
0.571536
1
0.980588
0.999963
1
0.995548
1
1
0.834255
0.993787
0.999997
1
0.126792
-6.42862e-20
0.995289
1
1
1
0.789965
-1.15822e-19
-1.21721e-20
-1.01844e-20
-6.77277e-21
-4.74407e-21
-3.54254e-21
-2.83109e-21
-2.42136e-21
-2.19284e-21
-2.06871e-21
-2.00957e-21
-1.99961e-21
-2.03047e-21
-2.09179e-21
-2.17076e-21
-2.25222e-21
-2.3177e-21
-2.35272e-21
-2.35442e-21
-2.33094e-21
-2.29611e-21
-2.26476e-21
-2.25017e-21
-2.26331e-21
-2.31277e-21
-2.40366e-21
-2.53633e-21
-2.70564e-21
-2.90216e-21
-3.11602e-21
-3.34179e-21
-3.58047e-21
-3.83557e-21
-4.09673e-21
-4.31677e-21
-4.43574e-21
-4.42407e-21
-4.28411e-21
-4.03986e-21
-3.72418e-21
0.748569
1
0.93159
0.984412
0.970138
0.872467
0.826584
0.85062
1
1
1
1
0.974012
0.371804
0.059796
1
1
1
1
0.0650202
-2.21172e-20
-1.20778e-20
-7.35029e-21
-4.51538e-21
-2.88634e-21
-1.95726e-21
-1.43487e-21
-1.13568e-21
-9.63349e-22
-8.71691e-22
-8.37538e-22
-8.45369e-22
-8.8026e-22
-9.26979e-22
-9.72586e-22
-1.00835e-21
-1.02978e-21
-1.03725e-21
-1.03629e-21
-1.0356e-21
-1.04406e-21
-1.06848e-21
-1.11259e-21
-1.17704e-21
-1.25982e-21
-1.35668e-21
-1.46166e-21
-1.56806e-21
-1.67013e-21
-1.76493e-21
-1.85284e-21
-1.93545e-21
-2.01106e-21
-2.06848e-21
-2.08507e-21
-2.04214e-21
-1.94007e-21
-1.79489e-21
-1.62866e-21
-1.45889e-21
0.498674
1
0.673388
0.991777
0.871419
0.983475
0.943282
0.8266
1
1
1
1
0.853808
8.94762e-20
0.720681
1
1
1
0.894983
-4.67434e-19
-7.66615e-21
-6.69197e-21
-4.36929e-21
-2.68908e-21
-1.5881e-21
-9.70658e-22
-6.39749e-22
-4.59821e-22
-3.62801e-22
-3.15804e-22
-3.00508e-22
-3.04228e-22
-3.17143e-22
-3.32081e-22
-3.45054e-22
-3.55217e-22
-3.64015e-22
-3.74188e-22
-3.88803e-22
-4.10251e-22
-4.39468e-22
-4.75676e-22
-5.16637e-22
-5.59174e-22
-5.99807e-22
-6.35305e-22
-6.63118e-22
-6.81773e-22
-6.91305e-22
-6.93371e-22
-6.90458e-22
-6.8431e-22
-6.74471e-22
-6.57776e-22
-6.30061e-22
-5.90536e-22
-5.43582e-22
-4.9553e-22
-4.51031e-22
-4.11413e-22
0.311719
0.887719
0.984921
0.991603
1
1
0.999912
0.96754
0.999998
0.844902
0.646211
0.152876
-7.32941e-20
-6.55247e-25
0.984695
1
1
1
0.145885
-2.917e-20
-6.31258e-21
-3.92847e-21
-2.6031e-21
-1.49252e-21
-7.86541e-22
-4.18888e-22
-2.38583e-22
-1.50716e-22
-1.08663e-22
-9.00116e-23
-8.33798e-23
-8.26552e-23
-8.45642e-23
-8.75919e-23
-9.14266e-23
-9.64569e-23
-1.03266e-22
-1.1223e-22
-1.23271e-22
-1.35745e-22
-1.48493e-22
-1.60055e-22
-1.69016e-22
-1.7434e-22
-1.75574e-22
-1.72847e-22
-1.66751e-22
-1.58195e-22
-1.48251e-22
-1.37994e-22
-1.28262e-22
-1.19507e-22
-1.1175e-22
-1.04667e-22
-9.7844e-23
-9.11042e-23
-8.46466e-23
-7.88195e-23
-7.35648e-23
-6.83563e-23
0.34388
0.703035
1
1
0.999647
1
1
1
0.484509
-2.08364e-19
1.18183e-20
1.30353e-05
1.86161e-08
1.78603e-18
1
1
1
1
6.4307e-19
-8.76454e-21
-3.82643e-21
-2.60839e-21
-1.57394e-21
-7.75742e-22
-3.43737e-22
-1.50454e-22
-7.00182e-23
-3.71981e-23
-2.37495e-23
-1.81938e-23
-1.59598e-23
-1.52455e-23
-1.5358e-23
-1.60507e-23
-1.72471e-23
-1.89028e-23
-2.09237e-23
-2.31273e-23
-2.52438e-23
-2.69546e-23
-2.79616e-23
-2.80696e-23
-2.72447e-23
-2.56178e-23
-2.34362e-23
-2.09838e-23
-1.85153e-23
-1.62197e-23
-1.42098e-23
-1.25279e-23
-1.11545e-23
-1.0028e-23
-9.06854e-24
-8.20164e-24
-7.37801e-24
-6.58303e-24
-5.83247e-24
-5.16554e-24
-4.63479e-24
-4.21359e-24
0.297973
0.70072
1
0.997649
1
0.998494
1
1
0.0362386
1.43771e-06
4.24801e-06
2.31723e-06
0.000267773
0.597713
1
1
1
0.506692
-5.23029e-21
-3.64177e-21
-2.92205e-21
-1.80272e-21
-8.98876e-22
-3.61578e-22
-1.26116e-22
-4.19203e-23
-1.4765e-23
-6.20456e-24
-3.35554e-24
-2.29955e-24
-1.87693e-24
-1.72601e-24
-1.71712e-24
-1.79157e-24
-1.91269e-24
-2.04966e-24
-2.17254e-24
-2.25257e-24
-2.26665e-24
-2.2025e-24
-2.06282e-24
-1.86409e-24
-1.63165e-24
-1.39186e-24
-1.16564e-24
-9.65605e-25
-7.96491e-25
-6.57615e-25
-5.45372e-25
-4.54967e-25
-3.81559e-25
-3.2082e-25
-2.69418e-25
-2.25138e-25
-1.86793e-25
-1.53941e-25
-1.26399e-25
-1.03873e-25
-8.5806e-26
-7.14649e-26
0.285437
0.839025
1
0.97798
0.998011
0.979642
0.979642
0.999957
2.22815e-22
3.53277e-24
0.0363636
0.0433872
4.98177e-21
0.950507
1
1
1
0.0751005
-9.17435e-21
-3.50114e-21
-2.31455e-21
-1.1697e-21
-4.64853e-22
-1.43506e-22
-3.60202e-23
-8.14332e-24
-1.94237e-24
-5.93434e-25
-2.58893e-25
-1.55101e-25
-1.16126e-25
-9.98665e-26
-9.26455e-26
-8.89035e-26
-8.59309e-26
-8.22673e-26
-7.72074e-26
-7.0565e-26
-6.25779e-26
-5.37822e-26
-4.48363e-26
-3.63585e-26
-2.87997e-26
-2.23895e-26
-1.7166e-26
-1.30327e-26
-9.8306e-27
-7.38609e-27
-5.53778e-27
-4.14857e-27
-3.10642e-27
-2.32424e-27
-1.73647e-27
-1.29503e-27
-9.65047e-28
-7.20589e-28
-5.41525e-28
-4.11805e-28
-3.18524e-28
-2.51552e-28
0.747712
0.947551
1
0.903327
0.998738
1
1
1
0.045258
0.405674
0.552278
3.41821e-05
1.68418e-18
1
1
1
1
3.69109e-19
-3.79683e-21
-3.16804e-21
-1.72433e-21
-6.97825e-22
-2.09816e-22
-4.53601e-23
-7.1866e-24
-9.30913e-25
-1.25679e-25
-2.49487e-26
-8.48359e-27
-4.31722e-27
-2.76023e-27
-1.98942e-27
-1.52625e-27
-1.20768e-27
-9.67172e-28
-7.744e-28
-6.1438e-28
-4.79535e-28
-3.66313e-28
-2.72878e-28
-1.97878e-28
-1.39736e-28
-9.62944e-29
-6.49588e-29
-4.3064e-29
-2.81667e-29
-1.82451e-29
-1.17446e-29
-7.53786e-30
-4.83809e-30
-3.11349e-30
-2.01426e-30
-1.31411e-30
-8.68534e-31
-5.86043e-31
-4.08767e-31
-3.00327e-31
-2.38429e-31
-2.10399e-31
-2.10623e-31
0.951405
0.720215
0.988588
0.797942
0.999995
0.999996
1
1
0.0527651
0.64185
2.62575e-19
8.49143e-08
0.581389
1
1
1
0.500274
1.9831e-21
-4.33203e-21
-2.62321e-21
-1.16374e-21
-3.68806e-22
-7.84088e-23
-1.04096e-23
-8.39042e-25
-4.48219e-26
-2.41183e-27
-2.80951e-28
-7.23881e-29
-2.7111e-29
-1.23252e-29
-6.36748e-30
-3.60077e-30
-2.16195e-30
-1.34261e-30
-8.44907e-31
-5.30434e-31
-3.28621e-31
-1.99548e-31
-1.18355e-31
-6.851e-32
-3.87665e-32
-2.15102e-32
-1.17585e-32
-6.36851e-33
-3.44114e-33
-1.87293e-33
-1.04164e-33
-6.05906e-34
-3.81555e-34
-2.70956e-34
-2.23167e-34
-2.12422e-34
-2.26729e-34
-2.62374e-34
-3.21689e-34
-4.13364e-34
-5.55121e-34
-7.80031e-34
-1.14591e-33
0.787677
0.410576
0.996672
0.837302
1
0.954342
1
1
0.369152
0.64185
-1.02472e-22
-6.6355e-20
0.942383
1
1
1
0.0915945
-6.23788e-22
-3.61617e-21
-1.87701e-21
-6.94656e-22
-1.65587e-22
-2.24419e-23
-1.47564e-24
-3.85047e-26
-3.12468e-28
-3.33249e-30
-3.68888e-31
-5.21145e-32
-9.53046e-33
-2.17455e-33
-5.86051e-34
-1.89882e-34
-7.35012e-35
-3.03551e-35
-1.3049e-35
-5.76057e-36
-2.59245e-36
-1.1925e-36
-5.704e-37
-2.96083e-37
-1.78672e-37
-1.32547e-37
-1.19214e-37
-1.21394e-37
-1.31419e-37
-1.45967e-37
-1.63765e-37
-1.84586e-37
-2.08871e-37
-2.37663e-37
-2.72692e-37
-3.16788e-37
-3.74495e-37
-4.53342e-37
-5.66217e-37
-7.36027e-37
-1.00512e-36
-1.45362e-36
-2.22717e-36
0.955751
0.481269
0.676572
0.873025
0.669321
0.00683348
0.29191
0.94109
0.44935
0.261071
-1.4811e-22
-4.71575e-19
1
1
1
1
1.16065e-19
-5.92677e-21
-2.82857e-21
-1.26766e-21
-3.69534e-22
-6.03293e-23
-4.34262e-24
-8.98699e-26
-6.88902e-29
-6.66422e-32
-1.97962e-33
-5.67793e-35
-1.14731e-36
-2.29563e-38
-7.48698e-40
-5.16009e-41
-1.52365e-41
-1.24918e-41
-1.31623e-41
-1.47661e-41
-1.70235e-41
-1.96843e-41
-2.27191e-41
-2.60646e-41
-2.96788e-41
-3.34915e-41
-3.7421e-41
-4.13891e-41
-4.53026e-41
-4.90834e-41
-5.27262e-41
-5.62664e-41
-5.98275e-41
-6.36426e-41
-6.80533e-41
-7.35664e-41
-8.09531e-41
-9.14105e-41
-1.06941e-40
-1.31119e-40
-1.70733e-40
-2.39481e-40
-3.66283e-40
-6.10426e-40
0.97284
0.97284
0.357505
0.9754
0.026791
4.73724e-07
1.80085e-20
0.273603
0.730177
8.76323e-23
0.000557479
0.533441
1
1
1
0.615133
-1.7645e-20
-4.50092e-21
-2.24724e-21
-8.05054e-22
-1.71218e-22
-1.65282e-23
-4.42009e-25
-2.17368e-28
-5.29429e-33
-5.01282e-35
-1.10882e-37
-5.34962e-40
-1.36991e-43
-5.00981e-45
-2.68282e-45
-1.72134e-45
-1.29687e-45
-1.11064e-45
-1.04003e-45
-1.0346e-45
-1.07424e-45
-1.14296e-45
-1.23928e-45
-1.35798e-45
-1.49095e-45
-1.63442e-45
-1.78497e-45
-1.93994e-45
-2.09855e-45
-2.26325e-45
-2.44139e-45
-2.64659e-45
-2.90057e-45
-3.23695e-45
-3.70865e-45
-4.40371e-45
-5.47869e-45
-7.23507e-45
-1.03025e-44
-1.61271e-44
-2.83983e-44
-5.77303e-44
-1.38462e-43
-3.89935e-43
0.43125
0.232577
0.623548
0.211843
0.15892
-9.4771e-22
5.97173e-06
-6.81743e-24
-5.74395e-20
0.00166815
-2.98079e-22
0.929053
1
1
1
0.141226
-5.38116e-21
-4.39571e-21
-1.67286e-21
-4.67786e-22
-6.56649e-23
-2.94654e-24
-9.06358e-27
-1.81829e-33
-5.40672e-36
-6.07538e-39
-5.39312e-43
-1.60552e-47
-2.62853e-48
-5.20626e-49
-1.42085e-49
-5.61383e-50
-3.17762e-50
-2.4554e-50
-2.41423e-50
-2.78926e-50
-3.55509e-50
-4.80364e-50
-6.71693e-50
-9.58164e-50
-1.38364e-49
-1.99663e-49
-2.85682e-49
-4.02459e-49
-5.48811e-49
-7.32223e-49
-9.59937e-49
-1.24385e-48
-1.60685e-48
-2.09121e-48
-2.77382e-48
-3.80292e-48
-5.47609e-48
-8.4477e-48
-1.43016e-47
-2.73721e-47
-6.14084e-47
-1.68227e-46
-5.80972e-46
-2.47899e-45
0.000308779
0.016553
0.113971
0.0455641
-2.60617e-23
6.2272e-09
4.79975e-24
-1.85243e-22
1.34409e-05
5.17739e-06
1.52959e-18
1
1
1
1
-1.06909e-18
-6.75187e-21
-3.03577e-21
-1.12341e-21
-2.37879e-22
-1.91771e-23
-2.37734e-25
-2.11437e-33
-3.35013e-36
-1.8032e-39
-8.21794e-44
-1.33675e-49
-7.99868e-51
-4.69528e-52
-3.75937e-53
-1.00824e-53
-8.40963e-54
-9.44078e-54
-1.1506e-53
-1.46572e-53
-1.92289e-53
-2.58003e-53
-3.53079e-53
-4.90715e-53
-6.88598e-53
-9.6682e-53
-1.34757e-52
-1.84892e-52
-2.49831e-52
-3.29606e-52
-4.22744e-52
-5.34793e-52
-6.6705e-52
-8.36399e-52
-1.0704e-51
-1.42021e-51
-1.98987e-51
-3.00877e-51
-5.04145e-51
-9.67725e-51
-2.21962e-50
-6.40931e-50
-2.47049e-49
-1.32191e-48
-9.23437e-48
0.000308779
0.0254172
0.0127045
5.20495e-30
1.7314e-13
9.93255e-12
3.72457e-22
0.000711932
0.000711932
3.52056e-07
0.57594
1
1
1
0.819039
4.83891e-20
-2.66932e-21
-2.16595e-21
-6.9937e-22
-1.01199e-22
-3.67048e-24
-1.71005e-28
-1.02602e-35
-2.91469e-39
-1.42344e-43
-5.97649e-51
-1.25073e-52
-1.96034e-54
-2.99224e-56
-4.90301e-57
-4.14416e-57
-4.00756e-57
-4.12999e-57
-4.47953e-57
-5.06962e-57
-5.9371e-57
-7.14473e-57
-8.76878e-57
-1.08963e-56
-1.36703e-56
-1.7271e-56
-2.1881e-56
-2.75904e-56
-3.43042e-56
-4.17986e-56
-5.00855e-56
-5.97217e-56
-7.1788e-56
-8.79603e-56
-1.12911e-55
-1.53688e-55
-2.28018e-55
-3.78939e-55
-7.30546e-55
-1.70788e-54
-5.12263e-54
-2.11349e-53
-1.29101e-52
-1.20321e-51
-1.47929e-50
0.0037671
0.00363998
0.0379014
-3.64401e-28
3.12817e-10
1.61765e-15
2.00274e-05
8.03078e-05
0.000702573
1.91534e-22
0.962816
1
1
1
0.221867
0
-3.59973e-21
-1.67069e-21
-3.88275e-22
-3.33818e-23
-3.0625e-25
-1.09023e-34
-1.72664e-38
-1.07073e-42
-2.38674e-51
-1.60477e-53
-7.55294e-56
-1.82808e-58
-1.83796e-60
-8.99445e-61
-5.69799e-61
-4.11732e-61
-3.31778e-61
-2.93164e-61
-2.79155e-61
-2.81162e-61
-2.94836e-61
-3.18275e-61
-3.50755e-61
-3.91997e-61
-4.40988e-61
-4.96846e-61
-5.59222e-61
-6.27487e-61
-7.01347e-61
-7.8442e-61
-8.89133e-61
-1.03682e-60
-1.2684e-60
-1.67929e-60
-2.45868e-60
-4.05796e-60
-7.91544e-60
-1.88711e-59
-5.79774e-59
-2.45662e-58
-1.5496e-57
-1.56071e-56
-2.49531e-55
-4.96054e-54
0.00178402
0.00040015
0.0357795
3.04923e-28
3.86289e-09
9.68153e-09
1.55391e-07
7.75816e-07
7.18199e-05
0.019352
1
1
1
1
0.0025967
-4.04813e-21
-3.12716e-21
-1.12821e-21
-1.8328e-22
-7.51472e-24
-4.35041e-33
-4.82582e-37
-3.38196e-41
-1.10271e-50
-2.16652e-53
-3.19233e-56
-7.11484e-59
-1.9905e-60
-6.61193e-62
-2.06604e-63
-6.94968e-65
-5.98578e-66
-2.19253e-66
-1.30336e-66
-9.25355e-67
-7.32284e-67
-6.24988e-67
-5.63765e-67
-5.28381e-67
-5.06745e-67
-4.91631e-67
-4.80009e-67
-4.70611e-67
-4.67524e-67
-5.04577e-67
-7.73157e-67
-2.30706e-66
-1.0384e-65
-5.02372e-65
-2.34809e-64
-1.03626e-63
-4.2893e-63
-1.65895e-62
-5.9666e-62
-1.98246e-61
-6.06288e-61
-1.70579e-60
-4.33246e-60
-1.09974e-59
-5.68803e-59
0.0108265
-2.23909e-22
0.0348148
2.88983e-28
6.66738e-11
-8.76499e-27
2.87099e-06
0.000572608
2.94229e-24
0.752716
1
1
1
0.919226
-8.74531e-20
-6.86239e-21
-2.44063e-21
-6.73842e-22
-6.98985e-23
-8.31478e-25
-6.23576e-35
-2.98416e-39
-5.29833e-47
-5.28548e-52
-1.60568e-55
-1.14068e-57
-4.20584e-59
-1.47045e-60
-4.76533e-62
-1.42938e-63
-3.95552e-65
-1.00542e-66
-2.33528e-68
-4.93443e-70
-9.44492e-72
-1.68873e-73
-1.64565e-74
-4.88381e-74
-2.11185e-73
-1.09736e-72
-6.63878e-72
-4.45485e-71
-3.16948e-70
-2.31316e-69
-1.69123e-68
-1.20489e-67
-8.10401e-67
-5.04346e-66
-2.88702e-65
-1.52307e-64
-7.42814e-64
-3.35318e-63
-1.39827e-62
-5.36936e-62
-1.88876e-61
-6.04949e-61
-1.75247e-60
-4.56922e-60
-1.07666e-59
-2.33327e-59
0.00413037
-3.04648e-23
0.0340789
2.63063e-28
3.48472e-08
1.34016e-07
5.53674e-23
0.000157506
-1.14378e-19
1
1
1
1
0.258759
-1.30434e-20
-4.16933e-21
-1.74167e-21
-3.54441e-22
-1.94358e-23
-1.03479e-27
-3.92601e-37
-1.16139e-41
-3.50191e-47
-1.39193e-52
-2.1241e-56
-8.2958e-58
-3.07783e-59
-1.05845e-60
-3.36616e-62
-9.89554e-64
-2.68573e-65
-6.71562e-67
-1.54237e-68
-3.24178e-70
-6.20849e-72
-1.08011e-73
-2.9056e-75
-5.1308e-75
-2.50758e-74
-1.46877e-73
-9.93417e-73
-7.38871e-72
-5.7903e-71
-4.65633e-70
-3.76318e-69
-2.99959e-68
-2.30474e-67
-1.6517e-66
-1.07955e-65
-6.40338e-65
-3.45712e-64
-1.70329e-63
-7.6598e-63
-3.13485e-62
-1.16324e-61
-3.89123e-61
-1.16634e-60
-3.10856e-60
-7.28259e-60
-1.43408e-59
0.0091654
0.0157063
0.00164499
6.08896e-25
9.61785e-06
1.44788e-07
4.33051e-05
8.27083e-05
0.483589
1
1
1
1
0.00287798
-4.22504e-21
-3.62648e-21
-1.15683e-21
-1.54886e-22
-3.12454e-24
-4.10867e-34
-1.12224e-38
-1.36043e-42
-2.45347e-47
-6.74538e-53
-1.51887e-56
-5.93875e-58
-2.16946e-59
-7.35094e-61
-2.30392e-62
-6.66646e-64
-1.77902e-65
-4.37266e-67
-9.87981e-69
-2.04991e-70
-3.89618e-72
-6.75257e-74
-1.1559e-75
-4.49235e-76
-2.33506e-75
-1.49756e-74
-1.10252e-73
-8.86036e-73
-7.48621e-72
-6.48437e-71
-5.64999e-70
-4.87211e-69
-4.0911e-68
-3.27656e-67
-2.42164e-66
-1.61352e-65
-9.6425e-65
-5.17594e-64
-2.49556e-63
-1.07881e-62
-4.15925e-62
-1.4192e-61
-4.23616e-61
-1.08688e-60
-2.32466e-60
-3.89903e-60
0.0091654
0.00026903
-1.77378e-23
3.56257e-06
5.68435e-06
1.20411e-08
0.00071477
-2.11725e-22
0.988369
1
1
1
0.871737
-2.10539e-20
-6.98996e-21
-2.86238e-21
-6.7034e-22
-5.16137e-23
-1.24542e-25
-9.97145e-36
-4.50472e-39
-8.8715e-43
-1.70103e-47
-3.90893e-53
-1.06943e-56
-4.10817e-58
-1.47424e-59
-4.91368e-61
-1.5173e-62
-4.33102e-64
-1.1403e-65
-2.76348e-67
-6.15423e-69
-1.25892e-70
-2.36325e-72
-4.0589e-74
-6.40922e-76
-3.77286e-77
-1.64222e-76
-1.11659e-75
-8.68743e-75
-7.35631e-74
-6.5391e-73
-5.95368e-72
-5.45499e-71
-4.94731e-70
-4.38346e-69
-3.73187e-68
-2.99732e-67
-2.2018e-66
-1.44321e-65
-8.36951e-65
-4.28446e-64
-1.9295e-63
-7.59068e-63
-2.57977e-62
-7.45182e-62
-1.78504e-61
-3.42471e-61
-5.02362e-61
-3.86727e-26
-2.46181e-24
2.42301e-06
2.38848e-05
8.17781e-08
0.000215313
8.12209e-05
0.36089
1
1
1
1
0.187681
-2.09946e-20
-4.93198e-21
-1.83083e-21
-3.24105e-22
-1.09335e-23
-1.18116e-32
-4.29368e-36
-2.64539e-39
-5.2093e-43
-1.13267e-47
-2.62483e-53
-7.25876e-57
-2.74501e-58
-9.68335e-60
-3.17006e-61
-9.61946e-63
-2.70208e-64
-7.01836e-66
-1.68089e-67
-3.70153e-69
-7.48926e-71
-1.38988e-72
-2.36135e-74
-3.66558e-76
-6.60159e-78
-8.44372e-78
-5.82538e-77
-4.63925e-76
-4.02248e-75
-3.65678e-74
-3.40417e-73
-3.18555e-72
-2.95153e-71
-2.66797e-70
-2.31996e-69
-1.90978e-68
-1.46528e-67
-1.01908e-66
-6.25368e-66
-3.34147e-65
-1.54219e-64
-6.0956e-64
-2.03781e-63
-5.66116e-63
-1.27424e-62
-2.24797e-62
-3.00004e-62
3.54674e-07
1.82567e-06
2.99208e-05
4.84083e-08
1.01937e-07
0.00069782
-2.20767e-19
0.99456
1
1
1
1
2.89196e-20
-4.34738e-21
-3.29657e-21
-1.12293e-21
-1.24089e-22
-8.61623e-25
-2.94611e-33
-2.458e-36
-1.39685e-39
-2.74648e-43
-6.97234e-48
-1.77729e-53
-4.72778e-57
-1.76289e-58
-6.1287e-60
-1.97352e-61
-5.88252e-63
-1.62324e-64
-4.14849e-66
-9.79839e-68
-2.13376e-69
-4.27685e-71
-7.87133e-73
-1.3266e-74
-2.04118e-76
-2.91173e-78
-3.3889e-79
-2.04661e-78
-1.60065e-77
-1.37397e-76
-1.23973e-75
-1.14398e-74
-1.05866e-73
-9.67906e-73
-8.61714e-72
-7.36208e-71
-5.94233e-70
-4.45799e-69
-3.06559e-68
-1.89024e-67
-1.01669e-66
-4.67441e-66
-1.81118e-65
-5.82705e-65
-1.52911e-64
-3.20124e-64
-5.23802e-64
-6.73455e-64
7.37235e-10
2.03176e-05
3.36573e-07
4.77899e-08
0.0002742
0.000116201
0.614436
1
1
1
1
0.526968
-1.98209e-21
-4.25509e-21
-2.32332e-21
-6.05495e-22
-3.16579e-23
-2.87629e-30
-1.67332e-33
-1.27279e-36
-6.50603e-40
-1.27508e-43
-3.76897e-48
-1.0642e-53
-2.95021e-57
-1.08391e-58
-3.71641e-60
-1.17963e-61
-3.46161e-63
-9.39494e-65
-2.36052e-66
-5.4863e-68
-1.17783e-69
-2.33391e-71
-4.25784e-73
-7.12753e-75
-1.0908e-76
-1.52156e-78
-2.70472e-80
-4.83307e-80
-3.47778e-79
-2.82e-78
-2.43671e-77
-2.16e-76
-1.91658e-75
-1.67439e-74
-1.41804e-73
-1.14775e-72
-8.73333e-72
-6.14726e-71
-3.93594e-70
-2.25386e-69
-1.13541e-68
-4.91178e-68
-1.78033e-67
-5.29908e-67
-1.27178e-66
-2.43212e-66
-3.75258e-66
-4.97668e-66
0.000107777
1.03122e-05
1.41917e-10
1.47275e-25
0.000560161
0.0406775
1
1
1
1
1
0.038606
-5.55653e-21
-3.25416e-21
-1.61046e-21
-2.65395e-22
-3.64443e-24
-2.41066e-30
-1.46049e-33
-7.52863e-37
-2.78398e-40
-5.07422e-44
-1.69142e-48
-5.20453e-54
-1.75935e-57
-6.36935e-59
-2.15355e-60
-6.73854e-62
-1.94866e-63
-5.21143e-65
-1.28973e-66
-2.95148e-68
-6.2411e-70
-1.21916e-71
-2.19756e-73
-3.64535e-75
-5.54373e-77
-7.69575e-79
-9.86065e-81
-9.33406e-82
-5.01648e-81
-3.5418e-80
-2.76741e-79
-2.26751e-78
-1.87619e-77
-1.52775e-76
-1.20297e-75
-9.00403e-75
-6.30879e-74
-4.06671e-73
-2.37421e-72
-1.23275e-71
-5.58572e-71
-2.17108e-70
-7.12926e-70
-1.94669e-69
-4.39652e-69
-8.3208e-69
-1.35898e-68
-1.87065e-68
1.45769e-05
1.6163e-22
0.00101479
0.000691444
7.85216e-19
0.975568
1
1
1
1
0.845014
-7.36593e-20
-5.62127e-21
-2.92719e-21
-1.0024e-21
-7.89757e-23
-6.55922e-27
-3.66116e-30
-3.0928e-33
-1.2053e-36
-1.89884e-40
-1.78829e-44
-5.98671e-49
-1.98084e-54
-9.97151e-58
-3.56169e-59
-1.1892e-60
-3.67014e-62
-1.04598e-63
-2.75652e-65
-6.72385e-67
-1.5172e-68
-3.16457e-70
-6.0985e-72
-1.08485e-73
-1.77816e-75
-2.67798e-77
-3.69207e-79
-4.64152e-81
-6.49201e-83
-5.95474e-83
-3.25328e-82
-2.04123e-81
-1.41422e-80
-1.03011e-79
-7.55736e-79
-5.40824e-78
-3.68908e-77
-2.35294e-76
-1.37983e-75
-7.31895e-75
-3.45388e-74
-1.43127e-73
-5.13527e-73
-1.57857e-72
-4.14521e-72
-9.33948e-72
-1.8169e-71
-3.02139e-71
-4.11496e-71
1.47989e-05
0.000744281
7.71752e-05
-2.60753e-19
0.897145
1
1
1
1
1
0.099598
-1.92786e-38
-4.85131e-21
-2.2763e-21
-4.98343e-22
-1.13596e-23
-2.99391e-27
-7.24266e-30
-8.19506e-33
-3.36793e-36
-3.8001e-40
-9.32479e-45
-1.62235e-49
-5.71646e-55
-5.35078e-58
-1.88607e-59
-6.23022e-61
-1.89935e-62
-5.34023e-64
-1.38681e-65
-3.3316e-67
-7.40704e-69
-1.52353e-70
-2.89883e-72
-5.09487e-74
-8.25609e-76
-1.23013e-77
-1.67994e-79
-2.09519e-81
-2.39221e-83
-9.12103e-85
-3.00152e-84
-1.42852e-83
-7.37118e-83
-4.12307e-82
-2.44022e-81
-1.4732e-80
-8.7432e-80
-4.95276e-79
-2.61702e-78
-1.26524e-77
-5.51291e-77
-2.13774e-76
-7.30802e-76
-2.19304e-75
-5.76109e-75
-1.32154e-74
-2.61889e-74
-4.34512e-74
-5.77066e-74
7.6046e-05
9.35056e-06
-4.1739e-19
0.910018
1
1
1
1
1
0.851902
-3.40976e-20
-4.96329e-21
-3.90076e-21
-1.51094e-21
-1.86768e-22
-6.66725e-25
-3.86497e-27
-1.2614e-29
-1.72023e-32
-7.76425e-36
-8.79807e-40
-1.54991e-44
-6.50165e-50
-1.50998e-55
-2.7153e-58
-9.43816e-60
-3.0848e-61
-9.29806e-63
-2.58278e-64
-6.62028e-66
-1.5676e-67
-3.43296e-69
-6.95512e-71
-1.30491e-72
-2.26485e-74
-3.62791e-76
-5.34986e-78
-7.23582e-80
-8.94744e-82
-1.0076e-83
-1.08718e-85
-2.57325e-86
-1.06738e-85
-4.6486e-85
-2.07157e-84
-9.50396e-84
-4.4804e-83
-2.13923e-82
-1.01298e-81
-4.64536e-81
-2.01622e-80
-8.13277e-80
-3.0016e-79
-1.00172e-78
-2.99071e-78
-7.90104e-78
-1.82123e-77
-3.58216e-77
-5.83091e-77
-7.60414e-77
0.213478
0.130741
1
1
1
1
1
1
1
0.0565281
-5.38098e-21
-4.83835e-21
-3.07024e-21
-8.53331e-22
-6.05019e-23
-6.77011e-25
-4.78828e-27
-1.86738e-29
-3.19475e-32
-1.91746e-35
-3.37849e-39
-1.59548e-43
-1.87669e-48
-3.31971e-54
-1.29729e-58
-4.44718e-60
-1.43876e-61
-4.2896e-63
-1.17739e-64
-2.97939e-66
-6.96333e-68
-1.50384e-69
-3.00436e-71
-5.55535e-73
-9.50763e-75
-1.50336e-76
-2.1916e-78
-2.93475e-80
-3.59594e-82
-4.01702e-84
-4.07809e-86
-4.76314e-88
-4.5276e-88
-1.9584e-87
-8.40831e-87
-3.57491e-86
-1.50905e-85
-6.32795e-85
-2.6231e-84
-1.06662e-83
-4.19146e-83
-1.56724e-82
-5.48575e-82
-1.76699e-81
-5.1548e-81
-1.33974e-80
-3.0491e-80
-5.92624e-80
-9.54692e-80
-1.2352e-79
1
1
1
1
1
1
1
1
1
1
1
1
1
1
1
1
1
1
1
1
1
1
1
1
1
1
1
1
1
1
1
1
1
1
1
1
1
1
1
1
1
1
1
1
1
1
1
1
1
1
1
1
1
1
1
1
1
1
1
1
1
1
1
1
1
1
1
1
1
1
1
1
1
1
1
1
1
1
1
1
1
1
1
1
1
1
1
1
1
1
1
1
1
1
1
1
1
1
1
1
1
1
1
1
1
1
1
1
1
1
1
1
1
1
1
1
1
1
1
1
1
1
1
1
1
1
1
1
1
1
1
1
1
1
1
1
1
1
1
1
1
1
1
1
1
1
1
1
1
1
1
1
1
1
1
1
1
1
1
1
1
1
1
1
1
1
1
1
1
1
1
1
1
1
1
1
1
1
1
1
1
1
1
1
1
1
1
1
1
1
1
1
1
1
1
1
1
1
1
1
1
1
1
1
1
1
1
1
1
1
1
1
1
1
1
1
1
1
1
1
1
1
1
1
1
1
1
1
1
1
1
1
1
1
1
1
1
1
1
1
1
1
1
1
1
1
1
1
1
1
1
1
1
1
0.999652
0.989215
0.95303
0.884089
0.779095
0.601735
-4.78355e-33
0.273676
0.273019
0.262254
0.244943
0.222259
0.195921
0.16669
0.135703
0.103636
0.0711512
0.0391617
0.00635403
-5.70348e-22
-3.49893e-22
-2.10668e-22
-9.64985e-23
-7.3887e-23
-1.37043e-22
-1.28339e-22
-2.08387e-33
-1.13497e-33
-2.11704e-33
-4.74624e-33
-8.44668e-33
-1.36271e-32
-2.05629e-32
-2.94128e-32
-4.00823e-32
-5.2044e-32
-6.44735e-32
-7.79007e-32
-1.01125e-31
-1.34316e-31
-1.64461e-31
-1.75313e-31
-1.60147e-31
-1.26295e-31
-9.77243e-32
-8.58935e-32
-1.56888e-33
-3.38218e-35
-4.70527e-35
-1.41231e-34
-4.16998e-34
-8.48808e-34
-1.44367e-33
-2.16564e-33
-2.93524e-33
-3.6458e-33
-4.22266e-33
-4.75705e-33
-5.78593e-33
-7.90664e-33
-9.33201e-33
-9.04521e-33
-7.13683e-33
-4.63368e-33
-2.61957e-33
-1.4541e-33
-8.17956e-34
-7.52101e-37
-8.28196e-37
-2.46658e-36
-7.475e-36
-1.8413e-35
-3.52471e-35
-5.64678e-35
-7.89143e-35
-9.88226e-35
-1.13866e-34
-1.25351e-34
-1.39406e-34
-1.57762e-34
-1.58751e-34
-1.32607e-34
-9.04649e-35
-5.06507e-35
-2.3812e-35
-9.78361e-36
-2.96172e-34
-1.58928e-38
-1.72887e-38
-6.10637e-38
-1.85566e-37
-4.77679e-37
-9.78224e-37
-1.60667e-36
-2.23109e-36
-2.71784e-36
-2.98455e-36
-3.02743e-36
-2.88858e-36
-2.56944e-36
-2.03405e-36
-1.38075e-36
-7.93167e-37
-3.86546e-37
-1.62127e-37
-5.98236e-38
-9.03948e-35
-1.05202e-38
-4.2405e-40
-1.47453e-39
-5.05135e-39
-1.31135e-38
-2.69159e-38
-4.35604e-38
-5.79916e-38
-6.65311e-38
-6.75998e-38
-6.1839e-38
-5.12734e-38
-3.83216e-38
-2.5425e-38
-1.47588e-38
-7.44533e-39
-3.26868e-39
-1.25871e-39
-4.30138e-40
-2.25922e-35
-1.71296e-38
-1.42567e-40
-3.18402e-41
-1.19023e-40
-3.18562e-40
-6.35323e-40
-9.82882e-40
-1.23271e-39
-1.32129e-39
-1.24346e-39
-1.03851e-39
-7.71309e-40
-5.07932e-40
-2.95036e-40
-1.50469e-40
-6.72547e-41
-2.63915e-41
-9.13887e-42
-2.8128e-42
-1.96745e-36
-1.49517e-38
-8.99982e-41
-9.06789e-43
-2.20414e-42
-5.88871e-42
-1.1315e-41
-1.64183e-41
-1.92931e-41
-1.94402e-41
-1.71582e-41
-1.32745e-41
-8.9628e-42
-5.26666e-42
-2.69295e-42
-1.20038e-42
-4.68026e-43
-1.60406e-43
-4.86474e-44
-1.31599e-44
-5.83217e-39
-1.04006e-39
-7.85198e-42
-3.87818e-44
-2.83176e-44
-7.18249e-44
-1.30061e-43
-1.75797e-43
-1.94138e-43
-1.8598e-43
-1.55526e-43
-1.11797e-43
-6.8305e-44
-3.5444e-44
-1.57282e-44
-6.02994e-45
-2.01921e-45
-5.96784e-46
-1.57187e-46
-3.72268e-47
-2.00712e-43
-9.93751e-43
-1.16024e-44
-1.15124e-46
-1.979e-46
-4.56724e-46
-7.66013e-46
-9.6394e-46
-1.01099e-45
-9.32384e-46
-7.41099e-46
-4.90464e-46
-2.66387e-46
-1.19571e-46
-4.52219e-47
-1.47401e-47
-4.2214e-48
-1.07632e-48
-2.4632e-49
-5.09143e-50
-1.35294e-48
-1.43034e-47
-2.00199e-49
-1.68381e-49
-4.42044e-49
-9.13265e-49
-1.42114e-48
-1.68303e-48
-1.70559e-48
-1.53176e-48
-1.15199e-48
-6.8892e-49
-3.24103e-49
-1.22876e-49
-3.91147e-50
-1.08417e-50
-2.66338e-51
-5.8188e-52
-1.13379e-52
-1.98989e-53
1
1
1
1
1
1
1
1
1
1
1
1
1
1
1
1
1
1
1
1
1
1
1
1
1
1
1
1
1
1
1
1
1
1
1
1
1
1
1
1
1
1
1
1
1
1
1
1
1
1
1
1
1
1
1
1
1
1
1
1
1
1
1
1
1
1
1
1
1
1
1
1
1
1
1
1
1
1
1
1
1
1
1
1
1
1
1
1
1
1
1
1
1
1
1
1
1
1
1
1
1