/*--------------------------------*- C++ -*----------------------------------*\
| =========                 |                                                 |
| \\      /  F ield         | OpenFOAM: The Open Source CFD Toolbox           |
|  \\    /   O peration     | Version:  v1912                                 |
|   \\  /    A nd           | Website:  www.openfoam.com                      |
|    \\/     M anipulation  |                                                 |
\*---------------------------------------------------------------------------*/
FoamFile
{
    version     2.0;
    format      ascii;
    class       volScalarField;
    location    "38";
    object      epsilon;
}
// * * * * * * * * * * * * * * * * * * * * * * * * * * * * * * * * * * * * * //

dimensions      [0 2 -3 0 0 0 0];


internalField   nonuniform List<scalar> 
20320
(
4.44144e-05
0.000214352
0.000220194
0.000225972
0.00023164
0.000237152
0.000242448
0.000247459
0.000252102
0.00025628
0.000259887
0.000262806
0.000264902
0.000266006
0.00026593
0.000264434
0.000261065
0.0002548
0.000242816
0.000216022
4.40134e-05
4.39262e-05
4.46692e-05
4.64428e-05
4.97712e-05
5.53193e-05
6.39165e-05
7.66138e-05
9.47724e-05
0.000120128
0.000154819
0.000201485
0.000263344
0.000343995
0.000447532
0.000577873
0.000736168
0.000913531
0.00106796
0.00112696
4.44238e-05
4.49254e-05
4.61383e-05
4.8181e-05
5.15e-05
5.67077e-05
6.46999e-05
7.68174e-05
9.50524e-05
0.000122317
0.000162726
0.00022182
0.000306685
0.000425954
0.000589182
0.000804732
0.00107393
0.00137579
0.00162943
0.00185624
4.50112e-05
4.65119e-05
4.88036e-05
5.19426e-05
5.63951e-05
6.28052e-05
7.21113e-05
8.57307e-05
0.000105864
0.000135932
0.000181135
0.000249042
0.000349958
0.000496798
0.000704283
0.000986359
0.00134808
0.00176327
0.00212577
0.00257197
4.57382e-05
4.85753e-05
5.23161e-05
5.69518e-05
6.29689e-05
7.10483e-05
8.21786e-05
9.78546e-05
0.000120405
0.000153511
0.000203011
0.00027793
0.000391437
0.0005609
0.000806226
0.00114585
0.00158726
0.00210089
0.00256646
0.00326986
4.65832e-05
5.10992e-05
5.66989e-05
6.33084e-05
7.14226e-05
8.17528e-05
9.53323e-05
0.000113721
0.000139341
0.000176025
0.000229938
0.000310987
0.000434534
0.000622323
0.000900555
0.00129332
0.00180933
0.0024127
0.00297329
0.00396599
4.7518e-05
5.40245e-05
6.18869e-05
7.09728e-05
8.17716e-05
9.50091e-05
0.000111748
0.0001336
0.000163072
0.000204113
0.000263088
0.000350425
0.000482977
0.000686182
0.000992962
0.00143499
0.00202323
0.00271274
0.0033622
0.00466714
4.8508e-05
5.72698e-05
6.7775e-05
7.98495e-05
9.39663e-05
0.00011085
0.000131571
0.000157775
0.000192037
0.00023841
0.000303422
0.000397851
0.000539582
0.000756971
0.00108934
0.00157735
0.00223655
0.00301251
0.00375095
0.00538714
4.95111e-05
6.07208e-05
7.41882e-05
8.97333e-05
0.000107814
0.000129148
0.000154794
0.00018641
0.000226624
0.000279578
0.000351948
0.000454807
0.000606835
0.000838724
0.0011956
0.00172783
0.00245779
0.0033222
0.00415117
0.00613973
5.04783e-05
6.42252e-05
8.08668e-05
0.000100279
0.00012293
0.000149547
0.000181176
0.000219471
0.000267099
0.000328278
0.000409823
0.00052309
0.000687468
0.000935645
0.00131801
0.00189484
0.0026973
0.00365437
0.00457714
0.00693979
5.13558e-05
6.75955e-05
8.74642e-05
0.000110986
0.000138704
0.000171407
0.000210164
0.000256637
0.00031353
0.000385128
0.000478381
0.000604948
0.000784936
0.00105293
0.0014643
0.00208951
0.00297052
0.00403039
0.00505743
0.00781459
5.20889e-05
7.06188e-05
9.35622e-05
0.000121213
0.000154297
0.000193777
0.000240834
0.000297205
0.000365674
0.000450613
0.000559124
0.000703211
0.000903798
0.00119748
0.00164468
0.00232643
0.00329714
0.00447452
0.00561722
0.0087952
5.26287e-05
7.30793e-05
9.87119e-05
0.000130231
0.000168692
0.000215411
0.000271863
0.000340015
0.000422865
0.00052497
0.000653667
0.00082142
0.00105019
0.00137898
0.0018738
0.00262732
0.00370861
0.00503012
0.0063087
0.00993464
5.29383e-05
7.47863e-05
0.00010249
0.000137299
0.000180779
0.00023484
0.000301533
0.000383356
0.000483812
0.000607916
0.000763486
0.000963748
0.00123219
0.00161104
0.00217334
0.00302572
0.00425544
0.00576954
0.00722321
0.0113383
5.29988e-05
7.56047e-05
0.000104569
0.000141784
0.0001895
0.000250503
0.00032781
0.000424924
0.000546394
0.000698268
0.000889447
0.00113464
0.0014599
0.00191252
0.00257569
0.00357511
0.00502272
0.00681749
0.00850887
0.0131498
5.28126e-05
7.54805e-05
0.000104775
0.000143267
0.000194016
0.000260954
0.000348519
0.000461875
0.000607476
0.000793447
0.00103101
0.00133788
0.00174497
0.00230851
0.00312887
0.004363
0.00616461
0.00842811
0.0105169
0.0157669
5.24033e-05
7.44516e-05
0.000103127
0.00014163
0.000193865
0.00026509
0.000361605
0.000491002
0.000662819
0.000888907
0.00118498
0.00157475
0.0020985
0.00282943
0.00390081
0.00553082
0.00796339
0.0111193
0.0140026
0.0200483
5.18115e-05
7.26401e-05
9.98339e-05
0.000137088
0.000189065
0.000262375
0.000365472
0.000509101
0.000707239
0.000977679
0.00134395
0.00184075
0.00252587
0.00350483
0.00497649
0.00729313
0.0109373
0.0160578
0.0210543
0.0286986
5.10877e-05
7.02302e-05
9.52526e-05
0.00013015
0.000180136
0.000252995
0.000359349
0.000513545
0.000735213
0.00105054
0.00149514
0.00212177
0.00301832
0.00434798
0.00643557
0.00992653
0.0159631
0.0258837
0.0382266
0.0528728
5.02857e-05
6.74345e-05
8.98221e-05
0.000121522
0.00016801
0.00023787
0.000343552
0.00050294
0.000741934
0.0010971
0.0016204
0.00239081
0.00354179
0.00532792
0.00828825
0.0136381
0.0241297
0.0455972
0.0862448
0.165456
0.744064
1.94433
2.83108
3.55192
4.16124
4.64221
4.94628
5.59573
6.6079
7.72721
12.3619
71.4853
203.822
410.923
719.693
1237.21
2086.74
3719.6
6120.13
5117.51
2072.59
1187.94
788.303
568.611
431.724
339.709
274.628
226.898
190.868
162.982
140.928
123.137
108.588
96.6247
86.76
78.7353
72.1946
66.0056
60.5867
55.9091
51.9724
49.1843
47.2494
44.9191
42.7074
40.8606
39.1776
37.6834
36.4618
35.411
34.1695
33.3874
34.1059
37.8993
50.8196
44.6906
31.0751
26.9986
25.7494
25.7231
1.45112
0.845095
1.01256
1.23157
1.45955
1.68829
1.96097
2.38973
3.09495
4.25434
6.52968
30.7297
156.491
308.722
529.537
989.136
1907.98
4043.14
9435.42
2891.62
1119.21
631.259
417.123
299.852
226.733
177.43
142.445
116.71
97.2499
82.1853
70.2766
60.6859
52.846
46.367
40.9678
36.429
32.5813
29.2919
26.4837
24.1096
22.1364
20.4621
19.0482
17.848
16.8271
15.9485
15.1921
14.5193
13.882
13.2882
12.7898
12.618
13.4733
17.5783
29.2576
31.1904
19.6193
13.2481
10.4699
9.36566
2.23769
1.06224
1.0707
1.20899
1.39878
1.62583
1.92555
2.40253
3.19641
4.48102
6.40366
12.0816
53.2374
198.753
542.167
1199.21
2351
5351
5575.83
1940.99
870.659
512.923
350.816
259.139
200.029
158.989
129.2
106.919
89.8654
76.543
65.9309
57.3207
50.2205
44.291
39.2948
35.0557
31.435
28.3333
25.6835
23.4265
21.5216
19.9181
18.5574
17.4013
16.4242
15.5909
14.8694
14.2352
13.6609
13.1262
12.6554
12.3938
12.6976
14.4664
18.7873
17.5699
13.6744
11.259
9.92856
9.25027
3.12972
1.36316
1.29576
1.39754
1.58191
1.83729
2.19476
2.76836
3.75019
5.38506
7.82443
11.4853
25.257
93.9856
327.126
992.253
2034.22
4124.01
2237.79
1070.18
576.539
370.803
268.317
206.641
164.812
134.597
111.953
94.5396
80.8766
69.9659
61.1074
53.7981
47.6776
42.4918
38.0608
34.2525
30.9664
28.133
25.7012
23.6227
21.8586
20.3652
19.0937
18.011
17.0924
16.3077
15.6272
15.0279
14.487
13.9851
13.5249
13.1497
12.9506
13.1043
13.4856
13.0895
12.1786
11.3688
10.7944
10.4306
4.06683
1.70248
1.60486
1.69507
1.89043
2.1943
2.63985
3.35417
4.61556
6.86075
10.6204
16.6795
31.7754
87.7549
264.051
772.956
1975.1
1981.5
1126.62
631.87
382.307
260.796
195.316
154.542
126.577
106.321
90.9734
78.8896
69.1175
61.0743
54.366
48.7036
43.87
39.7005
36.0768
32.9164
30.1608
27.7684
25.7034
23.9304
22.4159
21.1237
20.0163
19.0648
18.2459
17.5347
16.9064
16.3409
15.8232
15.3441
14.9037
14.5004
14.1491
13.9086
13.7707
13.5488
13.2272
12.9014
12.6256
12.4175
5.11109
2.07786
1.98588
2.08987
2.31262
2.68444
3.25551
4.17263
5.8397
9.08235
15.3976
27.8346
58.0457
140.489
343.238
921.924
2730.5
1444.47
784.755
450.93
279.879
191.858
143.458
113.982
94.7659
81.4561
71.5548
63.7241
57.2948
51.9022
47.319
43.3786
39.9535
36.9377
34.2555
31.8767
29.7837
27.9521
26.356
24.9711
23.7722
22.7307
21.8178
21.0113
20.2929
19.6442
19.0466
18.4853
17.9542
17.4615
17.0268
16.6465
16.3148
16.0673
15.9207
15.8072
15.6863
15.5508
15.4044
15.2647
6.40306
2.51453
2.45248
2.60376
2.87093
3.32987
4.07378
5.29198
7.57151
12.4391
23.376
48.3725
111.034
257.405
569.892
1466.21
2456.37
1212.02
636.9
359.027
218.743
146.827
108.419
86.4346
72.7919
63.6412
57.1373
52.2104
48.3118
45.0966
42.3765
40.0193
37.9303
36.0078
34.2009
32.582
31.1624
29.8985
28.7652
27.7513
26.8433
26.0168
25.2491
24.5292
23.8476
23.1945
22.5579
21.9291
21.3101
20.727
20.2404
19.8762
19.6179
19.4739
19.4394
19.4487
19.4515
19.4125
19.3154
19.1814
7.98658
3.04366
3.02825
3.26633
3.60719
4.17619
5.15392
6.82418
10.0722
17.6485
36.6337
82.8762
204.57
473.781
983.231
2274.62
2238.57
1028.73
527.195
289.549
172.271
114.402
85.5739
69.9414
59.3365
52.6847
48.3658
45.325
43.0696
41.3025
39.8444
38.6051
37.5626
36.7823
36.2367
35.6958
35.0581
34.3253
33.5535
32.7901
32.0569
31.3283
30.5838
29.8379
29.0935
28.3482
27.5999
26.8504
26.1164
25.441
24.9176
24.5513
24.3607
24.361
24.4911
24.6589
24.7753
24.7845
24.6694
24.4715
9.6521
3.67281
3.73661
4.11072
4.57837
5.29645
6.58733
8.94561
13.7709
25.8974
58.4087
136.763
354.475
895.797
1801.64
3961.95
1830.14
853.879
426.207
227.783
134.272
91.7356
72.2596
59.6384
51.2235
45.9773
42.7387
40.7018
39.4105
38.412
37.5776
36.8866
36.3673
36.033
35.8003
35.6482
35.5096
35.2461
34.8342
34.3304
33.7845
33.2027
32.5992
32.0092
31.4289
30.8706
30.361
29.9407
29.6719
29.6208
29.8438
30.1918
30.5766
31.0283
31.4522
31.85
32.0907
32.0968
31.8733
31.5185
11.0974
4.38939
4.58684
5.15765
5.83625
6.79009
8.51298
11.9215
19.3754
39.1502
93.9019
219.789
566.257
1697.03
3731.17
3840.62
1556
691.522
332.431
174.187
105.189
78.1024
62.8707
52.3847
45.3366
40.9341
38.2283
36.5826
35.722
35.2274
34.8751
34.6097
34.4382
34.3243
34.1443
33.9654
33.888
33.8063
33.6147
33.314
32.9481
32.5504
32.1605
31.8129
31.5075
31.2675
31.1385
31.1762
31.4343
31.9407
32.7184
33.7351
34.8854
36.0547
37.1397
37.9312
38.2813
38.2143
37.7934
37.1927
12.5445
5.21284
5.60621
6.45775
7.44235
8.76198
11.1358
16.162
28.0632
60.7362
152.028
357.191
839.058
2826.56
7962.93
3173.59
1246.2
536.098
249.759
131.543
85.49
68.3787
56.4363
46.8723
40.195
35.9807
33.4747
32.0561
31.4092
31.2245
31.2575
31.3821
31.5371
31.6429
31.5915
31.4619
31.4044
31.3895
31.3229
31.1782
30.9828
30.7766
30.6026
30.4902
30.448
30.5017
30.6943
31.0693
31.6546
32.4562
33.4876
34.7109
35.9438
36.9992
38.0056
38.7811
39.0793
38.9215
38.4073
37.7407
14.6923
6.1489
6.82133
8.07028
9.47183
11.3152
14.6506
22.2204
41.7176
96.6019
248.47
602.672
1310.08
3128.06
5775.84
2376.61
953.761
399.615
182.715
101.044
74.3823
62.24
51.0118
41.9649
35.411
31.1113
28.5367
27.1506
26.5924
26.5823
26.8829
27.3207
27.7715
28.1235
28.2923
28.3404
28.3959
28.4742
28.5239
28.5233
28.4921
28.4657
28.4805
28.5605
28.7181
28.9748
29.3597
29.8971
30.5967
31.4555
32.4648
33.553
34.5476
35.3516
36.0965
36.6605
36.8418
36.6383
36.1517
35.5675
17.7563
7.18359
8.25059
10.0449
12.0349
14.5665
19.2365
30.6078
62.8441
156.594
411.016
1040.71
2389.34
4716.42
5099.71
1904.38
723.656
288.545
132.754
81.791
67.9407
56.8812
46.135
37.3338
30.8353
26.4417
23.7328
22.2679
21.7004
21.7589
22.2087
22.8521
23.5288
24.1111
24.5259
24.8083
25.0433
25.2603
25.4437
25.5877
25.7096
25.8383
26.0013
26.2173
26.4977
26.857
27.3105
27.8682
28.53
29.2858
30.1091
30.9255
31.6259
32.1907
32.6977
33.0629
33.157
32.9758
32.6044
32.1811
19.7523
8.32501
9.89864
12.4287
15.2332
18.6754
25.0501
41.7393
94.2747
256.053
688.398
1795.34
4517.58
8402.04
4549.58
1515.87
524.413
201.073
98.7149
71.9082
62.7418
51.8794
41.4417
32.8345
26.4265
22.0262
19.2513
17.7194
17.1149
17.1787
17.6824
18.4241
19.2341
19.9838
20.6029
21.0985
21.5163
21.883
22.2023
22.48
22.7327
22.9821
23.2482
23.5446
23.8803
24.2634
24.7006
25.1945
25.7403
26.325
26.9203
27.4748
27.9411
28.3306
28.6752
28.9167
28.9812
28.8685
28.6384
28.3817
19.7771
9.41199
11.7086
15.2639
19.1784
23.8269
32.2731
55.7319
138.409
421.111
1176.28
3076.52
8710.76
13364
3470.21
1059.89
350.947
137.862
78.2387
66.9021
58.0852
47.0646
36.7815
28.4012
22.1844
17.9036
15.1827
13.6648
13.0543
13.1047
13.6004
14.3524
15.2027
16.0332
16.776
17.4172
17.9742
18.4639
18.8959
19.28
19.63
19.9616
20.2886
20.6208
20.9647
21.3254
21.7059
22.1061
22.5212
22.9405
23.3454
23.7124
24.0303
24.3132
24.5667
24.7506
24.8242
24.7892
24.6823
24.5573
18.8206
10.324
13.6329
18.5957
24.0457
30.2271
41.059
72.0302
191.471
684.203
2091.27
4675
10500.4
7941.68
2161.94
662.316
224.478
97.756
68.2029
63.4659
53.4026
42.201
32.1098
24.0541
18.1528
14.1228
11.5788
10.1691
9.6036
9.64559
10.0984
10.7978
11.6108
12.4377
13.2165
13.9223
14.5542
15.1188
15.623
16.0749
16.4842
16.8611
17.2149
17.553
17.8807
18.2023
18.5203
18.835
19.144
19.4423
19.7233
19.9823
20.2219
20.4494
20.6584
20.8218
20.9172
20.9462
20.9304
20.9003
17.254
11.0175
15.6301
22.4889
30.1227
38.3426
51.5154
88.9381
236.782
782.988
1843.78
3713.1
8126.37
3707.87
1217.88
400.303
146.045
75.095
65.0935
59.5993
48.6244
37.2846
27.4817
19.8682
14.4032
10.7394
8.47344
7.24675
6.76768
6.80957
7.20022
7.8075
8.52853
9.286
10.0279
10.7258
11.369
11.9552
12.486
12.9649
13.397
13.7883
14.145
14.473
14.7773
15.0624
15.3314
15.5862
15.8275
16.0557
16.2722
16.4802
16.6843
16.8851
17.0731
17.2309
17.3464
17.4218
17.4701
17.508
16.1233
11.5422
17.6466
26.9956
37.8489
49.1148
64.7041
105.174
257.343
602.288
1355.76
2989.16
5213.58
2029.08
723.064
251.111
100.61
63.691
63.4357
55.4863
43.7339
32.3789
22.9895
15.9354
11.0115
7.80316
5.88394
4.88395
4.51099
4.55482
4.87318
5.36786
5.9662
6.61288
7.26772
7.90416
8.50696
9.06823
9.58414
10.0539
10.4786
10.8611
11.2055
11.5166
11.7991
12.0576
12.296
12.5172
12.7242
12.9203
13.11
13.2981
13.4867
13.6735
13.8504
14.0072
14.1386
14.2478
14.3433
14.432
17.0711
12.1987
19.6629
32.0986
47.7917
64.2123
83.335
125.418
255.746
569.838
1460.6
4183.16
4065.52
1362.84
467.636
164.565
74.4044
59.4494
60.7845
50.9568
38.6712
27.5347
18.7228
12.3411
8.04039
5.34639
3.80909
3.0491
2.78187
2.82354
3.06575
3.4424
3.9073
4.42421
4.96437
5.50577
6.03263
6.53418
7.0034
7.43617
7.83091
8.1883
8.51073
8.80178
9.06566
9.30641
9.52765
9.73285
9.92556
10.11
10.2905
10.4706
10.6509
10.8287
10.9991
11.1571
11.3022
11.4379
11.5701
11.6973
21.5679
13.4885
21.8228
37.6945
60.4985
86.364
112.478
158.695
292.154
659.297
1928.25
5910.48
2791.53
923.792
305.893
110.692
59.62
59.6515
57.2863
45.9664
33.5064
22.8427
14.7698
9.1557
5.53268
3.38115
2.23121
1.70091
1.52613
1.55942
1.72729
1.99129
2.32626
2.71088
3.12656
3.55664
3.98726
4.40743
4.8088
5.18574
5.53502
5.85577
6.14897
6.41686
6.6624
6.88853
7.09826
7.29442
7.48041
7.65966
7.83559
8.01026
8.18404
8.35541
8.5223
8.68362
8.84101
8.99832
9.15878
9.31346
28.2979
15.7405
24.8826
44.0171
76.2031
119.761
161.001
218.981
379.06
895.951
2669.08
6614.61
1950.92
608.895
197.633
76.8651
52.2808
59.3246
53.1029
40.6708
28.3659
18.4118
11.2124
6.42929
3.50822
1.90055
1.11996
0.793135
0.691755
0.712258
0.812764
0.976166
1.19343
1.45351
1.74707
2.06234
2.38906
2.7174
3.03954
3.34947
3.64328
3.91905
4.17643
4.41628
4.63997
4.84927
5.04607
5.23249
5.41093
5.58398
5.75396
5.92239
6.08986
6.25624
6.42148
6.58654
6.75397
6.92719
7.107
7.27822
35.5731
19.1315
29.8829
52.8195
95.4583
171.46
244.091
327.24
552.604
1408.11
4522.35
4574.8
1280.44
387.418
126.054
56.424
50.2614
57.1985
48.1217
35.1828
23.3959
14.3516
8.11584
4.191
1.96766
0.889949
0.43552
0.267794
0.220062
0.229265
0.276653
0.358522
0.474826
0.624567
0.805075
1.01054
1.23492
1.46976
1.70878
1.94658
2.17906
2.40371
2.61908
2.82475
3.02085
3.20783
3.38665
3.5585
3.72493
3.8877
4.04848
4.20855
4.36885
4.53011
4.69327
4.86003
5.03303
5.21475
5.4039
5.58059
43.3034
23.4585
37.118
66.7306
122.715
224.851
366.816
503.254
843.701
2071.91
5970.64
2679.83
778.833
234.27
80.1415
45.1783
52.1405
53.6986
42.6619
29.7094
18.7412
10.7496
5.5204
2.44778
0.927332
0.304247
0.100535
0.0452661
0.0327015
0.035108
0.0480534
0.0735564
0.11564
0.178159
0.263429
0.371344
0.499713
0.644801
0.801916
0.967253
1.13588
1.30556
1.47395
1.63977
1.80217
1.96073
2.11552
2.26697
2.41601
2.56375
2.71141
2.86008
3.01081
3.16459
3.32263
3.48657
3.65852
3.84002
4.02795
4.19965
59.85
28.6411
45.9021
85.6803
162.614
301.448
450.685
714.59
1255.17
2781.31
5305.24
1471.18
434.708
134.988
52.5506
40.4053
53.2066
49.3227
36.9363
24.4333
14.5196
7.6637
3.43855
1.23844
0.321009
0.0523099
0.00710969
0.00177633
0.00103165
0.0011433
0.00193642
0.00413244
0.00947009
0.0209304
0.0423553
0.0773793
0.128296
0.195516
0.277816
0.373051
0.478503
0.591785
0.71073
0.832936
0.957213
1.0824
1.2081
1.33415
1.46092
1.58907
1.7194
1.85279
1.99009
2.13221
2.28017
2.4352
2.59866
2.77104
2.94784
3.10574
80.6133
35.375
55.1228
106.98
216.619
336.914
457.21
746.988
1393.81
3088.16
2307.25
719.167
227.403
76.4369
37.677
40.4448
51.9775
43.9793
31.1805
19.5203
10.8141
5.11771
1.9135
0.492884
0.0572343
0.00204149
0.00015261
7.27759e-05
6.3174e-05
6.3106e-05
6.91005e-05
9.00684e-05
0.000165112
0.000450188
0.00147922
0.0046303
0.0123973
0.027892
0.0537686
0.0914533
0.141006
0.201522
0.271565
0.349514
0.433927
0.523434
0.617275
0.714689
0.815719
0.920627
1.02983
1.14393
1.26351
1.38922
1.52174
1.6618
1.80996
1.96567
2.12346
2.26117
67.0695
39.5197
62.6861
124.44
228.907
301.297
400.977
603.129
1022.7
1768.6
873.799
329.357
116.419
45.192
31.1312
44.0894
48.804
38.3406
25.6549
15.0982
7.66956
3.11857
0.905498
0.121874
0.00248788
8.23755e-05
5.41845e-05
5.19297e-05
5.13396e-05
5.11189e-05
5.10671e-05
5.12398e-05
5.20354e-05
5.48318e-05
6.48964e-05
0.000104999
0.00027513
0.000961833
0.00325716
0.00922662
0.0214398
0.0420005
0.0719115
0.111085
0.158791
0.214072
0.276093
0.344271
0.418286
0.498259
0.584027
0.676074
0.774671
0.880256
0.993202
1.11376
1.2418
1.37577
1.50961
1.62367
48.6198
39.5557
66.5565
128.811
208.572
269.705
373.271
536.299
742.601
775.821
379.928
161.148
62.863
29.9207
29.9168
46.737
44.5414
32.5435
20.5204
11.2411
5.09113
1.70601
0.320201
0.0108632
9.25967e-05
5.16124e-05
4.99075e-05
4.91296e-05
4.85714e-05
4.82116e-05
4.80156e-05
4.79713e-05
4.8056e-05
4.82422e-05
4.85805e-05
4.95615e-05
5.29365e-05
6.5378e-05
0.00011564
0.000329114
0.00117568
0.0039065
0.0106353
0.023513
0.043783
0.0716933
0.106974
0.149266
0.198326
0.254074
0.31655
0.385969
0.462589
0.546497
0.637934
0.736767
0.842346
0.952321
1.06031
1.14976
38.5646
36.7997
67.1023
127.319
186.034
244.899
359.923
521.25
642.049
417.164
205.438
89.1097
36.8144
23.3247
32.3794
46.4867
39.1053
26.8612
15.9004
7.98088
3.09225
0.783931
0.0629025
0.000278065
5.08591e-05
4.8619e-05
4.7904e-05
4.7245e-05
4.66643e-05
4.62117e-05
4.58937e-05
4.57213e-05
4.57032e-05
4.58198e-05
4.60161e-05
4.62986e-05
4.67295e-05
4.7594e-05
5.01435e-05
5.91401e-05
9.47461e-05
0.000246991
0.000880661
0.00306585
0.00865958
0.0193983
0.0361768
0.0592683
0.0887172
0.124571
0.166931
0.215955
0.27185
0.334788
0.404867
0.481768
0.564656
0.650493
0.732841
0.797592
40.7842
34.6479
66.3148
125.069
169.299
229.397
351.023
490.72
527.471
269.169
125.722
52.2731
23.5886
21.7116
37.3822
43.573
33.5166
21.5591
11.872
5.31176
1.68444
0.26271
0.00394519
5.62089e-05
4.72394e-05
4.66871e-05
4.61806e-05
4.56871e-05
4.52212e-05
4.47932e-05
4.44163e-05
4.41266e-05
4.39808e-05
4.39844e-05
4.41074e-05
4.43462e-05
4.46798e-05
4.51257e-05
4.58211e-05
4.71937e-05
5.10315e-05
6.49145e-05
0.000122441
0.000372201
0.0013594
0.00435645
0.0109258
0.0221002
0.0383562
0.0599401
0.0870442
0.119861
0.15857
0.203306
0.254058
0.310449
0.37129
0.43359
0.490665
0.527244
47.5855
36.2165
69.6018
128.475
161.172
232.687
362.963
483.437
356.804
176.853
77.203
30.6847
17.3952
23.3057
41.402
39.1785
27.8367
16.7636
8.46124
3.22489
0.767034
0.0467852
0.000135635
4.66344e-05
4.56042e-05
4.50854e-05
4.46303e-05
4.42433e-05
4.39221e-05
4.36217e-05
4.33082e-05
4.29985e-05
4.27782e-05
4.26729e-05
4.26792e-05
4.28099e-05
4.30661e-05
4.34646e-05
4.4017e-05
4.47805e-05
4.6051e-05
4.89369e-05
5.81674e-05
9.49161e-05
0.000253087
0.000893278
0.002948
0.00769671
0.0160458
0.0284307
0.0450823
0.0661603
0.0917751
0.121947
0.156514
0.194899
0.235676
0.275583
0.307365
0.313231
65.9849
41.3437
79.5039
129.157
164.946
257.85
386.266
444.171
243.861
112.292
44.7706
18.4141
15.6124
27.3736
41.0296
33.8355
22.4361
12.5492
5.65671
1.75236
0.251462
0.00263304
5.01116e-05
4.49639e-05
4.43982e-05
4.38649e-05
4.33872e-05
4.3003e-05
4.2724e-05
4.25117e-05
4.22969e-05
4.20707e-05
4.1894e-05
4.1763e-05
4.16921e-05
4.17194e-05
4.1863e-05
4.21466e-05
4.25822e-05
4.32051e-05
4.40941e-05
4.54577e-05
4.81818e-05
5.60287e-05
8.57252e-05
0.000210898
0.000713051
0.00233585
0.00613025
0.0128221
0.0226947
0.0358155
0.0521395
0.0714947
0.0934683
0.117193
0.140903
0.161045
0.170345
0.152674
92.0349
48.0507
83.3107
120.09
175.584
289.885
395.781
343.508
160.275
65.7727
24.1795
12.6321
16.7458
33.3724
38.0806
28.3503
17.4438
8.93071
3.42812
0.788552
0.0425452
0.000109933
4.46837e-05
4.38797e-05
4.34257e-05
4.29472e-05
4.24823e-05
4.20728e-05
4.17577e-05
4.15418e-05
4.13592e-05
4.12058e-05
4.11083e-05
4.10339e-05
4.09887e-05
4.09856e-05
4.10413e-05
4.12049e-05
4.15028e-05
4.19682e-05
4.2653e-05
4.36341e-05
4.51249e-05
4.78718e-05
5.50351e-05
8.05456e-05
0.000184624
0.000593215
0.00190388
0.00497581
0.0103707
0.018186
0.0282401
0.040152
0.0532649
0.0664493
0.0777325
0.0836507
0.0783707
0.0534875
100.954
52.1164
73.571
112.429
185.035
302.61
395.605
217.968
92.3608
33.7289
13.0399
11.0831
20.0029
37.0201
33.5788
22.8118
12.9629
5.92182
1.82421
0.249891
0.00219342
4.76377e-05
4.34538e-05
4.29285e-05
4.25157e-05
4.21179e-05
4.17406e-05
4.13824e-05
4.10756e-05
4.08352e-05
4.06191e-05
4.04606e-05
4.03871e-05
4.03637e-05
4.03776e-05
4.04102e-05
4.04666e-05
4.05833e-05
4.0777e-05
4.10946e-05
4.15929e-05
4.23183e-05
4.33679e-05
4.49506e-05
4.7688e-05
5.41455e-05
7.52792e-05
0.000156818
0.000465574
0.00144365
0.00375283
0.00781491
0.0135681
0.0205742
0.0280815
0.0349414
0.0394213
0.0389857
0.0304967
0.0131132
85.3634
49.4121
66.517
107.356
189.743
294.051
266.422
117.467
44.6257
15.5511
8.56142
12.1652
25.2973
35.8012
27.9238
17.584
9.11408
3.53087
0.788976
0.0387014
9.71741e-05
4.34434e-05
4.25978e-05
4.21134e-05
4.17031e-05
4.13404e-05
4.10339e-05
4.07591e-05
4.05262e-05
4.03225e-05
4.01095e-05
3.99329e-05
3.98281e-05
3.97864e-05
3.98083e-05
3.9873e-05
3.99701e-05
4.01051e-05
4.028e-05
4.05306e-05
4.0896e-05
4.14167e-05
4.21715e-05
4.32612e-05
4.48664e-05
4.75023e-05
5.30301e-05
6.89003e-05
0.000124454
0.000321705
0.000929356
0.00237449
0.00493937
0.00847501
0.0124055
0.0158148
0.0175133
0.0162221
0.0112144
0.00389039
64.0861
42.6104
61.3661
103.565
179.821
276.787
132.949
53.4022
18.581
7.84486
7.86195
15.0947
31.4414
31.9777
22.5582
12.9908
5.95275
1.79837
0.229402
0.00166142
4.57731e-05
4.23929e-05
4.18169e-05
4.13842e-05
4.10049e-05
4.06671e-05
4.03861e-05
4.01538e-05
3.99812e-05
3.98436e-05
3.96962e-05
3.95592e-05
3.94557e-05
3.93899e-05
3.93774e-05
3.94174e-05
3.95101e-05
3.96579e-05
3.98539e-05
4.01055e-05
4.04268e-05
4.08426e-05
4.14036e-05
4.21782e-05
4.32672e-05
4.48425e-05
4.72825e-05
5.17268e-05
6.22462e-05
9.33067e-05
0.000190707
0.000468069
0.00110685
0.00221616
0.00363161
0.00487015
0.00527315
0.00433035
0.00227524
0.000532477
48.1055
35.2758
56.806
108.576
195.866
139.464
58.4334
20.8106
7.85339
5.67651
9.19912
19.8143
33.5445
27.1443
17.3215
9.01944
3.46786
0.721248
0.0290511
8.10681e-05
4.23029e-05
4.1537e-05
4.103e-05
4.06492e-05
4.03304e-05
4.00575e-05
3.98222e-05
3.96192e-05
3.94674e-05
3.93587e-05
3.92663e-05
3.91951e-05
3.91482e-05
3.91138e-05
3.90995e-05
3.91154e-05
3.91735e-05
3.92883e-05
3.94648e-05
3.97084e-05
4.00224e-05
4.04095e-05
4.08878e-05
4.14918e-05
4.22806e-05
4.33514e-05
4.48469e-05
4.70222e-05
5.04676e-05
5.68687e-05
7.12012e-05
0.000106618
0.000189443
0.00035115
0.00058514
0.000793403
0.000816657
0.000589053
0.000278198
0.000105255
41.22
31.5157
56.3875
135.162
163.115
62.0784
21.6112
7.76222
4.55593
5.97549
11.9834
26.4735
30.1534
21.2387
12.3213
5.67961
1.65617
0.178532
0.000883069
4.39908e-05
4.14758e-05
4.08701e-05
4.03904e-05
4.00214e-05
3.97242e-05
3.94947e-05
3.93134e-05
3.91605e-05
3.90385e-05
3.89441e-05
3.88673e-05
3.88203e-05
3.881e-05
3.88218e-05
3.88512e-05
3.88957e-05
3.89548e-05
3.90454e-05
3.91831e-05
3.93798e-05
3.96493e-05
3.99994e-05
4.04336e-05
4.09602e-05
4.16046e-05
4.24086e-05
4.34422e-05
4.48185e-05
4.67076e-05
4.9384e-05
5.33944e-05
5.98257e-05
7.08315e-05
8.88235e-05
0.000112953
0.000134401
0.000138732
0.00012105
9.30253e-05
6.67786e-05
46.6086
42.3499
95.8067
147.539
54.3375
18.825
6.83546
3.72237
4.26604
7.62429
16.2835
29.6947
24.8798
15.7145
8.1362
3.11486
0.591366
0.0158979
6.36371e-05
4.16937e-05
4.08677e-05
4.02928e-05
3.98596e-05
3.95201e-05
3.92427e-05
3.90288e-05
3.88697e-05
3.87528e-05
3.86722e-05
3.86159e-05
3.85671e-05
3.85331e-05
3.85254e-05
3.85438e-05
3.85936e-05
3.86687e-05
3.87588e-05
3.88695e-05
3.9004e-05
3.9168e-05
3.93817e-05
3.96617e-05
4.00177e-05
4.04635e-05
4.10133e-05
4.16772e-05
4.24756e-05
4.34537e-05
4.46884e-05
4.62865e-05
4.83799e-05
5.11577e-05
5.47984e-05
5.9407e-05
6.48909e-05
7.04572e-05
7.44316e-05
7.48295e-05
6.99098e-05
5.91403e-05
95.3079
152.674
103.594
37.8568
13.2662
5.17811
2.94928
3.18823
5.39499
10.4349
22.3393
26.6529
19.1877
10.8889
4.86673
1.35823
0.118476
0.000353973
4.33115e-05
4.12288e-05
4.04477e-05
3.98547e-05
3.94188e-05
3.90887e-05
3.88367e-05
3.86473e-05
3.85037e-05
3.83996e-05
3.83349e-05
3.83036e-05
3.82932e-05
3.82997e-05
3.83192e-05
3.83482e-05
3.83964e-05
3.84691e-05
3.85665e-05
3.86923e-05
3.88425e-05
3.90139e-05
3.92131e-05
3.94475e-05
3.97281e-05
4.0074e-05
4.05055e-05
4.10362e-05
4.16742e-05
4.24317e-05
4.33282e-05
4.43996e-05
4.57068e-05
4.73181e-05
4.93019e-05
5.17332e-05
5.45921e-05
5.76903e-05
6.04914e-05
6.17899e-05
5.97787e-05
5.36064e-05
32.7424
53.2137
18.6369
7.20054
3.43461
2.29007
2.48045
4.01421
7.62079
14.619
25.4658
21.6991
13.7528
6.90793
2.51116
0.435237
0.00873275
6.5355e-05
4.20978e-05
4.08804e-05
4.01009e-05
3.952e-05
3.90845e-05
3.87513e-05
3.85045e-05
3.83295e-05
3.82074e-05
3.81247e-05
3.80732e-05
3.80478e-05
3.80453e-05
3.80667e-05
3.81092e-05
3.81664e-05
3.82351e-05
3.83142e-05
3.84074e-05
3.85237e-05
3.86665e-05
3.88366e-05
3.9037e-05
3.92657e-05
3.95195e-05
3.98052e-05
4.01375e-05
4.05316e-05
4.10041e-05
4.15696e-05
4.22364e-05
4.30085e-05
4.38936e-05
4.49149e-05
4.6114e-05
4.75146e-05
4.91299e-05
5.09318e-05
5.27413e-05
5.3997e-05
5.35518e-05
5.02951e-05
4.94551e-05
6.44619e-05
8.39889e-05
0.000111982
0.000153864
0.000218516
0.000319546
0.000477674
0.000724663
0.00110806
0.0016989
0.00260882
0.00403035
0.00633935
0.0103722
0.0182153
0.0355422
0.0788967
0.205332
0.874579
4.86144e-05
6.14617e-05
7.80767e-05
0.000102125
0.000138694
0.000196423
0.000289213
0.000439364
0.000682978
0.00107723
0.00171198
0.00273346
0.00439848
0.00721307
0.0123248
0.0227289
0.0471676
0.112435
0.303063
1.18811
4.77909e-05
5.85039e-05
7.22701e-05
9.23606e-05
0.000123299
0.000173001
0.000254715
0.000390704
0.000618819
0.00100222
0.00164508
0.00272269
0.00454684
0.0077272
0.0136208
0.025696
0.0537112
0.124838
0.309815
0.77542
4.70134e-05
5.57019e-05
6.68065e-05
8.31477e-05
0.000108565
0.000149903
0.000218968
0.00033632
0.00053839
0.000888769
0.00149689
0.00255265
0.0043969
0.00768326
0.0138004
0.0260703
0.0530919
0.116331
0.259812
0.548095
4.6304e-05
5.31425e-05
6.18633e-05
7.48295e-05
9.51692e-05
0.000128509
0.000184717
0.00028141
0.000450752
0.000750856
0.00128522
0.00223824
0.00394356
0.0070276
0.0127483
0.0238665
0.0468319
0.0960226
0.196945
0.385145
4.56776e-05
5.08811e-05
5.75435e-05
6.76027e-05
8.35272e-05
0.000109745
0.000154062
0.000230565
0.000365414
0.000606893
0.00104294
0.00183319
0.00326854
0.00588613
0.0107101
0.019797
0.0374448
0.0722685
0.138565
0.253423
4.51426e-05
4.89454e-05
5.38854e-05
6.15296e-05
7.3789e-05
9.40413e-05
0.000128189
0.000186863
0.000289864
0.000473944
0.000806527
0.00141078
0.00251133
0.00451722
0.00817691
0.0148814
0.0272481
0.0500181
0.0905594
0.157007
4.47019e-05
4.73395e-05
5.08764e-05
5.65718e-05
6.59001e-05
8.1396e-05
0.000107394
0.000151586
0.000228133
0.000363063
0.000603653
0.00103534
0.00181187
0.00320751
0.00570616
0.0101528
0.0180014
0.0316447
0.054548
0.0904906
4.43549e-05
4.6051e-05
4.84665e-05
5.26193e-05
5.96713e-05
7.15235e-05
9.13219e-05
0.000124512
0.000180877
0.000277947
0.000446772
0.000741908
0.00125833
0.00215887
0.00371685
0.00637922
0.0108543
0.0182093
0.0298844
0.0474116
4.40989e-05
4.50542e-05
4.65765e-05
4.95188e-05
5.48434e-05
6.39975e-05
7.92843e-05
0.000104569
0.000146539
0.000216732
0.000334873
0.000534344
0.000870651
0.00143337
0.00236081
0.00385537
0.00619993
0.0097778
0.0150693
0.0225448
4.3933e-05
4.43033e-05
4.50984e-05
4.71176e-05
5.11777e-05
5.83849e-05
7.04864e-05
9.03356e-05
0.000122606
0.000174921
0.000259774
0.000397585
0.000621187
0.000981246
0.00154798
0.00240368
0.00363315
0.00533487
0.00766567
0.0108583
4.40539e-05
4.37874e-05
4.41047e-05
4.56581e-05
4.91381e-05
5.54422e-05
6.59852e-05
8.29902e-05
0.000109795
0.000151477
0.000216284
0.000318057
0.00048076
0.0007531
0.00123094
0.00210436
0.00393015
0.00777633
0.015776
0.0320296
0.000490193
8.46265e-05
0.000134444
0.000196323
0.000275567
0.000387077
0.00056499
0.00087402
0.00141665
0.00237522
0.00422407
0.00751211
0.0127269
0.0206825
0.0338415
0.0557004
0.0893739
0.137195
0.193529
0.278309
0.0629599
0.0225967
0.0259618
0.028516
0.0320246
0.0372164
0.0444551
0.0539985
0.0662379
0.0817985
0.101264
0.12402
0.135707
0.157408
0.222276
0.319805
0.457755
0.621101
0.698779
1.05654
0.00807476
0.0138176
0.0251192
0.0406961
0.059533
0.0823868
0.109729
0.141556
0.178416
0.220278
0.261901
0.285718
0.285961
0.313923
0.316386
0.315119
0.329849
0.351056
0.381535
0.527865
0.00170535
0.00123061
0.00115434
0.00203758
0.0036088
0.00593797
0.00926079
0.0137512
0.0195453
0.0266521
0.034736