/*--------------------------------*- C++ -*----------------------------------*\
| =========                 |                                                 |
| \\      /  F ield         | OpenFOAM: The Open Source CFD Toolbox           |
|  \\    /   O peration     | Version:  v1912                                 |
|   \\  /    A nd           | Website:  www.openfoam.com                      |
|    \\/     M anipulation  |                                                 |
\*---------------------------------------------------------------------------*/
FoamFile
{
    version     2.0;
    format      ascii;
    class       volScalarField;
    location    "38";
    object      k;
}
// * * * * * * * * * * * * * * * * * * * * * * * * * * * * * * * * * * * * * //

dimensions      [0 2 -2 0 0 0 0];


internalField   nonuniform List<scalar> 
20320
(
0.00413924
0.00425408
0.00433103
0.00440647
0.00447985
0.00455063
0.00461813
0.00468154
0.00473992
0.00479215
0.00483701
0.00487316
0.00489903
0.00491264
0.00491171
0.00489327
0.00485161
0.00477368
0.00462279
0.00427605
0.00415081
0.00414918
0.00419434
0.00429082
0.00445907
0.00471982
0.00509169
0.0055906
0.00623092
0.00702546
0.00798428
0.00911608
0.0104291
0.0119239
0.0135956
0.0154216
0.0173193
0.0190501
0.0198936
0.0173744
0.0041774
0.00421769
0.00430417
0.00444356
0.00466151
0.0049895
0.00546724
0.00614413
0.00707799
0.00833135
0.00996359
0.0120194
0.0145169
0.017439
0.0207193
0.0242148
0.0276471
0.0304522
0.0312916
0.0270586
0.00421517
0.00431999
0.00447452
0.00468067
0.00496428
0.0053582
0.0059057
0.00666489
0.0077142
0.0091556
0.0111109
0.0137053
0.0170344
0.0211208
0.0258733
0.0310455
0.0361565
0.0402908
0.0414688
0.0356717
0.00426149
0.00445091
0.00469387
0.0049871
0.00535599
0.00583328
0.00646259
0.00730387
0.00844109
0.00999124
0.012112
0.0149977
0.018848
0.0237927
0.0297854
0.0365053
0.0432626
0.0487795
0.0504463
0.043344
0.00431474
0.00460793
0.00496
0.00536255
0.00583962
0.00642324
0.00715641
0.00809892
0.00933563
0.0109876
0.0132265
0.0162869
0.0204536
0.0259885
0.0329677
0.0410741
0.04942
0.0563163
0.0585056
0.0503492
0.00437291
0.00478588
0.00526516
0.00579774
0.00640544
0.00711868
0.00797892
0.00904486
0.0104009
0.0121688
0.0145249
0.017723
0.0221044
0.0280476
0.0357879
0.0450966
0.0549451
0.0632007
0.0659023
0.0568607
0.0044337
0.00497851
0.00559985
0.006281
0.00704092
0.00790756
0.00891984
0.0101343
0.0116341
0.0135401
0.0160299
0.0193662
0.0239247
0.0301744
0.0385101
0.0488495
0.0601002
0.0696979
0.0729261
0.0630817
0.00449445
0.00517819
0.00595178
0.00679641
0.00772805
0.00877171
0.00996286
0.0113549
0.0130285
0.0151028
0.0177545
0.0212505
0.0259877
0.0325022
0.0413324
0.0525707
0.0651287
0.0760407
0.0797907
0.0692096
0.00455223
0.00537588
0.00630571
0.00732346
0.00844275
0.00968591
0.0110845
0.0126877
0.0145729
0.0168558
0.0197109
0.0234064
0.0283527
0.0351362
0.0444189
0.0564752
0.0702726
0.0824793
0.0867352
0.0754207
0.00460399
0.00556145
0.00664394
0.00783743
0.00915497
0.0106175
0.0122531
0.0141064
0.0162502
0.0187954
0.0219127
0.0258691
0.0310843
0.0381837
0.0479361
0.060797
0.0758294
0.089373
0.0941589
0.0819517
0.00464675
0.00572433
0.00694733
0.00831059
0.00982969
0.0115269
0.0134286
0.0155755
0.0180354
0.0209132
0.0243737
0.0286808
0.0342607
0.0417709
0.0520744
0.0658021
0.082135
0.0970946
0.102408
0.0890956
0.00467797
0.00585447
0.00719702
0.00871449
0.0104293
0.0123695
0.0145633
0.0170501
0.0198938
0.0231935
0.0271063
0.0318918
0.0379807
0.0460604
0.0570815
0.0718474
0.0896728
0.10625
0.112124
0.0972696
0.00469576
0.00594348
0.00737642
0.00902259
0.0109164
0.0130975
0.0156025
0.0184743
0.0217774
0.0256071
0.0301144
0.0355544
0.0423639
0.0512629
0.0632927
0.0794353
0.0991541
0.117771
0.124346
0.107231
0.00469923
0.00598569
0.00747338
0.00921348
0.0112576
0.0136646
0.0164873
0.0197814
0.0236206
0.0281041
0.0333824
0.0397121
0.0475438
0.0576432
0.0711644
0.0892974
0.111676
0.133134
0.14064
0.120032
0.00468854
0.00597908
0.00748198
0.0092739
0.0114282
0.0140298
0.0171586
0.0208956
0.0253381
0.0306044
0.0368597
0.0443783
0.053646
0.0655109
0.0813023
0.102514
0.129044
0.155101
0.164442
0.138224
0.00466495
0.00592554
0.00740353
0.00920084
0.0114151
0.0141634
0.0175632
0.0217363
0.0268242
0.032989
0.0404393
0.0495006
0.0607413
0.0751715
0.0944435
0.120614
0.15418
0.188654
0.20233
0.167038
0.00463061
0.00583062
0.00724642
0.0090023
0.01122
0.0140517
0.0176609
0.0222263
0.0279574
0.0350948
0.0439342
0.0549103
0.0687584
0.0867988
0.111308
0.145525
0.191633
0.243375
0.269937
0.220975
0.00458824
0.00570275
0.00702496
0.00869638
0.0108596
0.0137005
0.0174329
0.0223037
0.0286144
0.0367223
0.0470674
0.0602741
0.0773698
0.100215
0.13222
0.179048
0.247436
0.336482
0.40575
0.34803
0.00454079
0.00555193
0.00675723
0.00830871
0.0103638
0.0131365
0.0168876
0.0219365
0.0286917
0.0376607
0.0494855
0.0650702
0.0858787
0.114583
0.156379
0.221218
0.325903
0.489831
0.690857
0.74438
0.557805
0.734894
0.943914
1.09785
1.21997
1.31222
1.36871
1.48556
1.65907
1.8399
2.53691
8.15936
16.3825
26.139
37.9968
54.5034
77.2582
114.053
159.032
139.733
76.579
52.8635
40.2333
32.3666
26.9406
22.9626
19.9283
17.5472
15.6368
14.0751
12.7757
11.6775
10.7393
9.93555
9.24682
8.66593
8.17956
7.70842
7.27995
6.90067
6.57088
6.32935
6.16297
5.96197
5.76381
5.5959
5.44128
5.3013
5.18535
5.08567
4.96803
4.88548
4.94695
5.27609
6.37024
6.00085
4.70211
4.25864
4.11746
4.10868
0.873302
1.90813
2.48446
2.89315
3.22508
3.50316
3.76601
4.1586
4.73848
5.43194
5.71771
8.60337
38.0482
72.9446
110.977
165.466
245.409
379.405
640.841
302.498
171.453
120.183
92.5259
74.9875
62.6996
53.5658
46.5173
40.934
36.4195
32.7039
29.5956
26.9569
24.6897
22.7294
21.0346
19.5738
18.2896
17.1321
16.1012
15.1908
14.4126
13.8013
13.2893
12.8181
12.3924
12.0147
11.6671
11.3521
11.0693
10.7796
10.455
10.1834
10.1366
10.6929
12.8493
12.0074
10.0887
9.28716
9.0515
9.09642
1.16926
2.56705
3.24972
3.74354
4.16149
4.54071
4.9363
5.49139
6.3112
7.37659
8.27115
8.22849
18.5984
57.2777
125.993
213.68
322.18
521.138
509.219
265.155
166.625
122.811
98.2201
81.9305
70.066
60.9699
53.7808
47.9758
43.2062
39.2241
35.849
32.9488
30.4281
28.2221
26.2905
24.5991
23.1026
21.7662
20.5832
19.5487
18.6694
17.9467
17.3361
16.8004
16.3299
15.9138
15.5351
15.188
14.862
14.5243
14.1563
13.8095
13.5565
13.6371
14.649
13.9897
13.0391
12.7036
12.6462
12.752
1.46677
3.24265
3.97703
4.51038
4.98096
5.44373
5.95519
6.65462
7.69466
9.11706
10.6617
11.6323
15.5848
38.8296
96.8572
202.479
323.836
486.249
318.532
199.983
137.99
106.672
88.4657
76.0636
66.7633
59.4597
53.5649
48.7011
44.6118
41.118
38.0922
35.4418
33.0992
31.0191
29.1729
27.5369
26.0823
24.7882
23.6494
22.6631
21.829
21.1369
20.5527
20.0485
19.6095
19.2199
18.8621
18.5261
18.2005
17.8647
17.5068
17.1347
16.7507
16.4206
16.3021
16.1995
16.1369
16.1576
16.2573
16.4258
1.75162
3.96963
4.75668
5.31422
5.82053
6.35955
6.98749
7.83499
9.10794
10.9548
13.3385
16.0202
21.5135
41.2002
89.0463
180.34
326.341
323.795
222.783
152.894
111.402
88.4444
74.8747
65.7229
58.9774
53.7822
49.6123
46.1229
43.1102
40.459
38.1005
35.9885
34.0884
32.3764
30.8376
29.4624
28.2389
27.1571
26.2131
25.4038
24.7244
24.1604
23.685
23.2743
22.9123
22.5815
22.2656
21.9534
21.6385
21.3169
20.9901
20.6476
20.2764
19.9401
19.7802
19.7956
19.9134
20.0709
20.2508
20.4539
2.0461
4.70658
5.60285
6.19714
6.73696
7.34956
8.10448
9.12196
10.6653
13.0694
16.6877
22.014
32.2608
56.7515
105.15
200.335
385.942
263.098
178.583
124.903
92.4706
73.9933
63.1784
56.1564
51.279
47.7339
44.9802
42.6906
40.7008
38.9295
37.335
35.8911
34.579
33.3818
32.2899
31.3097
30.4448
29.6883
29.0346
28.4797
28.0167
27.63
27.2972
26.9994
26.722
26.4497
26.1679
25.8666
25.5463
25.2206
24.9173
24.6354
24.3589
24.1473
24.0929
24.1911
24.383
24.6044
24.8214
25.0314
2.3854
5.47182
6.52716
7.1966
7.77601
8.46125
9.35958
10.5922
12.4837
15.6648
21.1902
30.7455
49.076
84.2541
143.294
261.455
363.127
232.411
154.195
106.969
79.131
63.642
54.9686
49.6493
46.0549
43.5083
41.6523
40.2154
39.0626
38.0933
37.2521
36.5047
35.8316
35.1988
34.588
34.0461
33.5887
33.1947
32.8539
32.5647
32.3213
32.1062
31.8994
31.6897
31.4669
31.2194
30.9355
30.6084
30.2436
29.8702
29.5524
29.3236
29.1646
29.1095
29.1984
29.3978
29.6561
29.9167
30.1431
30.3343
2.77285
6.29207
7.54208
8.33309
8.97873
9.74233
10.8064
12.3235
14.7102
19.0479
27.5115
43.2476
73.57
125.77
202.4
342.575
337.609
207.473
135.209
92.8046
68.9294
56.5566
50.2501
46.4937
43.4513
41.4587
40.2039
39.3513
38.7787
38.3791
38.0827
37.8649
37.7377
37.7562
37.8956
38.01
38.0512
38.0251
37.9623
37.8886
37.815
37.719
37.5803
37.4052
37.1896
36.9256
36.6079
36.2372
35.8306
35.4294
35.1253
34.9352
34.8761
34.9827
35.2323
35.5644
35.904
36.1924
36.4002
36.5421
3.15545
7.19147
8.65577
9.61934
10.3838
11.2493
12.5087
14.415
17.5443
23.6489
36.4696
60.2465
106.347
189.273
295.745
475.616
297.972
183.115
117.305
80.2185
60.985
52.3585
48.4465
45.0838
42.3682
40.5973
39.5591
39.0025
38.7779
38.6744
38.6401
38.6804
38.8277
39.0982
39.4274
39.7902
40.1502
40.4277
40.6053
40.7118
40.7731
40.7859
40.7532
40.6974
40.6101
40.494
40.3662
40.2585
40.2246
40.3251
40.6205
41.0047
41.4155
41.8925
42.3796
42.8957
43.3379
43.638
43.787
43.8407
3.47377
8.13756
9.86539
11.0467
12.0085
13.0441
14.5486
16.9933
21.266
30.0611
49.0496
82.7778
146.297
283.454
464.123
472.074
267.204
158.894
100.011
69.2923
55.4128
50.8071
47.4449
44.1652
41.5113
39.7557
38.7186
38.1958
38.1075
38.227
38.4315
38.6984
39.0404
39.4342
39.786
40.1306
40.5378
40.9389
41.2594
41.4935
41.6644
41.7891
41.8918
41.996
42.097
42.2086
42.3645
42.6104
42.9941
43.5441
44.2863
45.2038
46.2171
47.2454
48.2323
49.0504
49.5898
49.8596
49.8932
49.7977
3.78228
9.14452
11.1892
12.6462
13.876
15.1772
17.0376
20.2321
26.2651
39.088
66.5615
113.576
192.669
394.402
741.613
422.869
231.927
134.323
84.0878
60.7383
52.3213
49.9751
46.8618
43.1885
40.1527
38.1149
36.9436
36.4043
36.3671
36.6484
37.0882
37.605
38.1595
38.6935
39.1204
39.4877
39.9037
40.348
40.7475
41.0761
41.3482
41.5889
41.8285
42.0882
42.3721
42.6985
43.1021
43.6208
44.281
45.0908
46.0658
47.1848
48.3085
49.2917
50.2582
51.096
51.6153
51.8234
51.7825
51.6246
4.2176
10.2138
12.6423
14.4571
16.0189
17.6838
20.0521
24.3311
33.0512
51.903
90.9989
157.733
256.745
438.691
632.081
355.12
194.433
110.774
70.6994
55.0301
51.517
49.7424
45.8829
41.7133
38.2014
35.7377
34.2878
33.6387
33.6027
33.9938
34.6345
35.3925
36.1733
36.8896
37.4694
37.9538
38.4412
38.9435
39.4156
39.8337
40.2079
40.5632
40.9276
41.3199
41.7492
42.2329
42.7968
43.4639
44.2449
45.1392
46.145
47.2119
48.2019
49.0367
49.8454
50.5528
50.9936
51.1553
51.1057
50.9677
4.79957
11.3067
14.2303
16.5025
18.4939
20.5978
23.6303
29.3988
42.1258
70.0676
125.551
221.69
366.824
556.6
573.754
302.167
159.895
90.1535
60.7233
52.1055
51.6454
48.9684
44.3979
39.686
35.7079
32.8215
31.0425
30.2063
30.1112
30.5542
31.3373
32.2907
33.2786
34.1929
34.9688
35.6313
36.2507
36.8512
37.4147
37.9303
38.408
38.8697
39.3387
39.831
40.3568
40.9293
41.5639
42.2718
43.0547
43.9067
44.8102
45.707
46.5043
47.1873
47.8415
48.4108
48.781
48.9371
48.9389
48.8779
5.1703
12.4194
15.945
18.7982
21.341
23.9682
27.779
35.4525
53.8264
95.4118
174.76
313.17
541.568
777.486
520.879
254.588
128.544
73.5069
54.2877
51.5882
51.3434
47.5722
42.35
37.1496
32.7674
29.5253
27.4518
26.4174
26.2284
26.6709
27.5305
28.6131
29.7588
30.8483
31.816
32.6665
33.4415
34.164
34.8335
35.4506
36.0268
36.5803
37.1296
37.6879
38.2642
38.8675
39.506
40.1841
40.8996
41.6437
42.3945
43.1081
43.7408
44.3068
44.8494
45.3249
45.6614
45.8491
45.932
45.9659
5.19427
13.4593
17.7302
21.3513
24.5922
27.8514
32.5055
42.381
68.1457
130.345
245.67
441.395
822.308
1033.41
434.369
201.592
100.639
61.2439
50.9453
51.9912
50.4268
45.604
39.7675
34.1635
29.475
25.9758
23.6892
22.4997
22.2198
22.6301
23.5072
24.6482
25.8857
27.0974
28.2142
29.2221
30.1387
30.9801
31.7531
32.4643
33.1255
33.7516
34.3568
34.952
35.545
36.1419
36.7479
37.3646
37.9898
38.6153
39.2254
39.7978
40.3214
40.8146
41.2926
41.7212
42.0564
42.2924
42.4563
42.5736
5.04439
14.3535
19.5491
24.1683
28.3047
32.2952
37.8146
49.8468
83.8061
176.899
351.889
576.542
930.946
755.38
326.797
151.672
78.3754
53.2332
50.0987
52.136
48.7938
43.0619
36.7144
30.8146
25.9322
22.2872
19.8861
18.6108
18.2681
18.6329
19.4818
20.6163
21.8755
23.142
24.3447
25.4561
26.4759
27.411
28.2681
29.0549
29.7813
30.4591
31.0995
31.7115
32.3024
32.8777
33.4418
33.9968
34.5421
35.074
35.5864
36.0743
36.541
36.9988
37.4474
37.8603
38.2105
38.4943
38.7255
38.9086
4.77777
15.053
21.3781
27.2696
32.5815
37.4465
43.6916
57.2898
97.2438
197.632
338.208
519.899
821.386
485.2
232.228
112.18
62.5791
48.7842
51.02
51.2875
46.5491
40.0343
33.2908
27.2097
22.2478
18.5682
16.1525
14.864
14.4938
14.8097
15.5959
16.67
17.8871
19.1409
20.3626
21.5165
22.5899
23.5809
24.4922
25.3286
26.0976
26.8078
27.4679
28.0862
28.6697
29.2246
29.7558
30.267
30.7603
31.237
31.6989
32.1497
32.596
33.0426
33.4821
33.8951
34.2651
34.5898
34.8747
35.1105
4.58194
15.5564
23.1949
30.6708
37.5813
43.6195
50.4407
64.2966
104.615
173.877
287.339
462.068
624.707
334.673
167.159
84.3621
52.3794
47.0337
51.7491
49.7303
43.7915
36.6287
29.6082
23.4604
18.5316
14.9245
12.5858
11.3488
10.9812
11.2468
11.9448
12.9166
14.0398
15.2231
16.4035
17.5423
18.6189
19.6244
20.5556
21.4138
22.2029
22.9286
23.5982
24.2189
24.7981
25.3422
25.8572
26.348
26.8191
27.2753
27.7224
28.1666
28.6127
29.0601
29.5006
29.9209
30.3121
30.6731
31.0046
31.2867
4.77455
16.0731
25.0245
34.364
43.4966
51.348
58.854
72.1252
105.334
166.61
291.302
537.805
510.715
252.227
124.354
65.5539
46.3413
47.2755
51.3588
47.4911
40.5583
32.9258
25.7692
19.6748
14.8893
11.4551
9.27561
8.14349
7.80063
8.01344
8.60429
9.44362
10.4343
11.502
12.5923
13.6671
14.7018
15.6821
16.6
17.4527
18.2408
18.9679
19.6393
20.2614
20.8411
21.3849
21.8987
22.3884
22.8594
23.3181
23.7709
24.2233
24.6777
25.1318
25.5791
26.0121
26.427
26.8241
27.2003
27.5256
5.59999
17.3143
27.0502
38.3402
50.5003
61.4367
70.2785
83.062
113.591
177.945
333.749
654.879
399.293
192.61
93.9338
52.9486
43.2179
48.8558
50.0413
44.6202
36.9317
29.0175
21.8738
15.9551
11.42
8.25484
6.31023
5.32899
5.02734
5.18454
5.65425
6.33968
7.1703
8.08917
9.05173
10.023
10.9775
11.8975
12.7716
13.5936
14.3614
15.0761
15.7414
16.3622
16.9443
17.4932
18.0144
18.5132
18.9955
19.4671
19.9337
20.3993
20.8653
21.3298
21.7893
22.2407
22.6837
23.1188
23.5392
23.9044
6.73743
19.5489
29.8471
42.8255
58.6908
75.0102
86.7554
99.9345
130.983
209.064
400.649
679.797
310.665
145.38
71.6615
44.7218
42.1768
49.5949
47.9653
41.239
33.0148
25.0058
18.0217
12.3965
8.21603
5.41743
3.78613
3.00241
2.7581
2.85857
3.19641
3.71064
4.35991
5.10257
5.90709
6.74187
7.58335
8.41196
9.21437
9.98181
10.7098
11.3973
12.0459
12.6584
13.2388
13.7911
14.3197
14.8291
15.3242
15.81
16.2912
16.7708
17.2501
17.7286
18.2054
18.6803
19.1546
19.6281
20.09
20.4889
7.87939
22.6526
34.0074
48.723
68.3816
93.8823
111.292
126.023
162.247
269.34
534.546
531.248
234.395
108.393
55.5641
39.688
42.7393
48.9771
45.1104
37.4382
28.9233
20.9996
14.3104
9.08939
5.36778
3.06116
1.82891
1.28072
1.11374
1.1656
1.37004
1.70146
2.14462
2.68239
3.29568
3.96094
4.65826
5.36551
6.06863
6.75715
7.42422
8.06666
8.68336
9.27509
9.8435
10.3907
10.9198
11.4339
11.9371
12.4333
12.9261
13.4183
13.9115
14.4062
14.9032
15.4035
15.9086
16.4165
16.9121
17.3348
9.02057
26.2459
39.521
57.0889
81.0575
112.802
143.547
163.165
209.455
344.388
648.451
380.328
170.661
79.8789
44.3027
37.0256
44.5943
47.2569
41.6802
33.3585
24.7778
17.1026
10.8293
6.11774
3.03429
1.32031
0.558222
0.293662
0.226406
0.243748
0.322424
0.467622
0.6901
0.995675
1.38182
1.83772
2.34825
2.89695
3.46781
4.04991
4.63067
5.20576
5.77075
6.32391
6.86458
7.39303
7.9105
8.41897
8.92127
9.42045
9.91937
10.4203
10.925
11.4345
11.9498
12.4719
13.001
13.5334
14.0495
14.4823
11.2353
30.2177
45.8025
67.599
97.9878
137.38
166.173
205.009
270.314
420.536
603.537
263.202
120.582
58.9124
36.8417
36.1963
45.543
44.7627
37.8104
29.1327
20.6922
13.4083
7.65569
3.65438
1.31593
0.30829
0.0587549
0.02026
0.0143465
0.0155369
0.0226814
0.0414664
0.0841074
0.168283
0.311654
0.524862
0.808404
1.15436
1.55061
1.98464
2.4447
2.92205
3.41006
3.90169
4.39454
4.88604
5.37605
5.86485
6.35398
6.84546
7.34116
7.84287
8.35176
8.8686
9.39381
9.92736
10.4678
11.0088
11.5278
11.9546
13.7558
34.7358
52.1593
78.8872
119.197
151.947
174.272
221.425
304.891
470.4
372.667
175.821
84.5834
44.2216
32.2682
36.9466
44.9922
41.4702
33.6567
24.8925
16.7669
9.99491
4.9389
1.7786
0.315183
0.0208773
0.00614432
0.00541614
0.00531916
0.00532187
0.00538937
0.00562337
0.00647454
0.00964277
0.020418
0.0506973
0.118263
0.239774
0.423408
0.667823
0.965405
1.30636
1.68108
2.08107
2.49993
2.93233
3.37555
3.8271
4.28705
4.75602
5.23463
5.72367
6.22348
6.73401
7.25461
7.78377
8.31802
8.84842
9.35016
9.75429
12.2344
37.5495
57.4148
88.4433
127.593
148.631
171.552
213.85
284.256
369.135
223.717
117.209
59.7078
34.1978
29.93
39.1091
43.1665
37.77
29.3916
20.7551
13.0851
6.9392
2.77743
0.568117
0.0228721
0.00533515
0.00505146
0.00500038
0.00497851
0.0049719
0.0049722
0.00497751
0.00499305
0.0050361
0.00517374
0.00572394
0.00800296
0.0166071
0.042795
0.104033
0.216492
0.387571
0.615208
0.891623
1.2076
1.55477
1.92689
2.31982
2.73086
3.15927
3.60282
4.06167
4.5347
5.02095
5.51864
6.02465
6.53341
7.03332
7.49805
7.86387
9.91371
37.8559
60.43
92.6398
124.687
144.727
173.649
214.031
253.874
243.56
146.556
80.5047
42.5146
27.6389
29.5067
40.5225
40.5849
33.7451
25.1359
16.8115
9.70642
4.40148
1.21372
0.0715899
0.00528295
0.00490974
0.00485486
0.00481165
0.00478092
0.00476354
0.00475737
0.00476146
0.00477368
0.00479003
0.00480687
0.00483321
0.00490031
0.00511823
0.00595872
0.00933814
0.0217066
0.0577388
0.137067
0.272773
0.465355
0.707291
0.989578
1.30491
1.64818
2.01592
2.40555
2.81529
3.24335
3.68682
4.14313
4.60749
5.07243
5.52368
5.93365
6.24611
8.53148
35.8238
61.1476
93.7244
119.321
140.225
174.692
215.273
235.597
171.093
102.611
55.8932
30.4285
23.9731
30.876
40.3606
37.1846
29.5557
20.9931
13.1303
6.71645
2.40784
0.311417
0.00653119
0.00479514
0.00474916
0.00470859
0.00466964
0.00463601
0.00461118
0.00459572
0.00459049
0.00459617
0.00461134
0.00463189
0.00465696
0.00468656
0.00472496
0.00480063
0.0050118
0.00575519
0.00871098
0.0200657
0.0552919
0.134863
0.269121
0.454976
0.684473
0.950247
1.24684
1.57019
1.91703
2.28448
2.66941
3.06804
3.47431
3.87952
4.26603
4.60452
4.84242
8.88838
34.1742
60.5919
93.4544
114.425
136.305
172.663
205.482
203.956
126.901
72.5774
37.9701
22.5467
22.8645
33.6648
38.6991
33.4868
25.3585
17.0462
9.75885
4.24206
0.999816
0.0293931
0.00473477
0.00463697
0.00460896
0.00457906
0.00455009
0.00452318
0.00449903
0.00447857
0.00446435
0.00446038
0.00446715
0.00448259
0.00450639
0.0045368
0.00457383
0.00462212
0.00469186
0.00482649
0.00520409
0.00657758
0.0120809
0.0318991
0.0849706
0.185767
0.334675
0.525125
0.750361
1.00497
1.28461
1.58535
1.90321
2.23339
2.56901
2.89918
3.20491
3.45188
3.56789
9.87996
34.816
61.6023
94.5092
111.12
136.281
172.534
196.244
153.673
92.0833
49.358
25.2188
18.436
23.8233
35.9755
36.1058
29.4961
21.2468
13.354
6.75352
2.30099
0.232657
0.00525004
0.00455906
0.00452105
0.00448933
0.00446178
0.00443907
0.00442109
0.00440482
0.00438788
0.00437145
0.00436148
0.00435986
0.00436643
0.00438213
0.00440706
0.00444229
0.00448815
0.00454631
0.00462684
0.00475995
0.00506501
0.00606071
0.00994476
0.0243806
0.065552
0.147892
0.272812
0.434335
0.625904
0.8419
1.07731
1.32704
1.58511
1.84323
2.08856
2.29894
2.43223
2.38968
12.3312
36.685
65.5195
93.6578
110.439
140.585
171.96
176.532
113.73
63.5133
31.5232
17.3415
17.3112
26.3968
35.9322
32.7732
25.413
17.2929
9.95603
4.25808
0.936087
0.0206551
0.00453655
0.00446382
0.00442963
0.00439589
0.00436601
0.00434269
0.00432683
0.00431586
0.00430499
0.00429359
0.0042859
0.00428173
0.00428214
0.00428984
0.00430618
0.00433285
0.0043707
0.00442193
0.00449054
0.00458368
0.00472787
0.0050221
0.00588636
0.00911002
0.0209974
0.0553938
0.125352
0.232062
0.369291
0.529841
0.70702
0.894199
1.08369
1.2653
1.42362
1.53299
1.54583
1.3564
15.4608
40.8128
66.6575
87.6657
110.184
143.711
164.332
140.445
80.0021
40.3913
19.195
13.6709
18.2736
30.0778
34.3469
29.0933
21.3145
13.5389
6.88078
2.28875
0.207357
0.0049196
0.00441847
0.00438307
0.00435415
0.00432357
0.00429399
0.00426834
0.00424938
0.00423751
0.00422822
0.00422119
0.00421836
0.00421747
0.00421898
0.00422383
0.00423323
0.00425073
0.00427823
0.00431809
0.0043738
0.00444961
0.00455456
0.00471178
0.00500519
0.00578554
0.00852465
0.0183621
0.0467797
0.105128
0.194259
0.307281
0.435596
0.570457
0.702178
0.818506
0.90199
0.925374
0.844225
0.587503
16.5147
42.8746
60.8278
80.9781
107.584
138.107
151.084
96.5407
50.236
23.0216
12.3323
12.9892
20.6643
32.4039
31.693
25.0826
17.2794
10.038
4.27658
0.905333
0.0174689
0.00441265
0.00434323
0.00430993
0.00428325
0.00425775
0.00423376
0.00421121
0.00419237
0.0041783
0.00416612
0.00415818
0.00415643
0.00415851
0.00416354
0.00417023
0.00417898
0.00419242
0.0042118
0.00424049
0.00428255
0.00434111
0.00442213
0.00453548
0.00470125
0.00498874
0.0056722
0.00786069
0.0153586
0.0368489
0.081663
0.150692
0.236711
0.329503
0.417709
0.488115
0.523908
0.502331
0.394307
0.184253
14.827
40.5372
55.3076
74.5268
101.397
123.714
107.02
57.834
27.0651
12.4828
9.82546
14.1734
24.2494
31.9869
28.0839
20.946
13.4223
6.85502
2.23065
0.185381
0.00472477
0.00432128
0.00427815
0.00424612
0.00421926
0.00419581
0.00417636
0.00415925
0.0041452
0.00413333
0.00412096
0.0041113
0.00410688
0.00410715
0.00411218
0.00412054
0.00413152
0.00414556
0.00416286
0.00418601
0.00421786
0.00426131
0.00432184
0.00440586
0.0045225
0.00469073
0.00496238
0.00552241
0.00707524
0.0119511
0.0255772
0.0545088
0.0998497
0.155096
0.209471
0.250403
0.264287
0.237783
0.163696
0.0600505
12.2999
35.4317
49.7343
67.6142
88.3518
103.869
60.027
29.3257
12.9822
8.07335
9.93274
16.582
28.1599
29.8404
24.2863
16.9093
9.84004
4.12668
0.821592
0.0139841
0.00431409
0.00425505
0.00421715
0.00418829
0.00416328
0.00414128
0.00412334
0.00410891
0.00409879
0.00409126
0.00408318
0.00407597
0.00407128
0.00406944
0.00407159
0.00407769
0.00408781
0.00410214
0.00412024
0.00414271
0.00417061
0.00420575
0.00425179
0.00431348
0.00439747
0.00451351
0.00467747
0.00492325
0.00535276
0.00631062
0.00884601
0.0153387
0.0288625
0.0499082
0.0738229
0.0920457
0.0952071
0.0772452
0.0426148
0.0130596
10.2044
29.4596
42.9769
60.4414
78.0911
57.1412
28.9196
12.877
7.0405
7.29553
11.4462
20.0351
29.6476
26.7881
20.2154
13.0098
6.59776
2.02786
0.140621
0.00452815
0.00423222
0.00419011
0.00415572
0.00413015
0.00410906
0.00409132
0.00407635
0.00406376
0.00405488
0.00404915
0.00404469
0.00404185
0.00404087
0.00404094
0.0040426
0.0040466
0.00405382
0.0040653
0.00408146
0.00410271
0.00412933
0.00416158
0.00420082
0.00424953
0.00431186
0.00439438
0.00450582
0.00465869
0.00487365
0.00519529
0.00574135
0.0068134
0.00897099
0.0127715
0.0177921
0.0218158
0.0218388
0.0169128
0.0103521
0.00638855
9.24864
24.646
35.7854
52.8411
54.3956
26.4725
11.8073
6.17001
5.68589
8.17756
13.8921
24.4498
27.8806
22.7241
15.921
9.29605
3.78669
0.651376
0.00928762
0.00423708
0.00417841
0.0041373
0.00410446
0.00407948
0.00405967
0.00404475
0.00403336
0.0040241
0.00401713
0.00401223
0.00400868
0.00400735
0.00400874
0.00401182
0.0040163
0.00402201
0.00402894
0.00403831
0.00405125
0.00406865
0.00409151
0.00412043
0.0041557
0.00419796
0.00424907
0.00431197
0.00439146
0.00449484
0.00463185
0.00481469
0.0050609
0.00539515
0.005866
0.00651593
0.00729138
0.00794544
0.00810745
0.00762158
0.0066715
0.00547795
10.082
24.0403
36.9104
43.603
20.9
9.53146
5.178
4.60912
6.22089
9.94282
17.2061
26.6756
24.6311
18.4577
11.8329
5.96709
1.69862
0.0815131
0.0043818
0.00418174
0.00413058
0.00409068
0.0040608
0.00403766
0.00401904
0.00400504
0.00399504
0.00398815
0.00398395
0.00398157
0.00397985
0.00397927
0.00398066
0.00398403
0.00398974
0.00399737
0.00400622
0.00401669
0.00402904
0.0040437
0.00406212
0.00408552
0.00411459
0.00415036
0.00419385
0.00424583
0.00430774
0.00438272
0.00447587
0.00459388
0.00474398
0.00493484
0.00517074
0.00544868
0.00575722
0.00605534
0.0062589
0.00625096
0.00590478
0.00516758
16.3091
39.709
28.7464
13.7709
6.68899
4.17055
3.88101
4.98747
7.6274
12.44
21.3843
25.0508
20.6443
14.2247
8.12793
3.19697
0.455384
0.00613538
0.00422709
0.00414942
0.00409516
0.00405373
0.00402346
0.00400078
0.00398377
0.00397133
0.00396228
0.00395614
0.00395292
0.00395218
0.00395302
0.00395516
0.00395833
0.00396228
0.0039677
0.00397497
0.00398412
0.0039954
0.00400858
0.00402343
0.00404043
0.00406015
0.00408337
0.00411148
0.00414591
0.00418766
0.0042373
0.0042957
0.00436422
0.00444529
0.00454284
0.00466102
0.00480343
0.00497319
0.00516582
0.00536401
0.00552544
0.00556386
0.00535906
0.00485891
8.03749
13.1078
6.86135
4.35448
3.50595
3.48019
4.23841
6.13085
9.75212
15.7249
23.5582
21.8453
16.3107
10.1972
4.94859
1.30714
0.0481776
0.00437132
0.00419271
0.00411952
0.00406479
0.00402401
0.00399358
0.00397052
0.00395373
0.00394216
0.00393448
0.00392972
0.0039273
0.00392685
0.00392813
0.00393119
0.00393586
0.00394165
0.00394837
0.00395592
0.00396459
0.00397501
0.00398742
0.00400191
0.00401869
0.00403764
0.00405855
0.00408192
0.00410881
0.00414029
0.00417754
0.00422159
0.00427303
0.00433212
0.00439938
0.00447632
0.00456556
0.0046682
0.00478396
0.00490799
0.00502182
0.00507678
0.00498396
0.004665
0.0044911
0.00538846
0.00646258
0.00786879
0.0097719
0.0124041
0.0160635
0.0211343
0.0281323
0.037731
0.0508141
0.0686354
0.0932063
0.128202
0.181056
0.267532
0.420198
0.698758
1.18963
2.11092
0.00444022
0.00522003
0.00615568
0.00740004
0.0091173
0.0115463
0.0150069
0.0199309
0.0269236
0.0368146
0.0507348
0.0703113
0.0981289
0.138843
0.201922
0.308217
0.503647
0.875659
1.53389
2.78319
0.00438979
0.00505033
0.00584515
0.00691896
0.00842766
0.0106041
0.0137713
0.0183821
0.0250959
0.0348565
0.0489985
0.0694725
0.0993405
0.143941
0.213761
0.331256
0.543859
0.932908
1.57993
2.36384
0.00434165
0.00488605
0.00554387
0.00644752
0.00773885
0.00963373
0.0124396
0.0165994
0.0227777
0.0319597
0.0455845
0.0657899
0.0958936
0.141437
0.212629
0.329843
0.532998
0.884935
1.43108
2.08329
0.00429725
0.00473278
0.00526283
0.00600492
0.00708335
0.00868932
0.0110997
0.0147202
0.0201714
0.0283948
0.0408003
0.0595143
0.0878153
0.130963
0.19796
0.305231
0.482289
0.772306
1.20567
1.75682
0.00425768
0.00459467
0.00500997
0.00560532
0.0064863
0.00781569
0.00983088
0.0128824
0.0175099
0.0245405
0.0352272
0.0514791
0.0762331
0.114068
0.172327
0.263202
0.406632
0.630229
0.956747
1.37831
0.0042236
0.00447433
0.00479001
0.00525708
0.00596343
0.00704344
0.0086925
0.0111988
0.0150043
0.0207834
0.0295523
0.0428549
0.0630543
0.0937665
0.140521
0.211792
0.320253
0.482602
0.713944
1.01451
0.00419534
0.00437294
0.00460472
0.00496325
0.00552127
0.00638765
0.00771856
0.00974205
0.0128039
0.0174226
0.0243627
0.0347593
0.050314
0.0735716
0.108287
0.159891
0.235928
0.345839
0.498566
0.696973
0.00417296
0.00429053
0.00445326
0.00472213
0.00515842
0.00584983
0.00691901
0.00854235
0.0109822
0.014622
0.0200098
0.0279271
0.0394918
0.056296
0.0805698
0.115351
0.164598
0.233049
0.32529
0.443604
0.00415637
0.00422609
0.00433242
0.00452829
0.00486767
0.00542163
0.00628635
0.00759737
0.00955028
0.0124226
0.0165998
0.0226111
0.0311709
0.0432162
0.0599187
0.0826621
0.113024
0.152792
0.20375
0.266834
0.00414556
0.00417709
0.00423656
0.00437502
0.00464057
0.00509018
0.00580124
0.00688076
0.00847474
0.0107798
0.0140626
0.0186852
0.0251275
0.0339876
0.0458827
0.0612532
0.0802846
0.103167
0.130398
0.161797
0.00414494
0.00414058
0.00416165
0.00425656
0.00446435
0.00482822
0.00540573
0.00627115
0.00751244
0.00923642
0.0115881
0.0147706
0.0190779
0.0249672
0.0329077
0.0432264
0.0573237
0.0790925
0.116834
0.183912
0.00843449
0.00450243
0.00482487
0.00520694
0.00572497
0.00652203
0.00787539
0.0102646
0.0143921
0.0213532
0.0335676
0.053372
0.0824328
0.123592
0.184015
0.271933
0.391495
0.542413
0.706958
0.926217
0.145063
0.073436
0.0968439
0.11762
0.140769
0.168503
0.201705
0.241062
0.287593
0.34271
0.407346
0.479229
0.523431
0.597659
0.777295
1.02466
1.33322
1.65295
1.81281
2.3912
0.0409031
0.0754452
0.120335
0.177698
0.241959
0.314492
0.395741
0.485024
0.582794
0.68813
0.790629
0.860402
0.893493
0.988675
1.03127
1.06294
1.11452
1.15887
1.22562
1.50781
0.0155689
0.0171942
0.0177797
0.0265054
0.0400059
0.0575313
0.079692
0.106576
0.137996
0.173236
0.210831
0.25116
0.312184
0.415993
0.470054
0.468739
0.432822
0.379079
0.338285
0.358349
0.00927494
0.00919341
0.00642506
0.00806856
0.010946
0.014876
0.0198342
0.0257393
0.0324608
0.0398335
0.0478505
0.0575349
0.0730646
0.0975424
0.116506
0.119295
0.106515
0.0849502
0.0637726
0.0493713
0.00737472
0.00787259
0.00441541
0.00456619
0.00505459
0.00587388
0.00699097
0.00833213
0.0098064
0.011325
0.0128472
0.0144698
0.0164924
0.0189705
0.0207183
0.0203353
0.0177141
0.0140345
0.0107158
0.00844777
0.00678875
0.00800229
0.00417651
0.00398056
0.00398166
0.00409489
0.00428802
0.00453113
0.00479893
0.00506826
0.00532251
0.0055584
0.00578285
0.00598184
0.00609002
0.00605081
0.00588668
0.00568262
0.00551767
0.00542237
0.00671096
0.0080974
0.00424129
0.0039248
0.00384717
0.00385152
0.00389283
0.00395038
0.00401614
0.00408686
0.00416232
0.00424566
0.00434251
0.00445579
0.00457927
0.00469966
0.0048046
0.00488854
0.00495328
0.00500256
0.00713022
0.00773303
0.00432156
0.00396559
0.00387933
0.0038703
0.00388815
0.00391652
0.0039514
0.00399279
0.00404239
0.00410306
0.00417788
0.00426781
0.00436906
0.00447321
0.0045704
0.00465334
0.00471925
0.00476839
0.0077886
0.00700256
0.00435357
0.00402244
0.00394587
0.00393576
0.00394594
0.0039643
0.00398834
0.00401818
0.00405489
0.00409992
0.00415446
0.00421837
0.00428915
0.00436203
0.00443128
0.00449208
0.00454161
0.00457895
0.010244
0.00611496
0.00432758
0.0040746
0.0040175
0.00400792
0.00401246
0.00402328
0.00403859
0.0040582
0.0040825
0.00411204
0.00414717
0.00418752
0.0042316
0.00427678
0.00431994
0.00435827
0.0043899
0.004414