/*--------------------------------*- C++ -*----------------------------------*\
| =========                 |                                                 |
| \\      /  F ield         | OpenFOAM: The Open Source CFD Toolbox           |
|  \\    /   O peration     | Version:  v1912                                 |
|   \\  /    A nd           | Website:  www.openfoam.com                      |
|    \\/     M anipulation  |                                                 |
\*---------------------------------------------------------------------------*/
FoamFile
{
    version     2.0;
    format      ascii;
    class       volScalarField;
    location    "38";
    object      nut;
}
// * * * * * * * * * * * * * * * * * * * * * * * * * * * * * * * * * * * * * //

dimensions      [0 2 -1 0 0 0 0];


internalField   nonuniform List<scalar> 
20320
(
0.0347184
0.00759847
0.00766689
0.00773337
0.0077975
0.00785886
0.00791693
0.0079711
0.00802064
0.00806471
0.00810237
0.00813259
0.00815415
0.00816547
0.00816469
0.00814935
0.00811458
0.00804914
0.00792088
0.00761779
0.0352308
0.0352731
0.0354455
0.0356784
0.0359544
0.0362424
0.0365051
0.0367158
0.0368693
0.0369785
0.0370586
0.0371207
0.0371721
0.0371984
0.037172
0.0370397
0.0366713
0.0357532
0.0333513
0.0241075
0.035354
0.0356369
0.0361377
0.0368832
0.0379742
0.0395106
0.0415791
0.0442286
0.0474351
0.0510723
0.0549056
0.0586149
0.0618436
0.064257
0.0655755
0.0655774
0.0640573
0.0606635
0.0540832
0.0354992
0.0355265
0.0361113
0.0369218
0.0379607
0.0393292
0.041142
0.0435294
0.0466328
0.0505913
0.0555003
0.0613391
0.0678803
0.0746245
0.0808135
0.0855455
0.0879435
0.0872769
0.0828581
0.0728062
0.044527
0.0357344
0.036705
0.0379026
0.0393036
0.0410011
0.0431038
0.0457402
0.0490645
0.0532594
0.058525
0.0650358
0.0728377
0.0816796
0.0908334
0.0990357
0.104671
0.106125
0.101933
0.0892417
0.0517096
0.0359684
0.0373974
0.0390509
0.0408813
0.042971
0.04542
0.0483497
0.0519107
0.0562924
0.0617261
0.0684735
0.0767671
0.0866481
0.0976766
0.10862
0.117402
0.121487
0.118306
0.10361
0.0575276
0.0362181
0.0381571
0.040315
0.0426254
0.0451584
0.0480039
0.0512735
0.0551112
0.0597046
0.0652928
0.0721717
0.0806723
0.0910485
0.10318
0.116087
0.12755
0.134293
0.132519
0.116257
0.0623471
0.0364722
0.0389507
0.0416415
0.044466
0.0474821
0.0507681
0.0544246
0.058586
0.0634345
0.069209
0.076218
0.0848425
0.0954724
0.108253
0.122526
0.136155
0.145351
0.145129
0.127605
0.0664799
0.0367192
0.039743
0.0429736
0.0463285
0.0498548
0.0536196
0.0577105
0.0622498
0.0674106
0.0734264
0.0806084
0.0893622
0.100163
0.113357
0.128599
0.143956
0.155326
0.156642
0.138031
0.0702144
0.0369477
0.0404982
0.0442527
0.0481356
0.0521858
0.0564607
0.0610342
0.0660135
0.0715588
0.0778929
0.0853219
0.0942616
0.10524
0.118752
0.134728
0.15149
0.164772
0.167541
0.147924
0.0737697
0.0371468
0.0411814
0.0454218
0.0498106
0.0543836
0.0591914
0.0642949
0.069784
0.0758018
0.0825546
0.0903358
0.0995603
0.110788
0.124624
0.141233
0.159207
0.174215
0.178364
0.157774
0.0773486
0.0373076
0.041761
0.0464278
0.051281
0.0563592
0.0617118
0.0673891
0.0734632
0.0800567
0.0873535
0.0956262
0.105279
0.116886
0.131136
0.148392
0.167507
0.184146
0.189621
0.168032
0.0812286
0.0374226
0.0422107
0.0472257
0.0524824
0.0580307
0.0639257
0.0702125
0.0769477
0.0842322
0.092223
0.101164
0.111438
0.123623
0.138465
0.156499
0.176828
0.195143
0.201987
0.17935
0.0857127
0.0374873
0.042511
0.0477805
0.0533626
0.0593267
0.065743
0.0726605
0.0801262
0.0882223
0.0970778
0.106903
0.11805
0.131087
0.146806
0.165891
0.18769
0.207931
0.216362
0.192654
0.0912711
0.0374998
0.0426504
0.04807
0.0538844
0.0601904
0.0670844
0.0746309
0.0828789
0.0919007
0.101803
0.112761
0.125093
0.13935
0.156363
0.17696
0.200739
0.22347
0.233991
0.209214
0.09861
0.037461
0.0426262
0.048086
0.0540284
0.0605842
0.0678861
0.076029
0.0850798
0.0951177
0.106241
0.1186
0.132485
0.148432
0.167317
0.190134
0.21678
0.243115
0.256888
0.231408
0.109059
0.0373747
0.0424447
0.0478351
0.053795
0.0604928
0.0681059
0.0767741
0.0866025
0.0977012
0.110185
0.124205
0.14004
0.158235
0.179742
0.205794
0.236726
0.268659
0.288069
0.263122
0.125256
0.0372472
0.0421207
0.0473381
0.0532047
0.0599262
0.0677291
0.0768096
0.0873315
0.0994649
0.113378
0.12926
0.147419
0.168455
0.193465
0.224065
0.26134
0.302183
0.331978
0.311477
0.153133
0.0370867
0.041676
0.0466287
0.0522969
0.0589207
0.0667737
0.0761141
0.0871802
0.10023
0.115529
0.133353
0.154101
0.178493
0.207883
0.244484
0.29066
0.345184
0.393678
0.38761
0.206178
0.036903
0.0411384
0.0457506
0.0511275
0.0575369
0.0652927
0.0747116
0.0861116
0.0998593
0.116352
0.136012
0.15939
0.187409
0.221781
0.265542
0.322945
0.396157
0.473585
0.498064
0.301404
0.0376355
0.0249989
0.0283241
0.0305395
0.0321897
0.0333835
0.0340867
0.0354951
0.0374895
0.0394283
0.0468565
0.0838181
0.118509
0.149644
0.180547
0.216096
0.257433
0.314745
0.371923
0.343387
0.254653
0.211719
0.184808
0.165814
0.151304
0.139694
0.130148
0.122131
0.115294
0.109397
0.104236
0.0996677
0.0955895
0.091947
0.0886968
0.0858427
0.083406
0.0810201
0.0787269
0.0766553
0.0747682
0.0733052
0.0723481
0.0712181
0.0700098
0.0689727
0.0680154
0.0671209
0.0663682
0.0657356
0.0650089
0.064339
0.0645785
0.0661053
0.0718659
0.072519
0.0640347
0.0604566
0.0592561
0.059064
0.0473009
0.387751
0.548641
0.61168
0.641364
0.654209
0.65093
0.65131
0.652931
0.624195
0.450603
0.216781
0.832574
1.55118
2.0932
2.49117
2.84086
3.20428
3.91725
2.84804
2.36384
2.05931
1.84716
1.68777
1.56048
1.45543
1.36718
1.29211
1.2275
1.17125
1.12172
1.07769
1.03816
1.00279
0.972006
0.946552
0.924026
0.90181
0.881013
0.861419
0.844544
0.837781
0.834429
0.828513
0.821378
0.814607
0.806396
0.798826
0.794384
0.787008
0.769176
0.739663
0.686361
0.585404
0.507884
0.416026
0.466909
0.585943
0.704271
0.795142
0.0549881
0.558325
0.887698
1.04324
1.11427
1.14134
1.13891
1.12964
1.12151
1.09289
0.961493
0.50438
0.584757
1.4856
2.63512
3.42669
3.97362
4.56787
4.18545
3.26001
2.86996
2.64645
2.47493
2.33131
2.20884
2.10429
2.01481
1.93746
1.86957
1.80902
1.75431
1.70455
1.65925
1.61848
1.58308
1.55354
1.5281
1.50491
1.48462
1.46816
1.45756
1.45534
1.45756
1.45981
1.46125
1.46191
1.46077
1.45841
1.45519
1.44642
1.42516
1.38482
1.30261
1.15698
1.028
1.00252
1.11899
1.29002
1.44969
1.58214
0.0618672
0.694218
1.09859
1.31011
1.41152
1.45164
1.45428
1.43968
1.42092
1.38919
1.3075
1.0603
0.865497
1.4438
2.58102
3.71861
4.63977
5.15988
4.08065
3.36336
2.97241
2.76183
2.62509
2.51988
2.43405
2.36403
2.30657
2.25791
2.21472
2.1748
2.13709
2.1014
2.06806
2.03796
2.01245
1.99241
1.97718
1.96569
1.95852
1.95682
1.96195
1.97441
1.99109
2.00849
2.02476
2.03868
2.04899
2.05548
2.05792
2.05384
2.0395
2.00946
1.94992
1.85187
1.77362
1.80435
1.92436
2.06673
2.20363
2.32804
0.0678992
0.83303
1.26886
1.49946
1.61289
1.65882
1.66458
1.64715
1.61755
1.57427
1.50771
1.38483
1.31091
1.74089
2.70263
3.78681
4.85286
4.762
3.96489
3.32962
2.92159
2.69949
2.5833
2.51553
2.4732
2.4485
2.43505
2.42692
2.41999
2.4122
2.40313
2.39337
2.38391
2.37631
2.37233
2.37337
2.37955
2.39034
2.40596
2.42711
2.45435
2.48703
2.52236
2.55721
2.58948
2.61728
2.63913
2.65443
2.66321
2.6653
2.66058
2.64607
2.61513
2.57283
2.5571
2.60303
2.69814
2.81021
2.9233
3.03222
0.0737193
0.959484
1.42268
1.65388
1.76631
1.81097
1.81582
1.79477
1.75306
1.69261
1.62773
1.56695
1.6137
2.06325
2.8991
3.91797
4.90959
4.31287
3.65756
3.11371
2.74966
2.56831
2.50412
2.49002
2.4973
2.51752
2.54475
2.57397
2.60216
2.62794
2.65118
2.67264
2.69347
2.71515
2.73934
2.76776
2.80084
2.8379
2.87868
2.92331
2.97171
3.02267
3.07373
3.12248
3.16692
3.20516
3.23564
3.2576
3.27139
3.27848
3.28181
3.28124
3.27323
3.26614
3.2814
3.33194
3.41111
3.5036
3.59957
3.69422
0.0799796
1.07164
1.56345
1.79018
1.89554
1.93502
1.93534
1.90807
1.85246
1.77542
1.72879
1.75876
1.9522
2.48203
3.24269
4.19605
4.83133
4.01092
3.35978
2.86833
2.57633
2.48269
2.50822
2.56673
2.62247
2.677
2.73276
2.78785
2.84257
2.89599
2.94726
2.99689
3.04642
3.09672
3.14815
3.20184
3.25836
3.31688
3.37714
3.43916
3.50256
3.56588
3.62711
3.68466
3.73686
3.78188
3.8182
3.84506
3.863
3.87419
3.88336
3.89353
3.90215
3.91614
3.94708
3.99928
4.06929
4.14945
4.23366
4.31746
0.0866434
1.17067
1.69057
1.91335
2.01142
2.04545
2.03925
2.00291
1.93355
1.85024
1.85948
2.03113
2.38123
3.00484
3.74979
4.6435
4.58249
3.76586
3.12092
2.67706
2.48222
2.51638
2.65567
2.78161
2.86369
2.93623
3.00774
3.07484
3.14238
3.20963
3.2759
3.3425
3.41221
3.48803
3.56674
3.64268
3.71698
3.79113
3.86553
3.94019
4.01466
4.08721
4.15598
4.22025
4.27849
4.32885
4.37003
4.40151
4.42424
4.44055
4.45631
4.47399
4.49375
4.5212
4.56159
4.61638
4.68284
4.7566
4.83383
4.91098
0.0928415
1.2673
1.80458
2.02589
2.11954
2.15034
2.13775
2.09056
2.01165
1.94361
2.0494
2.38857
2.87151
3.59925
4.36927
5.13861
4.36626
3.53421
2.90574
2.54256
2.4929
2.68955
2.92328
3.06732
3.15394
3.22621
3.29544
3.36367
3.434
3.50447
3.57594
3.65052
3.73092
3.81816
3.90798
3.99721
4.08575
4.1734
4.25993
4.34513
4.42865
4.50909
4.58521
4.65694
4.7226
4.78056
4.83017
4.87187
4.90772
4.94079
4.97598
5.01212
5.04869
5.09048
5.13932
5.19948
5.26744
5.33962
5.41384
5.48821
0.0978638
1.35777
1.90966
2.12938
2.22374
2.25526
2.2377
2.18005
2.10069
2.0774
2.30589
2.80585
3.40174
4.26107
5.19594
5.2223
4.1297
3.28586
2.70794
2.48082
2.62719
2.97458
3.22236
3.35119
3.42078
3.47501
3.52937
3.58922
3.65871
3.73339
3.81154
3.8943
3.98319
4.07744
4.17239
4.26734
4.36432
4.46187
4.55785
4.65133
4.74179
4.82849
4.91108
4.98947
5.06212
5.12803
5.18739
5.24144
5.29244
5.34266
5.39498
5.45144
5.51068
5.57186
5.63743
5.70863
5.78149
5.85484
5.928
6.00073
0.102635
1.44374
2.00989
2.22887
2.32842
2.36606
2.34606
2.27945
2.2124
2.26403
2.62279
3.25025
3.98177
4.95293
6.21619
5.07111
3.88471
3.02901
2.54793
2.52405
2.88194
3.28722
3.50205
3.58149
3.60993
3.63382
3.66948
3.72081
3.78969
3.87129
3.96059
4.05557
4.15553
4.25835
4.35992
4.46046
4.56329
4.66769
4.7707
4.87046
4.96632
5.05798
5.1455
5.22882
5.30695
5.37952
5.4473
5.51186
5.57496
5.63795
5.70317
5.77273
5.84338
5.91015
5.98147
6.05892
6.13554
6.21018
6.28341
6.35543
0.108964
1.52693
2.10877
2.33087
2.43823
2.48734
2.47005
2.3978
2.35666
2.50981
2.99944
3.71542
4.52846
5.53715
6.22548
4.77565
3.56731
2.76359
2.46207
2.69734
3.21125
3.57788
3.71428
3.73169
3.70904
3.69469
3.70781
3.75096
3.82151
3.91246
4.01592
4.12642
4.24053
4.35491
4.46609
4.57454
4.68362
4.7936
4.90196
5.00661
5.10671
5.20218
5.29329
5.38015
5.46239
5.54017
5.61453
5.68685
5.7583
5.82979
5.90308
5.9788
6.05276
6.12176
6.19481
6.27385
6.35233
6.42818
6.50209
6.57323
0.11676
1.60167
2.20895
2.44003
2.55776
2.62136
2.6125
2.54138
2.54141
2.82164
3.45165
4.25016
5.0685
5.91174
5.80963
4.31502
3.17967
2.53509
2.4998
2.98747
3.53326
3.79407
3.84535
3.79678
3.72155
3.66667
3.65432
3.68772
3.76038
3.86141
3.97963
4.10649
4.23615
4.36413
4.48724
4.60583
4.72265
4.83846
4.95163
5.06039
5.16404
5.26262
5.35658
5.44626
5.53182
5.61375
5.69306
5.77078
5.84768
5.92445
6.00204
6.07983
6.15439
6.22533
6.29991
6.37949
6.45905
6.53616
6.61113
6.68139
0.121802
1.66747
2.31162
2.55887
2.6908
2.7685
2.77246
2.71013
2.76591
3.19976
3.99288
4.91652
5.8431
6.47505
5.36716
3.84819
2.83579
2.41849
2.68697
3.33092
3.78142
3.92603
3.89504
3.78285
3.65668
3.56198
3.5231
3.54464
3.61751
3.72672
3.85769
3.99932
4.14382
4.28577
4.42186
4.55194
4.67783
4.80034
4.91859
5.03146
5.13858
5.2402
5.33697
5.42943
5.51808
5.60356
5.6867
5.76827
5.84882
5.92888
6.00873
6.08731
6.16272
6.23631
6.3132
6.39391
6.47477
6.55361
6.63016
6.70002
0.122781
1.73223
2.41636
2.68798
2.83808
2.93001
2.94656
2.90055
3.01965
3.63106
4.61779
5.69952
6.98643
7.19198
4.89332
3.45088
2.59738
2.44863
2.98558
3.63633
3.94003
3.97698
3.86964
3.69853
3.52455
3.39189
3.32654
3.33419
3.40384
3.51712
3.65673
3.80969
3.96681
4.1217
4.27059
4.41251
4.54822
4.67826
4.80228
4.91982
5.03092
5.13613
5.23621
5.33191
5.42387
5.51274
5.59924
5.68397
5.76744
5.85002
5.93165
6.01152
6.08911
6.16638
6.24656
6.32951
6.41255
6.4939
6.57267
6.64269
0.121682
1.79601
2.52293
2.82697
2.99862
3.10543
3.1344
3.10457
3.30135
4.1163
5.32898
6.39915
7.42821
6.46637
4.44585
3.12599
2.4628
2.60895
3.31202
3.85458
4.01244
3.95463
3.77814
3.55277
3.33411
3.16541
3.07381
3.0654
3.12748
3.23948
3.38259
3.54265
3.70934
3.87529
4.03585
4.18906
4.33466
4.47277
4.60333
4.72641
4.84242
4.95213
5.05644
5.15617
5.25202
5.34464
5.43468
5.52271
5.60927
5.69463
5.77872
5.86127
5.94267
6.02475
6.10929
6.19574
6.28212
6.36693
6.4485
6.51901
0.119071
1.85101
2.63158
2.97599
3.17169
3.29142
3.33504
3.3213
3.59433
4.48956
5.58344
6.55156
7.47206
5.71426
3.98535
2.82935
2.41331
2.85226
3.59903
3.97214
4.01061
3.86881
3.62951
3.35375
3.09283
2.88936
2.77115
2.74392
2.7936
2.89878
3.0403
3.20331
3.37635
3.55091
3.72136
3.88468
4.03969
4.18607
4.32388
4.45345
4.57548
4.69086
4.80053
4.90535
5.00604
5.10324
5.19762
5.28981
5.38035
5.46956
5.55757
5.6446
5.73146
5.81952
5.90954
6.00078
6.09169
6.18081
6.26566
6.33695
0.117189
1.88699
2.74388
3.13616
3.35841
3.48651
3.53895
3.53762
3.82754
4.51777
5.48085
6.42842
6.73689
4.96803
3.47796
2.55077
2.45427
3.12595
3.7994
4.01142
3.94643
3.72927
3.43191
3.1085
2.80689
2.56904
2.4229
2.37339
2.40585
2.49935
2.63503
2.79731
2.9735
3.15396
3.33209
3.50395
3.66756
3.8222
3.96781
4.10484
4.23405
4.35634
4.47266
4.58384
4.69061
4.79367
4.89373
4.99147
5.08747
5.18217
5.27595
5.36938
5.46328
5.55848
5.6551
5.75231
5.84881
5.94308
6.03178
6.10429
0.120184
1.90601
2.86633
3.31104
3.56287
3.69548
3.74082
3.73298
3.90458
4.38424
5.22875
6.22284
5.77409
4.20126
2.97613
2.35019
2.59765
3.3835
3.90552
3.98349
3.82837
3.54352
3.19208
2.823
2.4815
2.20894
2.03285
1.95746
1.96864
2.04686
2.17338
2.33162
2.50778
2.69125
2.87467
3.05333
3.22462
3.38734
3.54121
3.68655
3.82401
3.95445
4.07875
4.19769
4.31205
4.42256
4.52995
4.63498
4.73826
4.84038
4.94194
5.04357
5.14595
5.24942
5.35373
5.45808
5.56131
5.6617
5.7551
5.82949
0.130861
2.00027
3.01769
3.50973
3.7939
3.93338
3.95203
3.91276
3.97485
4.32248
5.19899
6.53044
5.14024
3.6143
2.59607
2.27947
2.81953
3.60126
3.93413
3.89822
3.66365
3.31754
2.91551
2.50237
2.1215
1.81383
1.60618
1.50263
1.49048
1.55131
1.66582
1.81653
1.98912
2.1724
2.35852
2.54214
2.72003
2.89047
3.05279
3.20702
3.35362
3.4933
3.62682
3.75496
3.87848
3.99811
4.11464
4.2288
4.3413
4.45281
4.56402
4.6755
4.78768
4.9006
5.01387
5.12671
5.23804
5.34579
5.4449
5.52186
0.14437
2.18508
3.22219
3.74995
4.06827
4.22833
4.20733
4.10455
4.07349
4.39054
5.41264
6.28777
4.45235
3.12401
2.33859
2.34181
3.0623
3.73149
3.89923
3.76337
3.45831
3.05653
2.60697
2.1512
1.73173
1.38979
1.15194
1.02291
0.989719
1.03253
1.13137
1.26945
1.43351
1.61214
1.79754
1.98355
2.1664
2.3436
2.514
2.67722
2.83343
2.98311
3.12689
3.26548
3.39958
3.52993
3.65727
3.78235
3.90592
4.02868
4.15128
4.27419
4.39763
4.52145
4.64521
4.76816
4.88909
5.00546
5.11112
5.19103
0.157074
2.41395
3.48312
4.04498
4.40867
4.62643
4.56684
4.36793
4.28727
4.6367
5.68655
5.55219
3.86171
2.7294
2.20431
2.51245
3.27087
3.77437
3.80588
3.58544
3.21808
2.76545
2.27098
1.77416
1.3179
0.947654
0.691223
0.551248
0.507298
0.533343
0.610622
0.726724
0.871784
1.03683
1.21422
1.39729
1.58143
1.76286
1.93971
2.11104
2.27654
2.4364
2.59102
2.74094
2.88677
3.02916
3.16883
3.3065
3.44287
3.57865
3.71439
3.85041
3.98676
4.1232
4.25918
4.39381
4.52559
4.65127
4.76356
4.84618
0.169117
2.6428
3.78717
4.39564
4.81869
5.09308
5.05571
4.76111
4.6799
5.15191
6.33836
4.85794
3.36564
2.45126
2.20418
2.73097
3.43262
3.74292
3.66491
3.37102
2.9483
2.4489
1.91192
1.37611
0.893555
0.515663
0.278959
0.171461
0.141075
0.152307
0.194703
0.267554
0.370646
0.500805
0.652347
0.818508
0.993139
1.17138
1.34966
1.52613
1.69901
1.86816
2.0334
2.19498
2.35329
2.50882
2.66216
2.81394
2.96481
3.11537
3.266
3.41686
3.56781
3.71844
3.86797
4.0152
4.15808
4.29261
4.41045
4.49473
0.189823
2.8693
4.11327
4.80001
5.31407
5.63474
5.51432
5.29334
5.23931
5.72269
6.17938
4.23796
3.01032
2.31398
2.32458
2.91832
3.50849
3.65619
3.48347
3.12624
2.654
2.11131
1.53404
0.970501
0.485502
0.163523
0.0436999
0.0207968
0.0179558
0.0190025
0.0239102
0.0374479
0.0672291
0.121771
0.206386
0.320412
0.458444
0.613399
0.778914
0.950251
1.12411
1.29854
1.47252
1.64489
1.81577
1.98503
2.15311
2.32034
2.48719
2.65402
2.82095
2.9879
3.15446
3.31988
3.48305
3.64231
3.79496
3.93625
4.05725
4.14141
0.211255
3.06973
4.44195
5.23541
5.90305
6.16748
5.97836
5.90721
6.00248
6.44877
5.41739
3.8686
2.83149
2.30254
2.48723
3.03758
3.50511
3.51939
3.26967
2.85688
2.33968
1.75681
1.14729
0.577638
0.156211
0.0192151
0.0222643
0.0362774
0.040308
0.0403924
0.0378301
0.0315982
0.0228498
0.0185888
0.025365
0.0499578
0.101535
0.185511
0.300077
0.4389
0.594871
0.762159
0.936586
1.1152
1.29623
1.47844
1.66132
1.84445
2.02777
2.21129
2.39467
2.57747
2.75887
2.93778
3.11264
3.28129
3.44043
3.58479
3.70541
3.78705
0.200857
3.21098
4.73281
5.65733
6.40084
6.59881
6.60567
6.82415
7.11071
6.93399
5.15499
3.754
2.75602
2.32904
2.58976
3.12222
3.43622
3.34871
3.03053
2.56784
2.00921
1.38965
0.766726
0.238346
0.0189246
0.0310984
0.0423839
0.0433344
0.0434498
0.0435216
0.043571
0.043517
0.0431197
0.0416292
0.037122
0.0280832
0.0209511
0.0258065
0.0506046
0.105571
0.196745
0.321877
0.473684
0.644096
0.826533
1.01628
1.21032
1.40686
1.6046
1.80286
2.0003
2.19613
2.38903
2.57754
2.75974
2.93301
3.09364
3.23606
3.35178
3.42781
0.181929
3.26062
4.93807
5.99633
6.70851
6.98957
7.27051
7.68759
7.81129
6.88163
5.08803
3.6196
2.58775
2.29781
2.6192
3.16209
3.32818
3.14919
2.77106
2.2628
1.66551
1.02202
0.414054
0.0424607
0.0271269
0.0420344
0.042504
0.0424119
0.0423531
0.0423594
0.0424222
0.0425346
0.0426778
0.0428048
0.0428061
0.0424199
0.0408257
0.036062
0.0276338
0.0238461
0.0360693
0.076805
0.158985
0.284799
0.445149
0.628001
0.823878
1.0267
1.23274
1.43955
1.64524
1.84814
2.04661
2.2385
2.42172
2.59323
2.74906
2.88348
2.9885
3.05388
0.169864
3.13864
5.01491
6.2095
6.88783
7.22619
7.631
8.00159
7.78059
6.31541
4.61265
3.15526
2.26353
2.21756
2.64981
3.15376
3.18223
2.92685
2.49453
1.9442
1.31295
0.665611
0.138758
0.0138064
0.0406889
0.0417513
0.0416535
0.0415388
0.041452
0.0414109
0.0414187
0.0414804
0.0415994
0.0417681
0.0419612
0.0421579
0.042302
0.0422169
0.0413641
0.038225
0.031463
0.02765
0.0411474
0.0897459
0.189031
0.336028
0.514978
0.711431
0.916027
1.12317
1.32926
1.53156
1.72778
1.9156
2.09243
2.25497
2.39891
2.51796
2.60377
2.64598
0.174339
3.03362
4.98266
6.28483
6.96029
7.28912
7.64376
7.74386
7.09771
5.38451
3.77081
2.48227
1.93957
2.16708
2.72854
3.09333
3.01114
2.68446
2.20279
1.61362
0.961483
0.342457
0.019709
0.0358951
0.0409644
0.0409498
0.0408634
0.040784
0.0407182
0.0406695
0.0406424
0.0406499
0.0407121
0.0408323
0.0410005
0.0412139
0.0414602
0.0417232
0.0419622
0.0419806
0.0410834
0.0375483
0.0318015
0.035291
0.0673679
0.149158
0.284266
0.456134
0.647042
0.845405
1.04427
1.2391
1.4265
1.60349
1.767
1.91331
2.03742
2.13204
2.1856
2.17297
0.18462
3.01227
4.90699
6.2571
6.89506
7.18359
7.38124
7.16965
5.95676
4.3151
2.84003
1.8654
1.75852
2.19171
2.81341
2.99467
2.81289
2.42361
1.89686
1.27288
0.621238
0.104128
0.0182892
0.0401131
0.0403381
0.0402318
0.0401447
0.0400846
0.0400515
0.0400309
0.0400112
0.0399981
0.0400209
0.04009
0.0402049
0.040371
0.0405886
0.0408621
0.0411867
0.0415404
0.0418382
0.0416687
0.0396938
0.0348297
0.0351691
0.0598886
0.131186
0.255756
0.417453
0.597179
0.782081
0.964198
1.13815
1.29968
1.44479
1.56888
1.6658
1.72602
1.73219
1.6408
0.2074
2.92961
4.85954
6.1124
6.65494
6.89849
6.88989
6.31453
4.77364
3.23314
1.99761
1.46983
1.72753
2.29094
2.83213
2.85698
2.59064
2.14468
1.57707
0.931209
0.313619
0.0145828
0.036962
0.0398833
0.0397751
0.0396478
0.0395412
0.0394694
0.0394376
0.0394338
0.0394346
0.0394369
0.0394616
0.0395084
0.0395832
0.0396997
0.0398654
0.0400892
0.0403754
0.0407315
0.0411584
0.0415972
0.0417533
0.0405139
0.036377
0.0354168
0.0556487
0.118228
0.23069
0.377998
0.540823
0.705444
0.862859
1.00655
1.13081
1.2295
1.29452
1.31333
1.26252
1.08455
0.233751
3.11987
4.79998
5.75963
6.22293
6.41205
6.14086
5.16797
3.59401
2.23241
1.37142
1.33157
1.79468
2.43977
2.78813
2.68702
2.34397
1.84724
1.24297
0.597875
0.0909554
0.0198141
0.0393221
0.0394036
0.0392919
0.0391735
0.0390622
0.0389725
0.0389186
0.0389027
0.0389031
0.0389184
0.0389583
0.0390126
0.0390835
0.0391763
0.0392976
0.0394657
0.0396911
0.0399858
0.0403655
0.0408377
0.0413732
0.0417381
0.0409679
0.0374014
0.0354248
0.0511533
0.103447
0.199901
0.32749
0.467281
0.604704
0.729425
0.833096
0.907395
0.941983
0.921314
0.818474
0.580779
0.243143
3.17444
4.52627
5.24928
5.62973
5.67269
5.19302
3.84831
2.45915
1.4142
1.04968
1.37007
1.92128
2.5527
2.69217
2.48216
2.07301
1.53137
0.902321
0.295195
0.0125213
0.0367867
0.0390698
0.0389437
0.0388366
0.0387379
0.0386488
0.0385692
0.0385104
0.0384776
0.0384571
0.0384606
0.0384983
0.0385591
0.0386391
0.0387321
0.0388407
0.0389785
0.0391528
0.0393813
0.0396851
0.040079
0.0405822
0.0411864
0.0417119
0.0413677
0.0384654
0.0354624
0.0455993
0.0846504
0.159931
0.261516
0.371675
0.474941
0.559202
0.613688
0.626645
0.582529
0.458837
0.233003
0.231782
2.99307
4.13885
4.65628
4.87666
4.68446
3.86903
2.56268
1.47733
0.901784
1.01485
1.48618
2.09204
2.57211
2.54205
2.24557
1.77904
1.19778
0.5676
0.0799186
0.0206754
0.0386851
0.0386693
0.0385307
0.038419
0.0383265
0.0382557
0.0381988
0.0381591
0.0381325
0.0381059
0.0380952
0.0381134
0.0381584
0.0382309
0.0383241
0.038435
0.0385664
0.0387201
0.0389099
0.0391513
0.0394597
0.0398621
0.0403836
0.0410279
0.0416878
0.0417926
0.0398363
0.0362006
0.0399576
0.0633528
0.112617
0.181662
0.255447
0.318328
0.356828
0.358944
0.313688
0.21505
0.0834223
0.212463
2.65161
3.62766
3.97287
3.90691
3.50808
2.43923
1.44937
0.816339
0.747764
1.12941
1.63942
2.26989
2.50613
2.35321
1.98089
1.46392
0.852247
0.264824
0.0105933
0.0365941
0.0384379
0.0382762
0.0381489
0.0380433
0.0379549
0.0378885
0.0378416
0.037818
0.0378093
0.0378
0.037797
0.037809
0.037838
0.0378899
0.0379651
0.0380641
0.0381886
0.038337
0.0385131
0.0387232
0.0389777
0.0392958
0.0397018
0.0402244
0.0408866
0.0416451
0.0421726
0.0414272
0.0384126
0.0369293
0.0452385
0.0677366
0.101154
0.135059
0.15657
0.154707
0.124012
0.071835
0.028827
0.194816
2.21421
2.9263
3.02814
2.80212
2.10707
1.28815
0.717109
0.568058
0.843869
1.2818
1.82325
2.35831
2.37928
2.12336
1.68891
1.12973
0.513137
0.0612606
0.0227632
0.0381073
0.0380415
0.037882
0.0377678
0.0376787
0.0376086
0.0375543
0.0375139
0.0374938
0.0374912
0.0374967
0.0375121
0.0375389
0.0375731
0.0376178
0.037677
0.0377553
0.0378587
0.0379895
0.0381505
0.0383441
0.0385723
0.0388433
0.0391706
0.0395758
0.0400898
0.0407433
0.0415401
0.0423583
0.0427158
0.0416661
0.0391869
0.0382335
0.0418052
0.0486898
0.0539872
0.0525606
0.0437038
0.0346692
0.0348982
0.186763
1.73463
2.04396
1.85922
1.63258
1.016
0.580587
0.441395
0.638649
1.0072
1.44942
2.03228
2.32012
2.1882
1.85151
1.36937
0.779213
0.213889
0.00879136
0.0367294
0.0378853
0.0376939
0.0375385
0.0374248
0.0373395
0.037281
0.0372422
0.0372161
0.0372033
0.0372025
0.0372101
0.0372304
0.0372661
0.0373121
0.0373672
0.0374306
0.0375027
0.0375899
0.0376983
0.0378329
0.0379992
0.0382009
0.0384404
0.0387219
0.039056
0.0394585
0.0399529
0.0405708
0.0413394
0.0422467
0.043172
0.0437886
0.043722
0.0430197
0.0423608
0.0422742
0.0426418
0.0431883
0.0430614
0.0404428
0.196277
1.2282
1.27981
1.15976
0.723493
0.434338
0.35302
0.513641
0.816437
1.16698
1.63629
2.15671
2.19463
1.95118
1.54884
1.0288
0.439117
0.0376148
0.0271542
0.0377473
0.0375736
0.0373771
0.0372334
0.0371265
0.037045
0.0369889
0.0369551
0.0369388
0.0369377
0.0369475
0.0369622
0.0369841
0.0370175
0.0370623
0.0371206
0.0371904
0.0372684
0.0373568
0.0374573
0.0375724
0.0377098
0.0378761
0.0380754
0.0383134
0.0385962
0.0389286
0.039319
0.0397835
0.0403462
0.0410343
0.0418662
0.0428428
0.0439116
0.0449766
0.0459711
0.0468375
0.0473675
0.0469962
0.0448862
0.0406382
0.251174
0.929511
0.71792
0.450839
0.303541
0.302314
0.459638
0.702189
0.97052
1.33473
1.8423
2.11905
1.99904
1.67243
1.2217
0.677247
0.157531
0.00957096
0.0371298
0.0375852
0.0373156
0.0371085
0.0369605
0.0368537
0.036778
0.0367278
0.0366969
0.0366826
0.0366846
0.0367008
0.0367264
0.0367599
0.0368001
0.0368457
0.0369002
0.0369656
0.0370421
0.0371313
0.037232
0.0373435
0.0374685
0.0376102
0.0377731
0.0379643
0.0381917
0.0384607
0.0387751
0.0391399
0.0395627
0.0400557
0.0406365
0.0413216
0.0421194
0.0430271
0.0439938
0.0448868
0.0454237
0.0450898
0.0432388
0.0396373
0.177571
0.290589
0.227346
0.237001
0.322089
0.475993
0.651806
0.842721
1.12316
1.5223
1.96142
1.97932
1.74099
1.35473
0.877671
0.353316
0.0239211
0.0263141
0.0375814
0.0373611
0.0370822
0.0368759
0.0367251
0.0366144
0.036538
0.0364903
0.0364644
0.0364552
0.0364596
0.0364756
0.0365017
0.0365382
0.036584
0.0366369
0.0366957
0.0367603
0.0368319
0.036914
0.0370078
0.0371139
0.0372336
0.0373666
0.0375122
0.0376731
0.037855
0.0380637
0.0383052
0.0385851
0.0389069
0.0392725
0.0396848
0.0401508
0.0406815
0.0412777
0.041925
0.0425658
0.0430342
0.0429586
0.0417463
0.0389422
0.036706
0.0405386
0.0447541
0.0497636
0.055855
0.0633714
0.0726754
0.0841567
0.0982916
0.115632
0.136786
0.162516
0.193995
0.233338
0.284447
0.353637
0.447102
0.556976
0.620309
0.458549
0.0364994
0.039901
0.043679
0.0482589
0.0539409
0.0610849
0.0700819
0.0813717
0.0955219
0.113234
0.135318
0.162772
0.197031
0.240532
0.297734
0.376165
0.484006
0.613777
0.698715
0.586777
0.0362898
0.0392372
0.0425477
0.0466485
0.0518436
0.0584977
0.0670094
0.0778368
0.091598
0.109105
0.131347
0.15954
0.195338
0.241319
0.301922
0.384329
0.495621
0.627439
0.725131
0.648547
0.0360852
0.0385734
0.0414047
0.0449963
0.0496486
0.0557211
0.0636023
0.0737348
0.0867292
0.103433
0.124936
0.152605
0.188224
0.234327
0.294846
0.375587
0.481577
0.605855
0.709433
0.712664
0.0358926
0.0379344
0.0402948
0.0433694
0.0474486
0.0528789
0.0600282
0.0692996
0.0812411
0.0966416
0.116571
0.142423
0.175993
0.21965
0.276661
0.351327
0.447008
0.559046
0.664288
0.721227
0.0357179
0.0373418
0.039257
0.0418291
0.0453324
0.0500946
0.0564587
0.06478
0.0755131
0.0893091
0.107088
0.130106
0.160021
0.19895
0.249549
0.314935
0.397424
0.494641
0.594543
0.674668
0.035565
0.0368118
0.0383217
0.0404248
0.0433754
0.0474781
0.0530495
0.0604031
0.0699008
0.0820253
0.0974556
0.117161
0.142485
0.175173
0.217337
0.27128
0.338761
0.419076
0.506567
0.589984
0.0354365
0.0363553
0.0375088
0.03919
0.0416326
0.0451151
0.0499269
0.0563489
0.0646757
0.0752464
0.0884924
0.105027
0.125746
0.151878
0.18495
0.226624
0.278288
0.340166
0.410118
0.483137
0.0353336
0.0359771
0.0368261
0.0381394
0.0401339
0.0430607
0.0471797
0.0527455
0.0600117
0.0692295
0.0806571
0.0946118
0.111548
0.132121
0.157186
0.187721
0.224642
0.268439
0.318668
0.373551
0.0352567
0.0356766
0.0362691
0.0372684
0.038883
0.041337
0.0448593
0.0496782
0.0560174
0.0640832
0.0740574
0.0861121
0.100438
0.117268
0.13687
0.159511
0.185439
0.214884
0.247939
0.284236
0.0352061
0.035445
0.0358184
0.0365611
0.0378709
0.0399401
0.0429714
0.047169
0.0527211
0.0597886
0.0685138
0.0790331
0.0914784
0.105951
0.122398
0.140483
0.15967
0.179556
0.199633
0.21698
0.035099
0.0352384
0.0353419
0.0357143
0.036504
0.0378422
0.039857
0.0426492
0.0462619
0.0506878
0.0558782
0.0617356
0.0681359
0.0744955
0.0791774
0.0799136
0.0752492
0.0723999
0.0778718
0.095041
0.0130615
0.021559
0.0155838
0.0124291
0.0107044
0.00989032
0.00987976
0.0108495
0.0131592
0.0172769
0.0240078
0.0341278
0.0480529
0.0664695
0.0900534
0.119484
0.154342
0.193003
0.232425
0.277422
0.0300809
0.0214791
0.0325126
0.0436631
0.0556895
0.068663
0.0823674
0.0968543
0.112381
0.129226
0.147474
0.166663
0.181702
0.204231
0.244636
0.295471
0.349474
0.395912
0.423258
0.487066
0.0186477
0.0370744
0.0518828
0.0698321
0.0885052
0.108045
0.128453
0.149569
0.171332
0.19347
0.214808
0.233189
0.251257
0.280238
0.302529
0.322689
0.338924
0.344299
0.354339
0.387625
0.0127922
0.0216214
0.0246465
0.0310311
0.0399142
0.0501664
0.0617197
0.0743397
0.0876863
0.101342
0.115168
0.130921
0.1553
0.187053
0.207143
0.21355
0.20798
0.192231
0.175713
0.168689
0.00938056
0.0134294
0.0202043
0.0240255
0.0270246
0.0313065
0.0364398
0.0419658
0.0475609
0.0530443
0.0585895
0.0652348
0.0747458
0.0863914
0.0954277
0.0971261
0.0905369
0.0777894
0.0631062
0.0494296
0.00865886
0.0110356
0.0199247
0.0272092
0.0266881
0.0260488
0.0265172
0.027767
0.029394
0.031097
0.0327273
0.0342897
0.0357156
0.0366233
0.0367108
0.0353304
0.0323881
0.0289596
0.0266113
0.0262181
0.00899618
0.0109043
0.019612
0.0312149
0.0328846
0.0319879
0.0309793
0.0301676
0.0296086
0.0292896
0.0291593
0.0291479
0.0291646
0.0291695
0.0293772
0.0301467
0.0317182
0.0340255
0.0365873
0.0387804
0.00986797
0.0110987
0.0198122
0.0323356
0.034733
0.0347505
0.0346524
0.0345865
0.0345599
0.0345993
0.034738
0.0350081
0.0354375
0.036043
0.0368159
0.0376978
0.0385747
0.0393264
0.0398887
0.040263
0.0104449
0.0114708
0.021616
0.0333302
0.0350446
0.0350959
0.0351502
0.0352542
0.0353914
0.0355644
0.0357846
0.0360672
0.0364252
0.0368588
0.0373443
0.0378363
0.0382845
0.038653
0.0389303
0.0391216
0.00898387
0.0123499
0.025369
0.0344629
0.035192
0.0351673
0.0352035
0.0352827
0.0353899
0.0355249
0.0356923
0.0358987
0.0361489
0.0364404
0.0367595
0.0370822
0.0373815
0.0376362
0.037835
0.0379759
0.00976284
0.014734
0.030658
0.0352272
0.0352608
0.0352054
0.035217
0.035261
0.0353266
0.0354122
0.0355194
0.0356505
0.0358067
0.0359856
0.0361795
0.0363756
0.0365594
0.0367184
0.0368449
0.0369359
0.01297
0.0223987
0.0347671
0.0353578
0.0352358
0.0351975
0.0351971
0.0352141
0.0352428
0.0352818
0.0353312
0.0353916
0.0354631
0.0355443
0.0356319
0.0357205
0.0358037
0.0358761
0.0359342
0.0359763
0.0611884
0.0793006
0.0888609
0.097535
0.105307
0.110433
0.113212
0.114138
0.113637
0.11261
0.11164
0.110379
0.109131
0.108282
0.10848
0.26947
0.310338
0.483476
0.647667
0.741689
0.78385
0.801396
0.802326
0.79164
0.772792
0.748284
0.720429
0.690949
0.66074
0.629507
0.502414
0.328949
0.365447
0.473311
0.577826
0.635691
0.655821
0.656772
0.648645
0.636689
0.623721
0.611522
0.601627
0.595904
0.59695
0.612608