/*--------------------------------*- C++ -*----------------------------------*\
| =========                 |                                                 |
| \\      /  F ield         | OpenFOAM: The Open Source CFD Toolbox           |
|  \\    /   O peration     | Version:  v1912                                 |
|   \\  /    A nd           | Website:  www.openfoam.com                      |
|    \\/     M anipulation  |                                                 |
\*---------------------------------------------------------------------------*/
FoamFile
{
    version     2.0;
    format      ascii;
    class       volScalarField;
    location    "38";
    object      p;
}
// * * * * * * * * * * * * * * * * * * * * * * * * * * * * * * * * * * * * * //

dimensions      [1 -1 -2 0 0 0 0];


internalField   nonuniform List<scalar> 
20320
(
419443
429697
429723
429775
429847
429934
430037
430151
430275
430405
430539
430672
430802
430927
431042
431145
431235
431309
431365
431398
399521
409433
409468
409522
409594
409683
409786
409901
410025
410156
410289
410423
410553
410678
410793
410895
410983
411053
411104
411134
380197
389797
389833
389887
389960
390049
390152
390268
390392
390522
390655
390788
390918
391041
391154
391255
391341
391410
391459
391491
361472
370774
370809
370863
370935
371023
371126
371240
371363
371493
371625
371756
371884
372005
372116
372216
372300
372368
372418
372453
343335
352345
352379
352432
352503
352590
352691
352803
352925
353052
353183
353312
353438
353556
353665
353762
353845
353912
353964
354002
325771
334496
334529
334581
334650
334735
334833
334943
335062
335187
335314
335441
335563
335679
335785
335879
335959
336025
336076
336117
308769
317213
317245
317295
317362
317443
317538
317645
317759
317880
318003
318125
318243
318355
318457
318547
318624
318687
318737
318780
292314
300486
300516
300564
300627
300704
300794
300895
301003
301118
301234
301350
301463
301568
301664
301748
301820
301880
301928
301972
276398
284301
284329
284372
284431
284502
284586
284679
284779
284885
284992
285099
285202
285298
285385
285461
285526
285579
285624
285667
261005
268647
268672
268711
268763
268827
268902
268984
269074
269167
269261
269355
269444
269526
269600
269664
269717
269761
269800
269839
246128
253511
253533
253566
253611
253666
253729
253798
253872
253949
254026
254100
254169
254232
254286
254330
254366
254395
254425
254458
231756
238886
238903
238930
238966
239008
239057
239110
239165
239220
239272
239320
239361
239395
239419
239434
239443
239450
239463
239485
217877
224760
224773
224791
224816
224845
224876
224908
224939
224966
224986
224999
225001
224992
224973
224945
224912
224883
224869
224869
204484
211122
211129
211139
211151
211164
211175
211182
211183
211175
211155
211121
211070
211003
210920
210826
210728
210641
210583
210545
191565
197965
197966
197966
197964
197958
197947
197926
197892
197843
197773
197679
197558
197410
197235
197041
196842
196659
196523
196416
179111
185278
185272
185261
185245
185220
185183
185131
185059
184961
184832
184665
184455
184199
183896
183554
183192
182847
182573
182340
167111
173050
173037
173016
172985
172940
172877
172792
172678
172527
172331
172079
171760
171366
170889
170331
169713
169087
168550
168069
155556
161270
161252
161220
161174
161109
161021
160902
160745
160540
160272
159926
159484
158923
158223
157367
156355
155239
154170
153144
144431
149930
149905
149864
149803
149720
149607
149456
149259
148999
148661
148220
147647
146903
145941
144703
143130
141194
139012
136599
133726
139014
138984
138934
138861
138761
138626
138447
138212
137904
137501
136972
136275
135352
134120
132459
130191
127053
122691
116475
114400
116755
115984
115382
114941
114767
114826
115327
116583
119381
124932
114583
105539
101765
99477.4
99659.8
100762
103408
101118
217206
338604
257714
190407
139367
102188
76282.7
58971.5
47743.8
40621.3
36177.2
33448.6
31816.8
30859.6
30367.6
30154.3
30071.7
30435
29943.4
29891
29987.6
29882.2
30461.2
31076
29712.8
29587.7
29552.7
29526.6
29584.2
29635.8
30095.6
30621.8
30470.8
30435.7
30271.6
27401.8
27188.4
29458.3
34310.3
35841.1
36361.8
109014
111584
111080
110540
110121
109799
109692
110188
111290
113438
117065
112048
103218
97398.6
96801.6
96758.3
96921.1
97632.5
99159.7
154433
269377
228282
175495
129497
94424.1
69554.5
52812.3
41935.6
35038.5
30743.8
28121.1
26575.9
25679.2
25211.5
25017.1
24925.4
24923.7
25005.2
25199.3
25363.2
25621.6
25482.4
25320.9
25350.2
25580.7
25662.6
25794.6
26162.6
26272.7
26353.5
26934.5
27997.7
27541.9
27899.5
27454.9
27975.7
27810.8
29516.9
30813
31356.9
103439
106277
105877
105374
104921
104579
104788
105337
106239
107455
108891
107218
101014
97207.2
96828.5
96768.4
96814.2
97206
97919.8
158078
215805
198511
157902
117220
84623.9
61227.2
45501.2
35350.1
28955.7
24993.5
22582.9
21155.1
20362.6
19964.5
19801.9
19737.8
19718.1
19829.8
20016.9
20194
20399.4
20346.8
20143.3
20166.1
20338.7
20443.4
20583.9
20839.1
20955.6
21179.3
21743.6
22529.6
22885.5
25061.6
27321.9
27812.4
25766.8
25277.8
25953
26302.5
98621.3
100794
100399
99913.5
99501.2
99212
99249.3
99632.5
100431
101414
102203
101577
98960.9
96365.9
96851.7
96759.9
96713.1
96950.2
100211
135147
170122
165012
134888
100128
70999.9
50069.7
36203.7
27420.6
21979
18644.6
16636.3
15463.9
14827
14525.6
14428
14430.8
14477.5
14592.4
14764.7
14936
15086.6
15084.5
14973.5
14955.5
15042.8
15128.6
15247.1
15427.2
15585
15867
16421.2
17242.2
18040.2
20318.8
23957.5
23201.2
21395.2
20859
21109.9
21254.1
93505.7
96390
96010.2
95480.8
94808.1
94300.2
94114.4
94423.1
94983.8
95684.7
96448.8
96322.8
95182.9
94000.9
95994.3
96718.8
96624.3
96457.6
99240.7
112799
132201
129985
106929
77710.9
52944.1
35667.2
24685.7
18009.9
14021.8
11635.2
10231
9437.21
9034.57
8876.57
8876.49
8966.96
9091.25
9233.19
9401.53
9566.33
9700.19
9730.45
9664.86
9628.88
9662.44
9717.79
9808.04
9941.25
10090.2
10405.9
10961.4
11904.4
12973
14861.4
17024.5
17272.9
16482.8
16114.3
16178
16180.3
88369.2
91000.7
90929.9
90211.8
89385.6
88711.8
88532.5
88774.2
89097.5
89550.2
90213.2
90890.5
91066.3
90867
93975.4
96507.1
96622.5
95690.7
90002
93208.6
100306
95469.5
75297.4
50177.3
30105.3
17365.2
10348
6703.34
4846.75
3824.74
3286.12
3019.85
2966.67
3003.55
3120.03
3321.2
3558.88
3747.89
3927.49
4095.2
4232.78
4295.93
4249.1
4195.78
4191.08
4210.72
4269.94
4358.28
4416.06
4695.39
5202.61
6519.14
7610.49
9164.81
10905.3
11473.7
11265.3
11131.4
11152.3
11064.6
83412.3
85394.4
85079.2
84417.4
83552.5
82849.9
82540.4
82565.6
82817.8
83250.7
83917.4
84814.8
85847.8
86618
92641.8
95684.5
95687.8
88886.7
79251.8
75242.5
72688.9
62523.2
40973
16531.9
2504.19
595.044
120.681
21.213
4.65353
-5.10744
-11.9513
-16.6808
-20.3131
-22.2223
-18.9132
-2.48901
39.8052
109.779
183.96
223.761
217.445
209.212
149.329
70.8011
67.267
70.2531
80.9155
112.034
198.837
222.154
267.32
1182.21
1954.52
3275.12
4877.91
5694.28
5872.31
5999.25
6062.72
5905.21
78627.2
79889.2
79376.6
78656.7
77621.4
76792.5
76438.2
76297.6
76396.8
76771.7
77503.5
78597.5
80138.8
81679.1
87758
83619
87783.5
78771.7
67981
58477.3
48536.4
31843.1
6047.57
107.208
66.2541
45.6125
28.6625
15.0595
1.36641
-8.32425
-15.3564
-20.6609
-25.0322
-29.1795
-31.2099
-31.5432
-31.9107
-32.4055
-32.882
-33.3334
-33.742
-34.1776
-34.4407
-34.5555
-34.9073
-35.2593
-35.772
-36.4847
-37.5393
-40.8508
-42.4168
-34.1895
-32.6824
-61.8641
363.192
683.829
953.698
1180.54
1270.18
1057.1
73962.3
75014.3
74896.5
74096.4
72765.7
71306.6
70301.2
69957.2
69960.6
70363.1
70976
72182.5
74321.4
77905.8
78885.5
93140.6
82240.8
70106.5
56569.5
42986
27576.2
5344.51
118.206
63.1968
47.2563
27.6972
12.315
1.05172
-8.69142
-16.6699
-22.7543
-27.4222
-31.1587
-34.4195
-36.7586
-37.7994
-38.1901
-38.5507
-38.9963
-39.4829
-39.905
-40.2471
-40.4173
-40.5043
-40.8367
-41.2593
-41.8082
-42.5092
-43.5596
-45.5594
-48.4112
-51.0307
-54.6628
-67.0173
-66.5627
-65.7983
-63.2779
-59.9544
-58.8791
-57.202
69255.6
70276.4
69848
68849.1
67669.5
66461.2
64968
63660.7
63348
63490.6
64191.1
65634.9
67292.5
72439.4
74745.1
89840.6
77791.8
61136.7
45436.5
28866.9
8417.28
59.2475
43.8637
38.2581
23.3441
9.32832
-2.29751
-11.3932
-18.9546
-25.3128
-30.3946
-34.4086
-37.6367
-40.3861
-42.5849
-43.9167
-44.5558
-44.9363
-45.2994
-45.6841
-46.0458
-46.3677
-46.5993
-46.7946
-47.1315
-47.6089
-48.2438
-49.0753
-50.2686
-52.177
-54.6071
-57.1523
-60.9367
-66.021
-65.621
-65.7279
-65.6966
-65.206
-64.6552
-63.8402
64381.7
65203
64623.4
63354.7
61813.1
60194.7
58668.3
57605.3
56859.2
57021.7
57594.6
58797.8
58744.5
68336.5
69940.5
82784.9
68963.8
51908.4
34718.7
15505.8
267.674
23.5841
21.1872
11.6666
1.68093
-8.06412
-16.5518
-23.5497
-29.387
-34.3533
-38.4677
-41.8093
-44.5332
-46.8352
-48.7708
-50.1499
-50.9407
-51.384
-51.7155
-52.0324
-52.3432
-52.6407
-52.8999
-53.1563
-53.5228
-54.0452
-54.7399
-55.6582
-56.9297
-58.7525
-61.0618
-63.6587
-66.9737
-70.8239
-71.8119
-71.8536
-71.5434
-70.8762
-70.1063
-69.192
59695.8
61161.3
59508.4
58102.1
56197
54133.5
52112.7
50807.6
50110.2
50666.2
51327
52238.7
53813
66008.5
66317.4
71916.6
59005.2
42413.4
24327
3468.42
8.33169
0.674553
-3.9451
-10.3977
-17.2281
-23.9611
-29.9952
-35.1807
-39.6201
-43.4689
-46.7442
-49.4727
-51.7344
-53.6531
-55.3034
-56.5842
-57.4167
-57.9078
-58.2339
-58.511
-58.7806
-59.0559
-59.3272
-59.622
-60.0229
-60.5794
-61.3153
-62.2842
-63.587
-65.3394
-67.5225
-70.0277
-72.9474
-75.894
-77.2499
-77.5163
-77.2214
-76.5462
-75.6492
-74.572
55349.7
56213.6
54627.9
53236.9
50906.4
48559.6
46237.5
44256.7
43130.2
43341.4
44136.7
45258.4
49220.3
55548.7
56323.7
57941.1
48350.9
32801.7
13762
136.168
-17.2766
-19.5407
-24.2422
-28.8595
-33.6032
-38.1969
-42.4061
-46.1666
-49.5037
-52.469
-55.057
-57.265
-59.1265
-60.7185
-62.1012
-63.2283
-64.0268
-64.5303
-64.8567
-65.1122
-65.3556
-65.6122
-65.8871
-66.2088
-66.6376
-67.2174
-67.9809
-68.9771
-70.2779
-71.9573
-74.0047
-76.3462
-78.917
-81.3449
-82.7505
-83.1596
-82.9266
-82.2603
-81.2833
-80.0314
49994.9
50887.3
50674.6
48558.3
46276.1
43686
40940.3
38395.7
36199.9
35670.9
36331.5
37457.5
31863.8
40865.4
61840.5
47200.5
38072.7
23426.3
3740.21
-28.5657
-33.1174
-37.2044
-41.0435
-44.4889
-47.7778
-50.8862
-53.7883
-56.4782
-58.9616
-61.2408
-63.2881
-65.0767
-66.6109
-67.9343
-69.0884
-70.0555
-70.7813
-71.2696
-71.5945
-71.8398
-72.0663
-72.3079
-72.5825
-72.9198
-73.3653
-73.961
-74.7414
-75.7464
-77.0238
-78.6197
-80.5174
-82.6497
-84.9077
-86.9805
-88.3175
-88.8116
-88.669
-88.0502
-87.0384
-85.6497
45597.7
46105
46411.7
44031
41593.9
38553.2
35242.3
32372.1
29070.1
26077.8
24784.4
23646.7
24773.2
31678.1
46289.3
39471.4
28861.5
14366.4
204.578
-42.085
-47.5709
-52.1754
-55.3097
-57.8927
-60.1721
-62.2632
-64.2401
-66.1423
-67.9821
-69.7406
-71.3737
-72.8375
-74.1165
-75.2292
-76.2015
-77.0276
-77.6721
-78.1313
-78.4498
-78.6897
-78.9053
-79.1362
-79.4078
-79.7516
-80.2066
-80.8111
-81.5983
-82.5975
-83.8402
-85.3484
-87.0976
-89.0171
-90.998
-92.7881
-94.0171
-94.5624
-94.5073
-93.9506
-92.9394
-91.4694
41008.6
42333.7
41750.8
39679.8
37189.3
33931.2
30173
26347.5
22158.2
21018.6
21548.6
21973.5
23386.1
23780.1
35876.3
30557.7
20731.4
6121.8
-1.57803
-57.5929
-61.4748
-65.2411
-67.734
-69.6388
-71.1967
-72.5792
-73.9026
-75.237
-76.6033
-77.9731
-79.2946
-80.5148
-81.6023
-82.5581
-83.3942
-84.1085
-84.68
-85.1062
-85.415
-85.6512
-85.8614
-86.086
-86.3552
-86.7014
-87.1604
-87.7665
-88.5497
-89.5309
-90.7297
-92.1524
-93.7647
-95.4937
-97.236
-98.7948
-99.9149
-100.471
-100.475
-99.9724
-98.9816
-97.4859
37265.9
38885.4
37523.6
35609.1
33242
29924.1
25842.6
21480.1
20924.4
21024.2
21247
21718.9
22216.8
22944.7
25173.9
22297.7
13597.2
783.42
-77.121
-70.0569
-74.2747
-76.9938
-78.8553
-80.189
-81.2052
-82.0793
-82.9408
-83.8718
-84.8934
-85.9767
-87.0677
-88.1071
-89.0543
-89.8971
-90.6355
-91.2677
-91.7821
-92.1794
-92.4785
-92.7141
-92.9237
-93.1473
-93.4164
-93.7633
-94.2222
-94.8231
-95.5917
-96.5433
-97.6904
-99.0274
-100.515
-102.083
-103.629
-105.001
-106.014
-106.55
-106.585
-106.125
-105.169
-103.688
34562.8
35127.2
33598.5
31816.9
29754.6
26667
22394.4
17346.7
20367.3
20869.6
21010.6
20236
22966.2
16864.2
18813.3
15579.9
7381.39
3.56953
-78.2597
-83.2343
-85.9175
-87.796
-89.0601
-89.8977
-90.4891
-90.9897
-91.5243
-92.1683
-92.9399
-93.8115
-94.7299
-95.6337
-96.4778
-97.2395
-97.9096
-98.4851
-98.9596
-99.3364
-99.6305
-99.8691
-100.084
-100.311
-100.583
-100.93
-101.386
-101.975
-102.72
-103.633
-104.72
-105.969
-107.34
-108.766
-110.153
-111.373
-112.287
-112.793
-112.843
-112.42
-111.513
-110.084
31284.6
31568
29610.2
28022.5
26584.7
24183.6
19884.5
15025.4
17751.6
20387.9
19770.1
18715.2
19999.2
16781.2
14361.5
10466.6
2630.63
-64.1263
-94.0793
-95.0269
-96.7652
-97.9006
-98.6191
-99.0332
-99.2877
-99.5115
-99.8121
-100.248
-100.835
-101.546
-102.331
-103.129
-103.892
-104.593
-105.215
-105.753
-106.202
-106.568
-106.863
-107.11
-107.334
-107.57
-107.846
-108.195
-108.644
-109.217
-109.932
-110.799
-111.82
-112.979
-114.237
-115.533
-116.784
-117.882
-118.713
-119.188
-119.252
-118.874
-118.03
-116.676
25698.1
27214.2
25268.3
24126.7
23369.4
22798.9
18314.8
12353.5
14190.5
18589.8
16738.7
17352.8
18275
14385.7
11142.9
6564.08
251.443
-116.024
-104.573
-106.122
-106.945
-107.48
-107.732
-107.799
-107.791
-107.812
-107.94
-108.221
-108.667
-109.251
-109.924
-110.631
-111.325
-111.974
-112.56
-113.072
-113.507
-113.871
-114.172
-114.432
-114.671
-114.917
-115.201
-115.551
-115.992
-116.545
-117.226
-118.043
-118.994
-120.062
-121.212
-122.391
-123.522
-124.517
-125.279
-125.732
-125.817
-125.491
-124.725
-123.468
20780.7
22700.9
20557.7
19688.6
19348.2
21071.6
19096.6
11229
11950.9
15598.2
15260.8
16887.4
13779.5
12028.2
8484.13
3425.31
-72.1505
-111.565
-115.941
-116.337
-116.61
-116.663
-116.548
-116.349
-116.148
-116.019
-116.021
-116.185
-116.518
-116.992
-117.564
-118.184
-118.809
-119.409
-119.962
-120.454
-120.882
-121.247
-121.559
-121.834
-122.09
-122.352
-122.647
-122.998
-123.43
-123.96
-124.605
-125.37
-126.251
-127.229
-128.278
-129.35
-130.377
-131.283
-131.99
-132.429
-132.539
-132.273
-131.595
-130.449
16435.9
18534
16182.5
15312.3
11547.3
8792.6
11323.8
11732.6
10337.5
11813.4
12393.2
13527.4
12480.5
9681.76
6114.02
1189.62
-105.641
-127.457
-126.066
-126.041
-125.865
-125.557
-125.175
-124.787
-124.452
-124.219
-124.129
-124.205
-124.446
-124.82
-125.294
-125.826
-126.378
-126.924
-127.441
-127.914
-128.334
-128.703
-129.027
-129.319
-129.594
-129.873
-130.18
-130.534
-130.957
-131.465
-132.073
-132.786
-133.597
-134.492
-135.446
-136.42
-137.355
-138.186
-138.847
-139.277
-139.416
-139.215
-138.631
-137.606
11824
13268
13019.9
10373.8
8092.55
8054.19
8082.1
8956.89
9104.64
9637.77
10485.9
12092.4
9770.49
7489.22
3931.05
42.8595
-150.749
-135.374
-135.677
-135.275
-134.797
-134.246
-133.691
-133.184
-132.761
-132.456
-132.304
-132.316
-132.475
-132.758
-133.139
-133.584
-134.062
-134.549
-135.024
-135.471
-135.881
-136.252
-136.586
-136.895
-137.188
-137.485
-137.805
-138.162
-138.577
-139.064
-139.636
-140.299
-141.045
-141.862
-142.73
-143.616
-144.467
-145.232
-145.854
-146.279
-146.448
-146.311
-145.825
-144.927
8702.62
8924.2
8707.68
8355.58
8035.72
7952.14
7994.53
7968.94
8241.22
8846.22
10126.1
8185.23
7790.38
5471.68
1925.99
-103.969
-141.066
-145.227
-144.738
-144.167
-143.493
-142.802
-142.152
-141.578
-141.101
-140.751
-140.557
-140.51
-140.601
-140.809
-141.109
-141.473
-141.877
-142.302
-142.73
-143.148
-143.542
-143.909
-144.249
-144.57
-144.88
-145.193
-145.525
-145.886
-146.295
-146.762
-147.302
-147.918
-148.603
-149.349
-150.139
-150.943
-151.719
-152.424
-153.01
-153.428
-153.626
-153.554
-153.166
-152.399
7745.11
7906.49
7951.1
7769.2
7752.25
7827.13
7920.72
7961.05
8117.16
8428.78
8207.25
6970.45
5807.3
3660.75
484.749
-137.364
-156.157
-154.104
-153.5
-152.8
-152.034
-151.287
-150.6
-149.997
-149.488
-149.116
-148.888
-148.798
-148.833
-148.975
-149.204
-149.501
-149.844
-150.214
-150.594
-150.972
-151.339
-151.693
-152.032
-152.358
-152.68
-153.006
-153.348
-153.713
-154.116
-154.566
-155.076
-155.649
-156.28
-156.961
-157.679
-158.409
-159.116
-159.762
-160.312
-160.72
-160.943
-160.933
-160.645
-160.016
7709.43
7741.77
7780.04
7716.17
7723.99
7771.85
7831.23
7869.13
7965.67
8080.48
7458.22
5047.74
4190.37
2081.23
-208.157
-178.523
-162.239
-162.589
-161.985
-161.26
-160.485
-159.745
-159.066
-158.454
-157.942
-157.561
-157.311
-157.185
-157.174
-157.262
-157.433
-157.671
-157.956
-158.276
-158.613
-158.957
-159.299
-159.633
-159.956
-160.276
-160.599
-160.932
-161.28
-161.648
-162.046
-162.481
-162.965
-163.499
-164.08
-164.702
-165.353
-166.014
-166.655
-167.246
-167.755
-168.148
-168.388
-168.435
-168.249
-167.775
7690.59
7702.7
7740.83
7703.48
7711.58
7734.13
7767.41
7800.49
7843.16
8053.67
4604.58
4028.57
2981.28
778.963
-129.824
-167.384
-171.342
-170.911
-170.324
-169.626
-168.905
-168.214
-167.568
-166.966
-166.47
-166.09
-165.828
-165.675
-165.628
-165.67
-165.793
-165.98
-166.215
-166.489
-166.784
-167.095
-167.411
-167.725
-168.035
-168.344
-168.66
-168.987
-169.331
-169.696
-170.088
-170.51
-170.97
-171.469
-172.005
-172.573
-173.16
-173.756
-174.335
-174.87
-175.337
-175.708
-175.955
-176.049
-175.964
-175.671
7662.55
7663.52
7626.77
7687.91
7683.64
7697.39
7720.35
7756.62
7790.08
7515.03
3572.34
3307.5
2069.57
-78.2997
-168.31
-180.207
-179.657
-179.142
-178.597
-177.975
-177.343
-176.724
-176.112
-175.551
-175.081
-174.711
-174.442
-174.271
-174.195
-174.202
-174.284
-174.427
-174.619
-174.85
-175.107
-175.385
-175.674
-175.967
-176.26
-176.558
-176.865
-177.184
-177.518
-177.87
-178.249
-178.656
-179.093
-179.559
-180.055
-180.572
-181.102
-181.636
-182.155
-182.636
-183.059
-183.401
-183.642
-183.765
-183.768
-183.694
7618.12
7645.56
7554.39
7648.08
7647.85
7660.01
7675.54
7702.01
7810.51
5686.79
3283.33
2809.08
1237.02
-401.443
-197.55
-187.348
-187.762
-187.376
-186.891
-186.37
-185.838
-185.295
-184.73
-184.219
-183.781
-183.426
-183.156
-182.975
-182.878
-182.857
-182.904
-183.01
-183.164
-183.355
-183.578
-183.825
-184.087
-184.358
-184.634
-184.918
-185.214
-185.522
-185.844
-186.181
-186.542
-186.928
-187.339
-187.774
-188.231
-188.703
-189.18
-189.656
-190.119
-190.548
-190.926
-191.232
-191.452
-191.577
-191.618
-191.669
7563.7
7618.48
7543.07
7537.83
7597.11
7621.79
7643.33
7663.94
7496.69
3598.54
3213.2
2327.28
401.423
-140.808
-195.614
-196.458
-196.12
-195.7
-195.282
-194.862
-194.427
-193.936
-193.437
-192.979
-192.578
-192.242
-191.978
-191.792
-191.68
-191.636
-191.655
-191.728
-191.848
-192.005
-192.196
-192.413
-192.65
-192.899
-193.158
-193.427
-193.71
-194.005
-194.312
-194.634
-194.974
-195.336
-195.719
-196.122
-196.541
-196.969
-197.399
-197.824
-198.234
-198.613
-198.945
-199.211
-199.399
-199.498
-199.509
-199.431
7473.65
7519.46
7477.07
7496.69
7544.74
7582.16
7608.15
7627.69
6653.93
3451.3
3070.86
1746.74
-217.127
-192.863
-206.061
-205.19
-204.566
-204.161
-203.818
-203.488
-203.126
-202.691
-202.256
-201.847
-201.48
-201.166
-200.913
-200.726
-200.601
-200.539
-200.534
-200.581
-200.672
-200.8
-200.961
-201.151
-201.364
-201.593
-201.833
-202.086
-202.354
-202.634
-202.926
-203.229
-203.55
-203.887
-204.242
-204.612
-204.994
-205.381
-205.767
-206.146
-206.508
-206.839
-207.126
-207.351
-207.5
-207.562
-207.524
-207.358
7436.37
7429.25
7440.54
7466.53
7503.5
7543.28
7562.57
7663.49
4091.28
3603.86
2759.13
1016.09
-381.349
-226.78
-213.591
-213.706
-213.172
-212.802
-212.531
-212.272
-211.942
-211.571
-211.194
-210.831
-210.497
-210.206
-209.965
-209.779
-209.646
-209.57
-209.547
-209.573
-209.64
-209.742
-209.878
-210.044
-210.235
-210.442
-210.663
-210.899
-211.15
-211.413
-211.687
-211.973
-212.273
-212.588
-212.915
-213.254
-213.601
-213.949
-214.294
-214.63
-214.949
-215.238
-215.482
-215.668
-215.783
-215.811
-215.74
-215.558
7403.1
7401.81
7418.23
7437.7
7466.8
7503.54
7530.41
6754.49
3888.58
3535.47
2233.4
188.573
-157.496
-218.442
-222.955
-222.394
-221.939
-221.635
-221.43
-221.213
-220.916
-220.594
-220.262
-219.938
-219.636
-219.367
-219.138
-218.955
-218.818
-218.733
-218.695
-218.704
-218.752
-218.833
-218.949
-219.092
-219.26
-219.446
-219.646
-219.865
-220.097
-220.342
-220.598
-220.866
-221.147
-221.439
-221.741
-222.051
-222.366
-222.68
-222.987
-223.284
-223.564
-223.815
-224.023
-224.178
-224.27
-224.287
-224.225
-224.108
7396.29
7393.2
7400.99
7412.09
7431.68
7461.44
7524.78
4498.12
4093.15
3177.15
1501.4
-310.943
-222.494
-233.169
-231.9
-231.286
-230.882
-230.665
-230.516
-230.302
-230.046
-229.764
-229.47
-229.178
-228.904
-228.654
-228.438
-228.26
-228.125
-228.033
-227.985
-227.981
-228.012
-228.077
-228.172
-228.295
-228.442
-228.606
-228.785
-228.985
-229.2
-229.427
-229.665
-229.914
-230.175
-230.446
-230.724
-231.008
-231.294
-231.578
-231.853
-232.116
-232.36
-232.578
-232.759
-232.895
-232.978
-233.006
-232.989
-232.944
7383.27
7385.25
7388.52
7394.14
7400.45
7456.37
6269.59
4565.92
3936.95
2568.97
652.618
-180.691
-249.998
-241.814
-240.974
-240.385
-240.05
-239.907
-239.781
-239.576
-239.344
-239.088
-238.822
-238.557
-238.307
-238.076
-237.873
-237.703
-237.571
-237.475
-237.42
-237.405
-237.422
-237.471
-237.549
-237.652
-237.779
-237.922
-238.084
-238.265
-238.462
-238.672
-238.892
-239.123
-239.363
-239.613
-239.869
-240.129
-240.389
-240.646
-240.894
-241.129
-241.344
-241.535
-241.695
-241.818
-241.899
-241.938
-241.937
-241.905
7366.62
7373.84
7377.14
7379.89
7360.68
7137.86
5076.57
4534.44
3405.61
1777.71
-116.166
-212.504
-248.825
-251.377
-250.323
-249.756
-249.485
-249.372
-249.217
-249.025
-248.808
-248.571
-248.326
-248.085
-247.854
-247.64
-247.451
-247.291
-247.162
-247.064
-247.003
-246.977
-246.983
-247.017
-247.079
-247.165
-247.273
-247.4
-247.544
-247.707
-247.887
-248.08
-248.283
-248.496
-248.717
-248.945
-249.18
-249.417
-249.655
-249.888
-250.112
-250.323
-250.514
-250.683
-250.828
-250.942
-251.019
-251.059
-251.066
-251.047
7346.87
7359.61
7360.62
7368.45
7356.81
5657.85
5006.26
4028.93
2647.97
862.139
-318.378
-271.022
-261.453
-260.921
-260.019
-259.435
-259.182
-259.035
-258.849
-258.652
-258.439
-258.215
-257.988
-257.764
-257.551
-257.354
-257.176
-257.025
-256.898
-256.801
-256.735
-256.7
-256.695
-256.717
-256.766
-256.836
-256.929
-257.039
-257.167
-257.313
-257.476
-257.653
-257.839
-258.033
-258.237
-258.445
-258.659
-258.876
-259.094
-259.305
-259.507
-259.695
-259.866
-260.018
-260.15
-260.256
-260.329
-260.37
-260.385
-260.377
7318.14
7338.73
7348.16
7333.07
6121.56
5407.39
4461.7
3289.22
1775.25
-30.1352
-169.112
-269.626
-271.487
-270.47
-269.763
-269.32
-269.087
-268.873
-268.664
-268.456
-268.242
-268.027
-267.813
-267.605
-267.406
-267.222
-267.056
-266.912
-266.79
-266.692
-266.621
-266.58
-266.565
-266.577
-266.614
-266.672
-266.753
-266.847
-266.959
-267.089
-267.235
-267.395
-267.564
-267.742
-267.927
-268.118
-268.313
-268.513
-268.712
-268.903
-269.084
-269.252
-269.406
-269.544
-269.665
-269.762
-269.831
-269.874
-269.894
-269.893
7276.37
7315.69
7329.48
6216.61
5647.88
4768.64
3735.34
2424.17
769.122
-255.267
-288.795
-281.383
-280.927
-280.154
-279.654
-279.369
-279.134
-278.885
-278.649
-278.428
-278.215
-278.005
-277.803
-277.607
-277.422
-277.249
-277.092
-276.955
-276.836
-276.738
-276.665
-276.618
-276.596
-276.6
-276.626
-276.675
-276.743
-276.823
-276.921
-277.035
-277.165
-277.309
-277.461
-277.622
-277.79
-277.965
-278.144
-278.327
-278.509
-278.682
-278.845
-278.994
-279.133
-279.26
-279.37
-279.459
-279.525
-279.569
-279.591
-279.593
5184.5
6915.3
6502.13
5900.94
5041.34
4162.96
3046.83
1553.4
-143.407
-200.058
-289.568
-291.547
-290.715
-290.132
-289.799
-289.579
-289.316
-289.048
-288.799
-288.572
-288.358
-288.156
-287.963
-287.777
-287.601
-287.438
-287.29
-287.158
-287.042
-286.945
-286.871
-286.82
-286.792
-286.787
-286.805
-286.845
-286.901
-286.971
-287.056
-287.155
-287.27
-287.398
-287.534
-287.679
-287.83
-287.989
-288.154
-288.321
-288.486
-288.643
-288.79
-288.925
-289.051
-289.167
-289.267
-289.348
-289.41
-289.453
-289.476
-289.479
123431
128513
128478
128421
128337
128222
128068
127865
127599
127252
126796
126195
125397
124325
122866
120834
117909
113472
106086
92423.8
113257
118325
118286
118222
118129
118002
117833
117611
117322
116944
116450
115799
114933
113767
112170
109926
106656
101614
93275.4
78393.7
103111
108163
108121
108052
107952
107816
107635
107400
107094
106697
106180
105502
104606
103408
101781
99529.1
96336.2
91671.4
84662.2
73828.2
92995.2
98030.7
97986.1
97913.2
97808.3
97665.7
97477.7
97233.4
96918.3
96512.2
95987.8
95307
94416.9
93242.9
91678.8
89571.8
86699.5
82734.1
77202.8
69526.1
82910.7
87929.6
87883.4
87808.1
87699.9
87553.6
87361.6
87113.7
86796.2
86390.6
85872
85206.8
84349.6
83239
81792.2
79898.4
77410.7
74136.8
69842.3
64342.6
72858.4
77860.8
77813.8
77737.3
77627.8
77480.2
77287.5
77040.2
76726
76328.2
75825.2
75188.5
74380.7
73353.4
72044.8
70377.6
68258.1
65577.4
62224.3
58131.3
62838.9
67824.9
67777.8
67701.3
67592.1
67445.4
67254.7
67011.6
66704.9
66320.3
65839
65237.7
64486.3
63547.8
62376.6
60919.8
59118
56909.5
54240
51083.7
52851.8
57821.9
57775.5
57700.2
57592.8
57448.8
57262.2
57025.7
56729.5
56361.1
55904.7
55341.2
54646.9
53793.1
52746.7
51471.2
49928.8
48084.2
45910
43397.1
42896.5
47851.4
47806.5
47733.6
47629.2
47489.3
47308.4
47080.2
46796.2
46445.5
46015
45488.8
44847.9
44070.1
43130.6
42003.9
40666.4
39098.6
37287.1
35227.6
32971.3
37912.6
37870.3
37800.9
37700.7
37565.8
37391.7
37172.7
36901.6
36569
36163.8
35672.9
35080.5
34368.2
33516.3
32506.5
31326.1
29967.6
28426.3
26697.2
23072.9
28003.9
27966.3
27901.8
27806.4
27677.2
27510.4
27301
27042.6
26727.5
26346.6
25888.7
25340.3
24684.2
23901.6
22978.2
21912.1
20714.5
19387.1
17917.9
13192.1
18123.9
18095.6
18036.4
17945.6
17822.5
17663.4
17463.5
17217.4
16919.1
16561.7
16136.7
15632.2
15029.6
14303.3
13443.5
12467.4
11403.7
10261.7
9019.01
3289.75
8274
8258.67
8204.53
8119.03
8002.59
7851.83
7660.85
7424.7
7139.83
6801.62
6404.41
5944.55
5396.47
4691.3
3846.59
2968.81
2174.52
1507.45
985.924
-429.935
242.163
239.106
212.13
169.141
113.343
48.8196
-22.4039
-97.7276
-175.588
-254.402
-331.805
-406.845
-427.957
-427.533
-427.78
-427.534
-426.133
-421.826
-422.334
-439.239
-434.036
-434.05
-434.044
-434.029
-434.018
-434.014
-434.019
-434.035
-434.067
-434.13
-434.232
-434.337
-434.756
-435.065
-435.153
-435.086
-434.868
-434.541
-434.308
-448.901
-443.896
-443.901
-443.905
-443.91
-443.92
-443.935
-443.955
-443.98
-444.008
-444.04
-444.07
-444.096
-444.141
-444.212
-444.271
-444.31
-444.332
-444.345
-444.373
-458.684
-453.746
-453.742
-453.744
-453.75
-453.76
-453.774
-453.791
-453.811
-453.833
-453.855
-453.875
-453.89
-453.909
-453.941
-453.984
-454.031
-454.078
-454.121
-454.166
-468.495
-463.576
-463.573
-463.574
-463.578
-463.586
-463.598
-463.612
-463.628
-463.646
-463.665
-463.684
-463.701
-463.722
-463.749
-463.783
-463.822
-463.864
-463.906
-463.951
-478.311
-473.399
-473.397
-473.398
-473.401
-473.408
-473.417
-473.429
-473.443
-473.459
-473.476
-473.494
-473.512
-473.533
-473.558
-473.587
-473.62
-473.656
-473.694
-473.735
-488.129
-483.218
-483.216
-483.217
-483.22
-483.226
-483.234
-483.244
-483.256
-483.27
-483.286
-483.303
-483.321
-483.341
-483.363
-483.388
-483.416
-483.447
-483.481
-483.517
-497.944
-493.034
-493.032
-493.033
-493.037
-493.042
-493.049
-493.058
-493.069
-493.081
-493.095
-493.11
-493.126
-493.144
-493.164
-493.186
-493.21
-493.237
-493.266
-493.298
-507.753
-502.845
-502.845
-502.847
-502.851
-502.856
-502.863
-502.871
-502.88
-502.89
-502.902
-502.915
-502.929
-502.944
-502.961
-502.981
-503.002
-503.025
-503.051
-503.079
-517.547
-512.651
-512.655
-512.659
-512.664
-512.67
-512.676
-512.682
-512.69
-512.698
-512.707
-512.718
-512.729
-512.742
-512.757
-512.773
-512.792
-512.812
-512.834
-512.858
-527.32
-522.453
-522.465
-522.472
-522.477
-522.482
-522.487
-522.492
-522.498
-522.504
-522.511
-522.519
-522.529
-522.54
-522.552
-522.565
-522.581
-522.598
-522.616
-522.637
40043.3
39328.8
38414.9
38710
42145.7
47877.4
54828.4
61753.5
67528.1
71330.7
72631.5
71143.2
66510.3
57771.1
41809.1
48944.6
33367.3
28656.6
28558.4
31470
36599.9
43014
49480
54884
58410.3
59554.9
58050.1
53650.3
45957.5
34702.6
57949.5
39073
28185
24290.5
25166.7
29144.4
34623.6
40228.6
44839.7
47720.5
48485.8
46992.6
43216
37244.4
29509.6
59864
47653
37485
31140.9
28723.5
29400.4
32027.8
35173.6
37790.3
39237.7
39187.3
37528.7
34295.7
29665.9
24043.1
57566.5
49543.7
42143.1
36458.4
32918.1
31370.1
31295
31873.9
32381.1
32319.8
31385.8
29440.2
26482.8
22650.3
18231.1
53213.4
47447.6
41863.1
37072.9
33405.2
30894.3
29313.1
28267
27330.2
26153.9
24498.5
22238.4
19358.1
15944.4
12172.2
47377.3
43021.5
38640.2
34586.8
31087
28227.3
25913.4
23959.7
22129.4
20203.7
18020.2
15480.5
12545.6
9245.58
5730.68
40490.4
37066.5
33524.8
30064.9
26849.3
23939.1
21316.9
18900.6
16567.5
14181.4
11614.6
8780.1
5681.79
2500.45
388.067
32867.8
30081
27140.5
24164.3
21246.3
18443.3
15765.5
13169.2
10559
7828.7
4959.43
2130.36
242.21
-402.422
-371.154
24725.7
22387.6
19897.4
17322.3
14709.3
12088.8
9442.19
6724.76
3946.97
1492.65
-95.7433
-395.579
-384.598
-388.625
-388.049
16252.6
14272.5
12135.5
9843.99
7427.66
4894.31
2459.58
781.869
-403.475
-395.138
-393.257
-397.319
-397.175
-397.152
-397.265
7559.62
5746.87
3846.08
2062.09
763
-344.682
-421.372
-399.532
-405.313
-407.21
-406.395
-406.502
-406.647
-406.777
-406.889
323.825
-300.885
-430.418
-415.462
-411.806
-414.838
-417.14
-415.955
-415.844
-416.007
-416.102
-416.216
-416.332
-416.449
-416.554
-423.051
-424.505
-426.22
-425.914
-425.17
-425.27
-425.44
-425.535
-425.627
-425.729
-425.83
-425.931
-426.029
-426.124
-426.218
-434.412
-434.67
-434.814
-434.931
-434.984
-435.082
-435.178
-435.275
-435.368
-435.457
-435.544
-435.633
-435.721
-435.806
-435.888
-444.43
-444.507
-444.581
-444.663
-444.745
-444.834
-444.921
-445.008
-445.094
-445.177
-445.257
-445.336
-445.415
-445.491
-445.565
-454.221
-454.286
-454.354
-454.427
-454.502
-454.582
-454.662
-454.741
-454.819
-454.895
-454.968
-455.04
-455.111
-455.18
-455.245
-464.001