/*--------------------------------*- C++ -*----------------------------------*\
| =========                 |                                                 |
| \\      /  F ield         | OpenFOAM: The Open Source CFD Toolbox           |
|  \\    /   O peration     | Version:  v1912                                 |
|   \\  /    A nd           | Website:  www.openfoam.com                      |
|    \\/     M anipulation  |                                                 |
\*---------------------------------------------------------------------------*/
FoamFile
{
    version     2.0;
    format      ascii;
    class       volScalarField;
    location    "38";
    object      p_rgh;
}
// * * * * * * * * * * * * * * * * * * * * * * * * * * * * * * * * * * * * * //

dimensions      [1 -1 -2 0 0 0 0];


internalField   nonuniform List<scalar> 
20320
(
434711
434786
434813
434864
434936
435024
435126
435240
435364
435494
435628
435761
435891
436016
436131
436235
436324
436398
436454
436487
434598
434697
434731
434785
434857
434946
435049
435165
435289
435419
435553
435687
435817
435941
436056
436159
436247
436317
436367
436397
434374
434513
434548
434603
434675
434764
434868
434983
435107
435237
435371
435504
435633
435756
435870
435971
436057
436125
436175
436206
434065
434244
434279
434333
434405
434493
434596
434710
434833
434963
435095
435226
435354
435475
435586
435686
435770
435838
435889
435924
433684
433898
433932
433985
434056
434143
434244
434357
434478
434606
434736
434865
434991
435109
435218
435315
435398
435466
435517
435555
433241
433484
433517
433569
433638
433723
433821
433931
434050
434175
434302
434429
434551
434667
434773
434867
434947
435013
435065
435105
432745
433013
433045
433094
433161
433243
433338
433444
433558
433679
433802
433924
434043
434154
434256
434346
434423
434486
434537
434579
432206
432493
432524
432571
432634
432711
432801
432902
433011
433125
433241
433357
433470
433575
433671
433756
433828
433887
433935
433979
431634
431936
431964
432008
432066
432138
432221
432314
432414
432520
432627
432734
432837
432933
433020
433096
433161
433214
433259
433302
431038
431349
431374
431414
431466
431530
431604
431687
431776
431869
431964
432057
432147
432229
432303
432367
432420
432464
432502
432542
430426
430743
430764
430798
430842
430897
430960
431030
431104
431180
431257
431331
431401
431463
431517
431562
431597
431627
431656
431690
429808
430125
430142
430169
430204
430247
430296
430349
430403
430458
430511
430559
430600
430633
430658
430673
430682
430689
430702
430723
429192
429504
429517
429535
429560
429589
429620
429652
429683
429710
429730
429743
429745
429736
429717
429689
429656
429627
429613
429613
428585
428889
428896
428906
428918
428930
428941
428949
428950
428942
428922
428888
428837
428770
428687
428592
428495
428408
428350
428312
427994
428287
428288
428288
428286
428281
428269
428248
428215
428165
428095
428001
427880
427732
427557
427364
427164
426981
426845
426738
427428
427705
427699
427689
427673
427648
427611
427559
427487
427389
427259
427092
426883
426626
426323
425981
425619
425274
425001
424768
426889
427149
427137
427116
427084
427039
426977
426892
426777
426627
426430
426178
425860
425465
424988
424431
423813
423186
422650
422169
426383
426624
426605
426574
426528
426463
426374
426256
426099
425893
425626
425280
424837
424277
423577
422720
421709
420593
419523
418497
425914
426134
426109
426068
426007
425924
425811
425660
425463
425203
424865
424424
423851
423107
422145
420907
419334
417398
415216
412803
425482
425680
425650
425600
425527
425426
425291
425113
424878
424570
424167
423638
422941
422018
420786
419125
416857
413719
409357
403141
118156
118029
117258
116656
116215
116034
116098
116601
117857
120655
126206
115310
106792
103027
100748
100930
102004
104556
101296
218265
339878
258988
191681
140642
103463
77556.8
60245.6
49018
41895.4
37451.3
34722.3
33089.7
32132.6
31641.7
31428.4
31345.8
31709.1
30749.2
30694.4
30789.1
30748.3
31735.3
32251.3
30038.4
29913
29878.1
29852.2
30062
29854.9
30253.8
30789.9
30621.1
30553.2
30496.5
27701.4
27237.6
30686.9
35530.6
36999
37560.5
117844
117560
116446
115906
115512
116148
115997
116332
117488
119425
123457
117093
103834
97618
96808.2
96764.7
96927.5
97638.9
99166.1
159554
275768
234673
181887
135889
100816
75946.1
59203.9
48327.2
41430.1
37135.4
34512.8
32967.5
32070.8
31603.1
31408.7
31317
31315.3
31396.8
31590.9
31754.7
32013.2
31874
31712.4
31741.7
31972.3
32054.2
32186.2
32549.6
32663.2
32745
33325.5
34387.6
33933.5
34223.2
27644.7
27986.6
28399.8
35908.5
37204.6
37748.5
117436
117878
117478
116975
116522
116128
115716
116309
117125
119039
120492
118818
108753
97218.8
96840.1
96780
96825.8
97217.7
97931.4
169679
227406
210112
169503
128821
96224.8
72828.1
57102.1
46951
40556.6
36594.5
34183.8
32756
31963.6
31565.4
31402.8
31338.7
31319
31430.7
31617.8
31794.9
32000.3
31947.7
31744.2
31767
31939.6
32044.3
32184.9
32440.1
32556.5
32780.2
33344.6
34130.5
34486.4
36171.8
27341.8
28226.2
37077
36878.7
37553.9
37903.4
114681
117024
117129
116689
116119
115612
115996
116536
117335
116074
116637
118284
115865
112592
97194.3
96776.8
96736.9
96967.1
110146
152051
187026
181916
151792
117031
87903.5
66973.3
53107.3
44324.2
38882.6
35548.2
33539.9
32367.5
31730.6
31429.2
31331.6
31334.4
31381.1
31496
31668.3
31839.6
31990.2
31988.1
31877.1
31859.1
31946.4
32032.2
32150.7
32330.8
32488.6
32770.6
33324.8
34145.7
34943.8
37054.9
40380.8
40090.7
38298.8
37762.5
38013.5
38157.7
118542
111354
110886
110357
112948
115372
111909
112218
115352
117978
118394
115367
114338
116294
101869
96741.1
96662.3
96479.9
121542
135100
154502
152286
129230
100012
75245.4
57968.5
46987
40311.2
36323.1
33936.5
32532.3
31738.5
31335.9
31177.9
31177.8
31268.2
31392.5
31534.5
31702.8
31867.6
32001.5
32031.7
31966.2
31930.2
31963.8
32019.1
32109.4
32242.6
32391.6
32707.2
33262.7
34205.8
35274.2
37162.6
39325.8
39574.2
38784.1
38415.6
38479.3
38481.6
118949
118797
118726
118008
117181
116508
116328
116570
116874
117275
118009
118292
116745
118663
121771
98733.4
96650.3
111163
117798
121004
128102
123265
103093
77973.1
57901.2
45161
38143.9
34499.1
32642.6
31620.6
31081.9
30810.2
30759.3
30799.4
30915.8
31117.1
31354.7
31543.7
31723.3
31891.1
32028.6
32091.8
32045
31991.6
31986.9
32006.6
32065.8
32154.1
32211.9
32491.2
32998.5
34314.9
35406.3
36960.7
38701.2
39269.5
39061.1
38927.3
38948.1
38860.4
119635
118782
118467
117806
116941
116190
115878
115942
116029
116638
117306
118204
119237
120007
120890
95766.1
95721.1
122191
112641
108631
106078
95912.2
74361.9
49920.8
28645.6
13789.6
5026.19
321.569
38.0425
28.2815
21.4377
16.7081
13.0759
38.2301
164.67
544.39
1483.63
3172.78
5160.45
6409.13
6352.27
6064.07
4290.91
2218.26
2174
2233.98
2415.98
2926.23
4514.29
4402.14
2536.96
19705.6
35343.5
36664.1
38266.8
39083.2
39261.3
39388.2
39451.7
39294.1
120594
118971
117783
117613
116702
115875
115520
115380
115479
113782
116562
117680
119138
118841
90031.2
90204.3
102809
117854
107063
97559.6
87618.7
70925.4
35031.7
146.29
105.336
84.6948
67.7447
54.1417
40.4487
30.758
23.7258
18.4214
14.0501
9.90278
7.87238
7.53913
7.17162
6.67679
6.20029
5.74895
5.34024
4.90476
4.64159
4.52678
4.175
3.82293
3.31027
2.59755
1.87819
-1.12582
-2.49973
61.1801
352.226
1760.76
29320.2
36688.1
34188.4
33842.6
34388.4
29255.1
121452
106558
105484
104683
103353
102122
113198
114833
113896
114380
115854
114600
119184
122400
119007
93185.5
124297
114984
101447
87863.7
72454
35905.3
163.084
108.075
92.1341
72.575
57.1929
45.9295
36.1864
28.2078
22.1235
17.4556
13.7191
10.4583
8.11921
7.07842
6.68772
6.32714
5.88153
5.39493
4.97286
4.63075
4.46045
4.37353
4.0411
3.61848
3.06959
2.36859
1.31824
-0.681576
-3.53337
-6.15292
-9.78494
-22.1394
-21.6849
-20.9205
-18.4001
-15.0765
-14.0014
-12.3242
122141
120985
120625
119626
118447
116189
109459
109556
114122
110269
114884
114039
118070
113502
88277.7
90823.6
128569
111914
96213.6
79644.1
58635.9
110.025
94.6409
89.0352
74.1213
60.1055
48.4796
39.384
31.8226
25.4643
20.3826
16.3686
13.1405
10.3911
8.19219
6.86045
6.22137
5.84088
5.47779
5.09305
4.73138
4.40952
4.17785
3.98265
3.6457
3.16824
2.5334
1.70188
0.508568
-1.39986
-3.8299
-6.37518
-10.1596
-15.2438
-14.8438
-14.9507
-14.9195
-14.4288
-13.878
-13.063
124032
106551
120534
120137
118571
116976
115449
113258
110611
104378
110362
115580
115527
68393.3
69997.3
124310
125746
108691
91501
72288.2
6347.47
80.3665
77.9694
68.4489
58.4633
48.7182
40.2305
33.2327
27.3954
22.4289
18.3146
14.9731
12.2491
9.9471
8.01158
6.63239
5.8416
5.39824
5.06691
4.74993
4.43917
4.14162
3.8824
3.62604
3.25951
2.73722
2.04248
1.1242
-0.147464
-1.97017
-4.27939
-6.87638
-10.1913
-14.0415
-15.0296
-15.0713
-14.7611
-14.0938
-13.324
-12.4097
115758
97135.1
122404
119778
119090
117029
114728
113703
113005
103147
113832
115134
116708
74038.1
66380.3
134516
121900
105309
87222.2
53166.6
71.2269
63.5697
58.9501
52.4976
45.6671
38.9341
32.9
27.7145
23.2751
19.4262
16.151
13.4225
11.1609
9.24214
7.59181
6.31096
5.47841
4.98739
4.66122
4.38428
4.11469
3.83932
3.56806
3.27319
2.87226
2.31579
1.57994
0.611005
-0.691751
-2.4442
-4.62733
-7.13253
-10.0523
-12.9988
-14.3547
-14.6211
-14.3261
-13.651
-12.754
-11.6768
109467
125331
119022
121278
117962
108871
103381
103060
112248
112459
113254
114376
116544
81290.4
60521.6
127059
117469
101919
82879.7
4694.84
51.8411
49.577
44.8755
40.2581
35.5144
30.9208
26.7116
22.9511
19.614
16.6486
14.0607
11.8527
9.99122
8.39916
7.01654
5.88948
5.09095
4.5874
4.26095
4.00545
3.76207
3.50549
3.23055
2.90889
2.4801
1.90033
1.13674
0.140618
-1.16025
-2.83954
-4.88693
-7.22842
-9.7993
-12.2271
-13.6328
-14.0419
-13.8089
-13.1426
-12.1655
-10.9137
89260.7
126339
101508
123390
112036
117892
112117
100777
111652
111123
111783
112909
96296.1
40940.9
116238
122652
113524
98878
71276.2
46.886
42.3344
38.2473
34.4083
30.9629
27.6739
24.5655
21.6635
18.9736
16.4902
14.211
12.1636
10.375
8.8408
7.51743
6.36337
5.39622
4.67051
4.1821
3.85731
3.61193
3.38543
3.14382
2.8693
2.53198
2.08647
1.49079
0.710319
-0.294728
-1.57213
-3.16797
-5.06563
-7.198
-9.45586
-11.5288
-12.8657
-13.3599
-13.2172
-12.5984
-11.5867
-10.1978
72204.3
118818
127077
125243
123493
120453
117134
111616
110969
95287.5
77737.7
36236.5
24855.1
31760
126936
121371
110761
96265.8
12222.4
39.8144
34.3284
29.7241
26.5897
24.0067
21.7273
19.6362
17.6593
15.7572
13.9173
12.1588
10.5257
9.06189
7.78283
6.67023
5.69791
4.87176
4.22731
3.76807
3.44957
3.2097
2.99407
2.76324
2.49164
2.14776
1.69276
1.08833
0.30105
-0.698116
-1.9408
-3.44907
-5.19816
-7.11761
-9.09865
-10.8887
-12.1177
-12.663
-12.608
-12.0511
-11.04
-9.56995
72633
104552
130214
128142
125621
122394
118636
114810
65064.8
21107
21637.1
22063.1
23474.6
23868.6
124339
119020
109194
94584.5
86.8846
30.8697
26.9878
23.2216
20.7287
18.8239
17.2659
15.8833
14.5601
13.2256
11.8593
10.4896
9.16801
7.94781
6.86036
5.90459
5.06847
4.35416
3.78267
3.35639
3.04772
2.81146
2.60124
2.37668
2.10748
1.7612
1.30223
0.696122
-0.0870599
-1.06817
-2.26704
-3.6898
-5.30197
-7.03105
-8.77338
-10.3321
-11.4522
-12.0081
-12.0123
-11.5098
-10.519
-9.02324
66694
105583
132667
130529
128386
124925
120986
116624
24464
21119.5
21342.5
21814.3
22337.4
79851.6
120317
117441
108741
49038.8
18.0226
25.0867
20.869
18.1498
16.2883
14.9546
13.9384
13.0643
12.2028
11.2718
10.2502
9.16695
8.076
7.03648
6.08937
5.24651
4.50812
3.87595
3.36152
2.96427
2.66508
2.4295
2.21995
1.99629
1.72721
1.38026
0.921367
0.320475
-0.448064
-1.39968
-2.54681
-3.88378
-5.3718
-6.93948
-8.48538
-9.85721
-10.87
-11.4066
-11.4417
-10.9812
-10.0252
-8.54482
64720.3
120677
135543
131519
131496
126538
122265
119287
20469.2
20971.5
24815.9
24756.6
23068.1
113768
120758
117524
109326
7753.93
23.6846
18.71
16.0269
14.1483
12.8844
12.0466
11.4552
10.9546
10.42
9.77609
9.00444
8.13282
7.21452
6.31057
5.46647
4.70494
4.03471
3.45919
2.98476
2.60794
2.31382
2.07523
1.86075
1.63317
1.3618
1.01417
0.558768
-0.0305161
-0.775515
-1.68821
-2.77584
-4.02485
-5.39603
-6.82186
-8.20821
-9.42909
-10.3429
-10.8484
-10.8986
-10.476
-9.5688
-8.13958
115337
134731
138477
126376
135315
133051
128752
123893
22782.6
64617.3
79943.8
18827.8
20108
125648
123229
119334
111498
44.741
14.788
13.8404
12.1021
10.9667
10.2482
9.83402
9.57958
9.35574
9.0551
8.6193
8.03231
7.32116
6.53655
5.73857
4.97485
4.27462
3.65214
3.11448
2.66506
2.29894
2.00394
1.75713
1.5328
1.29724
1.02097
0.672443
0.22309
-0.349357
-1.06429
-1.93129
-2.95279
-4.11128
-5.36938
-6.66614
-7.91645
-9.01434
-9.84534
-10.3209
-10.3849
-10.0065
-9.16265
-7.80825
139382
110730
139861
116643
139283
138712
134229
128267
20416.4
93030.6
16854.6
17468.7
85714.6
130300
127057
122478
58298
-0.110254
11.3409
9.79169
8.96872
8.43424
8.18137
8.11527
8.12259
8.10222
7.97354
7.6924
7.2466
6.66316
5.98955
5.28261
4.58901
3.9399
3.35414
2.84189
2.40648
2.0431
1.74134
1.48204
1.24328
0.996474
0.712356
0.362457
-0.0785612
-0.630871
-1.31176
-2.12866
-3.08019
-4.14774
-5.2981
-6.47698
-7.60847
-8.60275
-9.36514
-9.81858
-9.90293
-9.57737
-8.81099
-7.55403
120624
73310.2
143236
122770
142436
138545
142184
134316
57466.5
94645.8
15383.9
17010.5
129782
135116
131572
126513
11313.8
11.5225
7.14605
6.75015
6.47737
6.42394
6.53933
6.73872
6.93982
7.06819
7.06681
6.90233
6.56896
6.09509
5.52328
4.90316
4.27822
3.67857
3.12584
2.63314
2.20587
1.84035
1.52807
1.25318
0.997102
0.735523
0.4408
0.0889467
-0.342478
-0.872906
-1.51768
-2.28258
-3.16314
-4.14173
-5.19063
-6.26231
-7.28948
-8.19571
-8.90229
-9.34122
-9.45147
-9.18563
-8.50728
-7.36132
144597
81353.8
104442
129162
98862.5
9813.11
49477.9
134448
68999.7
45950.6
12523.5
13657.8
142870
140071
136503
131579
24.7483
2.9322
4.32292
4.34764
4.52447
4.83248
5.21417
5.60168
5.93713
6.17041
6.26045
6.18355
5.94308
5.56861
5.09479
4.56292
4.01069
3.46459
2.94782
2.47523
2.05509
1.68588
1.36178
1.06988
0.794886
0.516169
0.208982
-0.145374
-0.56762
-1.07579
-1.68387
-2.39693
-3.20839
-4.10256
-5.05724
-6.03146
-6.96603
-7.7969
-8.45805
-8.88817
-9.02749
-8.82569
-8.24161
-7.21728
149570
147351
62380.4
144809
11919.1
8192.08
8219.92
46765.5
109776
9775.59
10700.4
85676.7
147593
145311
141753
84874.8
-12.9266
2.44828
2.14475
2.5475
3.02522
3.57655
4.13132
4.63859
5.06122
5.36603
5.51786
5.50593
5.34668
5.06371
4.68282
4.23829
3.7604
3.27264
2.79831
2.35095
1.94108
1.57035
1.23576
0.927505
0.633736
0.337186
0.0172578
-0.34039
-0.755017
-1.24174
-1.81426
-2.47717
-3.22333
-4.03985
-4.90797
-5.79343
-6.64507
-7.40962
-8.03212
-8.45647
-8.62577
-8.48932
-8.00281
-7.10462
73139.3
42849.7
99418.8
39269.6
31263
8097.53
8140.79
8114.33
8386.61
9233.9
10271.5
143269
153178
150860
147314
20553.5
4.32208
0.161184
0.649759
1.22134
1.89461
2.58601
3.23592
3.81025
4.28715
4.63666
4.83109
4.87828
4.78722
4.57881
4.27865
3.9148
3.51077
3.08559
2.65817
2.24047
1.84629
1.47951
1.13901
0.818208
0.508045
0.195033
-0.13683
-0.498423
-0.906974
-1.37405
-1.91349
-2.5295
-3.21531
-3.96114
-4.75056
-5.55522
-6.33138
-7.0355
-7.62192
-8.04001
-8.23801
-8.16621
-7.77809
-7.01121
7950.53
10591.1
25534.5
14890.7
7905.34
7980.22
8073.81
8114.14
8272.31
8582.66
8360.34
160060
158897
156751
153575
15.7261
-3.06672
-1.01445
-0.409585
0.289805
1.05557
1.80329
2.48947
3.09299
3.60223
3.97407
4.20156
4.29197
4.25742
4.1151
3.88548
3.58849
3.24571
2.8755
2.49634
2.11829
1.75116
1.39712
1.05834
0.731514
0.410101
0.0839467
-0.257928
-0.623368
-1.02654
-1.47643
-1.98636
-2.5594
-3.1901
-3.87156
-4.58893
-5.31933
-6.02594
-6.67251
-7.22215
-7.63053
-7.85294
-7.84312
-7.55462
-6.92654
7925.2
11989
9983.46
7877.1
7884.92
7932.78
7992.16
8144.51
8241.06
8241.47
100212
165977
165120
163011
131629
-17.5935
-1.30942
-1.65894
-1.0552
-0.329994
0.444553
1.18444
1.86368
2.47542
2.98785
3.36912
3.61838
3.74426
3.75516
3.66791
3.49668
3.25852
2.97319
2.65385
2.317
1.97235
1.63026
1.29645
0.973358
0.653754
0.330472
-0.00267148
-0.350889
-0.718479
-1.11655
-1.55171
-2.03544
-2.56956
-3.15044
-3.77275
-4.42321
-5.08426
-5.72551
-6.31595
-6.82575
-7.21874
-7.45864
-7.50547
-7.31888
-6.84499
8514.43
8485.83
14305.2
7872.39
7880.49
7903.04
7939.69
7982.95
8130.63
8222.58
167240
172938
171891
169689
37477.1
1.52578
-2.43199
-2.00094
-1.4149
-0.716238
0.00464431
0.695474
1.34174
1.94377
2.43982
2.81915
3.08211
3.23459
3.28159
3.23925
3.11643
2.92978
2.69439
2.42088
2.1252
1.81443
1.4986
1.18437
0.874981
0.565188
0.249891
-0.0771489
-0.421557
-0.786351
-1.17846
-1.6005
-2.06029
-2.55913
-3.09517
-3.66297
-4.25075
-4.84635
-5.42504
-5.96046
-6.42755
-6.79821
-7.04545
-7.13908
-7.05444
-6.76158
8166.55
7911.33
14131.6
7864.94
7860.67
7874.42
7897.41
7933.79
7979.81
11114.6
180606
180341
179103
176955
467.965
-3.17418
-2.62355
-2.10905
-1.56389
-0.941542
-0.309519
0.30889
0.92155
1.48256
1.95237
2.3224
2.59179
2.76224
2.83814
2.83149
2.74934
2.60675
2.41437
2.18365
1.92639
1.64801
1.3594
1.06642
0.772853
0.474914
0.16817
-0.150753
-0.484302
-0.836566
-1.216
-1.62293
-2.05956
-2.5261
-3.02139
-3.53907
-4.06881
-4.6026
-5.12146
-5.60306
-6.02576
-6.36722
-6.60853
-6.7314
-6.73506
-6.66052
9857.1
7830.87
14184.5
7833.38
7833.16
7845.32
7861.37
7993.31
7995.81
145213
188586
188112
186540
169948
-12.2469
-2.04582
-2.45905
-2.07329
-1.58851
-1.06694
-0.534937
0.00727329
0.572171
1.08411
1.52154
1.87665
2.14647
2.32753
2.42474
2.44605
2.39815
2.29287
2.1391
1.94755
1.725
1.47784
1.21607
0.944702
0.668456
0.384226
0.088317
-0.219771
-0.540861
-0.878705
-1.23956
-1.62501
-2.03633
-2.47159
-2.9285
-3.40011
-3.87714
-4.35377
-4.81602
-5.24543
-5.62292
-5.92914
-6.14963
-6.27442
-6.31543
-6.3665
8578.62
7812.2
14332
7731.55
7790.84
7815.53
7837.05
7888.15
7690.41
197319
196933
196047
194122
50129.6
-1.89352
-2.73729
-2.39951
-1.97956
-1.5618
-1.14175
-0.706372
-0.215686
0.282681
0.740679
1.14213
1.4786
1.7418
1.92795
2.04049
2.08452
2.06562
1.99223
1.87257
1.71516
1.52471
1.30724
1.07055
0.820683
0.562662
0.29323
0.010244
-0.284897
-0.592052
-0.913428
-1.25406
-1.61571
-1.99868
-2.40158
-2.82087
-3.24931
-3.67881
-4.10379
-4.51336
-4.89265
-5.2244
-5.49094
-5.67858
-5.77766
-5.78895
-5.71037
9572.24
10895.8
8011.78
7698.98
7748.98
7784.48
7819.19
7846.69
104583
205740
205359
204035
202071
591.025
-3.77239
-2.90217
-2.27824
-1.87323
-1.5295
-1.19974
-0.837604
-0.402817
0.0323867
0.440783
0.808304
1.12244
1.37517
1.56265
1.68694
1.74956
1.75429
1.70718
1.61593
1.48845
1.32754
1.13696
0.923794
0.695242
0.455614
0.201956
-0.0659315
-0.345795
-0.637264
-0.941163
-1.26139
-1.59921
-1.95371
-2.32356
-2.70574
-3.09312
-3.47895
-3.85743
-4.21932
-4.55112
-4.83754
-5.06276
-5.21212
-5.2733
-5.23615
-5.07012
9624.33
7696.98
7651.55
7678.29
7715.71
7754.29
7924.25
7874.51
212650
214615
213770
212027
183592
-15.7687
-2.57983
-2.69552
-2.16083
-1.7914
-1.52018
-1.26126
-0.930664
-0.560099
-0.182806
0.180117
0.514257
0.804539
1.04576
1.23198
1.36453
1.44089
1.46401
1.43795
1.37043
1.26874
1.13278
0.966528
0.776308
0.568901
0.348201
0.11155
-0.139253
-0.401673
-0.675826
-0.961968
-1.26241
-1.57724
-1.90435
-2.24299
-2.58986
-2.93841
-3.28332
-3.61957
-3.93853
-4.22707
-4.47092
-4.6574
-4.77181
-4.80005
-4.72954
-4.54674
7627.48
7621.7
7638.65
7662.84
7686.7
7770.73
7768.14
86250.7
223778
223424
222122
220078
41290
1.44735
-3.06563
-2.50487
-2.04963
-1.74642
-1.54099
-1.32369
-1.02663
-0.705244
-0.373372
-0.0490219
0.253416
0.522248
0.750864
0.9343
1.07072
1.15627
1.19372
1.18445
1.13693
1.05561
0.940444
0.797033
0.629035
0.443207
0.24277
0.0242935
-0.20849
-0.452722
-0.708884
-0.976879
-1.25761
-1.55034
-1.85217
-2.16192
-2.47703
-2.79068
-3.09787
-3.39522
-3.6754
-3.92587
-4.13384
-4.28936
-4.38087
-4.39774
-4.33649
-4.21934
7629.88
7622.55
7636.76
7641.03
7660.63
7849.96
7753.7
232180
233020
232104
230428
228616
6.43262
-4.24265
-2.97405
-2.35993
-1.95528
-1.73839
-1.5894
-1.37543
-1.11958
-0.837606
-0.543292
-0.251555
0.0228456
0.272452
0.488048
0.666397
0.801927
0.893672
0.9415
0.945676
0.914543
0.849878
0.754168
0.631753
0.484859
0.320862
0.140929
-0.0589349
-0.273588
-0.500242
-0.738612
-0.987823
-1.24835
-1.51947
-1.79802
-2.0815
-2.36776
-2.65133
-2.9266
-3.18927
-3.4341
-3.65187
-3.83256
-3.96809
-4.05119
-4.07997
-4.06217
-4.01792
7626.06
7628.21
7626.72
7632.28
7703.8
7722.14
152675
242692
242063
240695
238779
125417
-11.8718
-3.68771
-2.84753
-2.25886
-1.92413
-1.78067
-1.65476
-1.44951
-1.2178
-0.961869
-0.695599
-0.43111
-0.180333
0.0504589
0.253078
0.423189
0.555197
0.651288
0.705886
0.721818
0.704279
0.655394
0.577802
0.474156
0.347552
0.203841
0.0425996
-0.138951
-0.335601
-0.545326
-0.766162
-0.996576
-1.23704
-1.48672
-1.74289
-2.00246
-2.26291
-2.51977
-2.76797
-3.0028
-3.21797
-3.40824
-3.56853
-3.69199
-3.77276
-3.81195
-3.81109
-3.77839
7646.01
7623.88
7624.63
7627.38
7746.67
17442.6
252568
252026
250897
249269
247375
9580.09
-1.33345
-3.88579
-2.83165
-2.26492
-1.99322
-1.88034
-1.72521
-1.53341
-1.31654
-1.07944
-0.834937
-0.593217
-0.362264
-0.148865
0.0404892
0.200848
0.329807
0.427907
0.488038
0.514493
0.50869
0.474404
0.412097
0.326081
0.218048
0.0917909
-0.0523186
-0.216058
-0.3953
-0.588367
-0.791662
-1.00402
-1.22542
-1.45401
-1.68815
-1.92587
-2.16353
-2.39636
-2.62044
-2.83107
-3.02221
-3.19121
-3.33642
-3.45061
-3.52709
-3.5675
-3.57504
-3.55585
7612.53
7616.63
7878.2
7803.02
7613.83
256408
262030
261052
259671
257885
216910
-13.9986
-4.42944
-3.89756
-2.99575
-2.41211
-2.15842
-2.01131
-1.82587
-1.62873
-1.41608
-1.19188
-0.964196
-0.741042
-0.527481
-0.330216
-0.152618
-0.0011159
0.124971
0.22269
0.288538
0.323481
0.328306
0.306135
0.257198
0.187046
0.094107
-0.016057
-0.143306
-0.289957
-0.452612
-0.629241
-0.815207
-1.0101
-1.21324
-1.42198
-1.63552
-1.85316
-2.07057
-2.28172
-2.48313
-2.67186
-2.84297
-2.99466
-3.12669
-3.23254
-3.30524
-3.34699
-3.36193
-3.35417
7593.8
7803.78
7635.45
7599.8
245442
272135
271189
270017
268503
266697
26636.6
-2.89889
-4.75984
-3.74211
-3.0353
-2.59266
-2.35906
-2.14541
-1.93667
-1.72809
-1.51476
-1.29906
-1.08508
-0.87745
-0.678676
-0.494927
-0.328046
-0.184455
-0.0620606
0.0354277
0.10631
0.14773
0.162236
0.149889
0.113262
0.0551588
-0.0251304
-0.119339
-0.231045
-0.361276
-0.507376
-0.667682
-0.836756
-1.0143
-1.19957
-1.39041
-1.58601
-1.78536
-1.98422
-2.17578
-2.35635
-2.52447
-2.67833
-2.81639
-2.93705
-3.03452
-3.1039
-3.14683
-3.16648
-3.16525
7579.38
7594.88
7606.09
257957
282253
281374
280340
279029
277374
235426
-12.1896
-4.77792
-4.32227
-3.54845
-3.04926
-2.76387
-2.52865
-2.27944
-2.0436
-1.82308
-1.60944
-1.40019
-1.19794
-1.00225
-0.816701
-0.644066
-0.487089
-0.35
-0.231086
-0.133148
-0.0594923
-0.0128577
0.00928354
0.00549747
-0.0203788
-0.069379
-0.137372
-0.217892
-0.316219
-0.430143
-0.559729
-0.703689
-0.856192
-1.01683
-1.18485
-1.3593
-1.53908
-1.72186
-1.90339
-2.07724
-2.2394
-2.38933
-2.52812
-2.65457
-2.76479
-2.85371
-2.91949
-2.96335
-2.98556
-2.98758
67697
44642.8
293162
292560
291701
290823
289706
288213
286516
16274.7
-2.90801
-4.88731
-4.05563
-3.47227
-3.1399
-2.91933
-2.65642
-2.38902
-2.13924
-1.91222
-1.69899
-1.49607
-1.30332
-1.11718
-0.941938
-0.778065
-0.630112
-0.498655
-0.382834
-0.28561
-0.211396
-0.160725
-0.132757
-0.127959
-0.145006
-0.185332
-0.241734
-0.311707
-0.396863
-0.495456
-0.610336
-0.738137
-0.874311
-1.01907
-1.17095
-1.32945
-1.49406
-1.66154
-1.82662
-1.98395
-2.13042
-2.26582
-2.39166
-2.50727
-2.60774
-2.6888
-2.75024
-2.79328
-2.81612
-2.81987
425089
425266
425231
425173
425089
424974
424820
424618
424352
424004
423548
422947
422149
421078
419618
417586
414661
410224
402838
389176
424725
424887
424848
424784
424691
424565
424396
424174
423884
423507
423012
422361
421495
420330
418732
416488
413219
408177
399838
384956
424389
424535
424493
424424
424324
424188
424008
423772
423466
423069
422552
421874
420979
419780
418153
415902
412709
408044
401035
390201
424083
424213
424169
424096
423991
423848
423660
423416
423101
422695
422170
421489
420599
419425
417861
415754
412882
408917
403385
395709
423808
423922
423876
423801
423692
423546
423354
423106
422789
422383
421864
421199
420342
419232
417785
415891
413403
410129
405835
400335
423566
423663
423616
423540
423430
423283
423090
422843
422528
422131
421628
420991
420183
419156
417847
416180
414061
411380
408027
403934
423356
423437
423390
423314
423205
423058
422867
422624
422317
421933
421452
420850
420099
419160
417989
416532
414731
412522
409852
406696
423179
423244
423198
423123
423015
422871
422685
422448
422152
421784
421327
420764
420069
419216
418169
416894
415351
413507
411332
408820
423034
423084
423039
422966
422862
422722
422541
422313
422029
421678
421247
420721
420080
419303
418363
417236
415899
414331
412520
410460
422919
422955
422913
422843
422743
422608
422434
422215
421944
421611
421206
420715
420123
419411
418559
417549
416369
415010
413469
411740
422830
422856
422819
422754
422659
422530
422363
422154
421895
421580
421199
420741
420193
419537
418754
417831
416765
415567
414240
412770
422760
422786
422758
422699
422608
422485
422326
422126
421880
421582
421224
420799
420295
419692
418966
418106
417130
416066
414924
413682
422667
422747
422731
422677
422592
422475
422324
422133
421897
421612
421274
420877
420417
419869
419020
413854
397993
368653
324512
250554
-0.747774
116666
116385
111795
104415
94743.7
83516
71054.7
57845.3
44175.8
30327.9
16691.5
2710.65
-3.67459
-3.25026
-3.49737
-3.25132
-1.8506
2.4565
1.94853
-0.24132
0.0562022
0.0421129
0.0489592
0.0632046
0.0748134
0.0784676
0.0731857
0.057284
0.025211
-0.0374616
-0.139107
-0.24475
-0.663535
-0.972968
-1.06027
-0.993654
-0.775057
-0.448381
-0.215961
-0.0934664
0.0067488
0.00110177
-0.00278014
-0.00797632
-0.0174449
-0.0324369
-0.0527008
-0.0774037
-0.105851
-0.137395
-0.167661
-0.193476
-0.238536
-0.309867
-0.368095
-0.407827
-0.429091
-0.442423
-0.47017
-0.066564
-0.0337363
-0.0296806
-0.0316045
-0.0375035
-0.0473028
-0.0610434
-0.0784487
-0.0986769
-0.120478
-0.142349
-0.162136
-0.177781
-0.196276
-0.228656
-0.271113
-0.31875
-0.365875
-0.408954
-0.453138
-0.0672717
-0.0539215
-0.0500861
-0.0512743
-0.0559626
-0.0639779
-0.0751087
-0.0892244
-0.105788
-0.123932
-0.142687
-0.161049
-0.178918
-0.199172
-0.226217
-0.260447
-0.299905
-0.341635
-0.383946
-0.428326
-0.0737878
-0.0667121
-0.0641996
-0.0651468
-0.0689358
-0.0754144
-0.0845421
-0.0962578
-0.110282
-0.126148
-0.14325
-0.161069
-0.179806
-0.200719
-0.225389
-0.254466
-0.287484
-0.323285
-0.361337
-0.402155
-0.0811762
-0.0756199
-0.0735491
-0.0745194
-0.0778347
-0.0834939
-0.0914755
-0.101622
-0.113814
-0.127898
-0.143501
-0.160251
-0.178229
-0.198019
-0.220323
-0.24562
-0.273925
-0.304797
-0.338095
-0.374337
-0.0868381
-0.0811273
-0.0793873
-0.0807327
-0.084094
-0.0894834
-0.0968039
-0.105807
-0.116414
-0.128644
-0.142367
-0.157345
-0.173554
-0.191328
-0.211133
-0.233304
-0.257895
-0.284765
-0.313988
-0.345826
-0.0855407
-0.0827369
-0.0821827
-0.0846428
-0.0885863
-0.093981
-0.100743
-0.108716
-0.117781
-0.12793
-0.139331
-0.152105
-0.166187
-0.181668
-0.198908
-0.218146
-0.239432
-0.262908
-0.288634
-0.316469
-0.0695705
-0.0784586
-0.0823205
-0.086936
-0.0918073
-0.0971683
-0.103172
-0.109951
-0.117434
-0.125531
-0.134588
-0.145038
-0.156857
-0.16999
-0.184649
-0.200972
-0.219191
-0.239567
-0.261865
-0.285915
-0.0327769
-0.0708382
-0.0821302
-0.0890858
-0.0944692
-0.0993439
-0.104239
-0.109524
-0.115317
-0.121615
-0.128693
-0.136926
-0.146408
-0.157142
-0.169225
-0.182769
-0.198034
-0.215176
-0.233946
-0.254238
336796
336081
335167
335462
338898
344630
351581
358506
364281
368083
369384
367896
363263
354524
338562
355507
339930
335219
335121
338033
343162
349576
356042
361446
364973
366117
364613
360213
352520
341265
374322
355445
344558
340663
341539
345517
350996
356601
361212
364093
364858
363365
359588
353617
345882
386046
373836
363668
357323
354906
355583
358210
361356
363973
365420
365370
363711
360478
355848
350226
393559
385536
378136
372451
368911
367363
367287
367866
368374
368312
367378
365433
362475
358643
354224
399016
393250
387666
382875
379208
376697
375116
374069
373133
371956
370301
368041
365161
361747
357975
402990
398634
394253
390199
386700
383840
381526
379572
377742
375816
373633
371093
368158
364858
361343
405913
402489
398947
395487
392272
389362
386739
384323
381990
379604
377037
374203
371104
361703
170748
408100
405313
402373
399397
396479
393676
390998
388402
385791
383061
380192
360753
147004
-27.1895
4.07835
409768
407430
404940
402365
399752
397131
394485
391767
388989
335313
69196.5
-10.5368
0.444955
-3.58212
-3.00666
411105
409125
406988
404696
402280
399747
385667
237895
-8.62245
-0.285534
1.59591
-2.46658
-2.32244
-2.29978
-2.4121
412222
410409
407524
367547
227402
12643.4
-16.7099
5.13098
-0.650961
-2.54785
-1.73284
-1.83934
-1.9844
-2.11437
-2.22658
141519
23679
-15.9458
-0.989212
2.66689
-0.365527
-2.66759
-1.48287
-1.37143
-1.53415
-1.6296
-1.74318
-1.85954
-1.97604
-2.08197
1.23141
-0.22245
-1.93725
-1.63185
-0.88727
-0.98723
-1.15708
-1.25233
-1.34451
-1.44628
-1.54763
-1.64879
-1.74645
-1.84181
-1.93507
-0.319499
-0.577578
-0.721829
-0.838642
-0.89192
-0.989852
-1.08502
-1.1824
-1.27524
-1.3644
-1.4519
-1.54091
-1.62866
-1.71365
-1.79576
-0.527505
-0.604954
-0.678274
-0.760476
-0.842721
-0.931307
-1.01858
-1.10555
-1.19121
-1.27423
-1.35434
-1.43364
-1.51253
-1.5889
-1.66214
-0.508057
-0.573555
-0.641233
-0.714003
-0.789995
-0.869043
-0.949109
-1.02816
-1.106
-1.18205
-1.25565
-1.32759
-1.39846
-1.46733
-1.533
-0.478638
-0.53813
-0.601123
-0.666966
-0.735571
-0.806246
-0.877917
-0.949694
-1.02051
-1.08976
-1.15729
-1.22272
-1.28645
-1.34841
-1.40747
-0.447744
-0.501162
-0.557954
-0.617554
-0.67955
-0.742873
-0.806862
-0.871169
-0.935157
-0.99839
-1.06001
-1.11944
-1.17672
-1.23204
-1.28545
-0.414977
-0.46256
-0.51359
-0.567252
-0.622563
-0.679054
-0.736016
-0.793056
-0.850515
-0.907854
-0.964115
-1.01835
-1.06984
-1.11913
-1.16694
-0.381415
-0.423379
-0.468671
-0.516197
-0.565191
-0.615055
-0.665167
-0.715794
-0.767094
-0.818747
-0.870085
-0.919423
-0.96584
-1.00977
-1.05232
-0.34744
-0.383956
-0.423213
-0.464677
-0.507615
-0.551019
-0.594841
-0.639537
-0.685203
-0.731651
-0.777663
-0.821804
-0.863494
-0.902994