/*--------------------------------*- C++ -*----------------------------------*\
| =========                 |                                                 |
| \\      /  F ield         | OpenFOAM: The Open Source CFD Toolbox           |
|  \\    /   O peration     | Version:  v1912                                 |
|   \\  /    A nd           | Website:  www.openfoam.com                      |
|    \\/     M anipulation  |                                                 |
\*---------------------------------------------------------------------------*/
FoamFile
{
    version     2.0;
    format      ascii;
    class       surfaceScalarField;
    location    "38";
    object      phi;
}
// * * * * * * * * * * * * * * * * * * * * * * * * * * * * * * * * * * * * * //

dimensions      [0 3 -1 0 0 0 0];
oriented        oriented;


internalField   nonuniform List<scalar> 
40282
(
0.0027947
0.00264819
1.91915
-1.92578
1.9202
0.00557538
-1.91113
1.89897
0.0121582
-1.88378
1.8657
0.0180792
-1.84466
1.82084
0.0238226
-1.79419
1.76487
0.0293193
-1.73281
1.6982
0.0346142
-1.66099
1.62137
0.0396189
-1.57929
1.53489
0.0443966
-1.48818
1.43929
0.0488936
-1.38821
1.33505
0.0531616
-1.27985
1.22271
0.0571357
-1.16379
1.10311
0.0606841
-1.0408
0.976759
0.0640406
-0.911283
0.844149
0.0671343
-0.775772
0.705615
0.0701568
-0.634218
0.560844
0.0733746
-0.48615
0.408822
0.0773278
-0.329623
0.246445
0.0831778
-0.160386
0.0682239
0.0921624
-0.00422508
0.00559989
1.85427
-1.8498
1.84285
-0.0140945
0.0210461
-1.83318
1.82074
-0.0256235
0.0380615
-1.80552
1.78755
-0.0369159
0.0548879
-1.76687
1.7435
-0.0479802
0.0713482
-1.71749
1.68887
-0.0587701
0.0873934
-1.65768
1.62395
-0.0692119
0.102941
-1.58774
1.54911
-0.0792676
0.117899
-1.50812
1.4648
-0.0888877
0.132205
-1.41923
1.37144
-0.0980272
0.145814
-1.3215
1.26947
-0.10664
0.158672
-1.21541
1.15937
-0.114703
0.170747
-1.10139
1.04153
-0.122128
0.181988
-0.979841
0.916406
-0.128864
0.192299
-0.851254
0.784473
-0.134821
0.201602
-0.716075
0.646171
-0.139941
0.209845
-0.574772
0.502079
-0.144357
0.21705
-0.428157
0.353354
-0.148667
0.22347
-0.277756
0.20194
-0.154275
0.230092
-0.126013
0.0548771
-0.166484
0.23762
-0.00701055
0.00835786
1.78782
-1.78364
1.77682
-0.0281818
0.0349925
-1.76736
1.75525
-0.0506893
0.0627945
-1.74052
1.72317
-0.0729341
0.0902831
-1.70322
1.68068
-0.0947539
0.11729
-1.65559
1.62798
-0.116032
0.143647
-1.59788
1.56534
-0.136668
0.169212
-1.53039
1.49308
-0.156532
0.193843
-1.45346
1.41159
-0.175524
0.217395
-1.36753
1.32135
-0.193576
0.239751
-1.27313
1.22293
-0.21064
0.260839
-1.17083
1.11688
-0.226676
0.280619
-1.06117
1.00375
-0.241654
0.299071
-0.944689
0.884028
-0.255511
0.316172
-0.821821
0.758118
-0.268086
0.331788
-0.692963
0.626406
-0.279079
0.345636
-0.558496
0.48933
-0.288198
0.357364
-0.419044
0.347875
-0.295436
0.366604
-0.276129
0.20432
-0.301519
0.373328
-0.133145
0.0647733
-0.309229
0.377601
-0.00964268
0.0109185
1.7238
-1.71994
1.71352
-0.0417139
0.0481353
-1.70454
1.69301
-0.0748283
0.0863563
-1.67895
1.66236
-0.107567
0.12415
-1.64328
1.62171
-0.139754
0.16132
-1.59769
1.57123
-0.171203
0.197662
-1.54236
1.51112
-0.201733
0.232977
-1.47754
1.44165
-0.231164
0.26705
-1.4035
1.36315
-0.259317
0.299674
-1.32063
1.27602
-0.286034
0.33065
-1.22937
1.18076
-0.311189
0.359797
-1.13027
1.078
-0.334708
0.386984
-1.02402
0.968436
-0.356563
0.412146
-0.911339
0.852812
-0.376768
0.435295
-0.792932
0.731761
-0.395277
0.456448
-0.669352
0.605754
-0.411834
0.475432
-0.541011
0.475166
-0.425852
0.491697
-0.408256
0.340345
-0.436458
0.504369
-0.27156
0.202171
-0.443274
0.512664
-0.132546
0.0643029
-0.447359
0.515602
-0.0121383
0.0133446
1.66207
-1.65841
1.65232
-0.0545084
0.0605977
-1.64381
1.63287
-0.0978039
0.108739
-1.61953
1.60378
-0.140623
0.156368
-1.58565
1.56515
-0.182752
0.203254
-1.54229
1.5171
-0.223974
0.249164
-1.4896
1.45981
-0.264067
0.293857
-1.42776
1.39348
-0.302789
0.337067
-1.35701
1.31839
-0.339904
0.378528
-1.27765
1.23486
-0.375176
0.417972
-1.19005
1.14329
-0.408378
0.455134
-1.09466
1.04421
-0.439316
0.489761
-0.992044
0.938248
-0.46786
0.521656
-0.882925
0.826181
-0.493983
0.550727
-0.768122
0.708846
-0.517727
0.577002
-0.64844
0.586968
-0.539021
0.600493
-0.524478
0.461004
-0.557388
0.620863
-0.396571
0.331204
-0.571743
0.63711
-0.26494
0.197868
-0.580701
0.647774
-0.130038
0.0632128
-0.583863
0.650688
-0.0144912
0.0156184
1.60266
-1.59905
1.59333
-0.0666166
0.0723374
-1.58533
1.57505
-0.119551
0.129832
-1.56249
1.54767
-0.171945
0.186768
-1.53059
1.51125
-0.223555
0.242892
-1.48967
1.46586
-0.274133
0.297944
-1.43983
1.4116
-0.323418
0.351647
-1.38119
1.34863
-0.371121
0.403687
-1.31393
1.27713
-0.416947
0.453746
-1.23826
1.19737
-0.460599
0.501494
-1.15449
1.10967
-0.501771
0.546587
-1.06297
1.01446
-0.540159
0.588677
-0.96419
0.912254
-0.5755
0.627436
-0.858739
0.803745
-0.607626
0.66262
-0.747382
0.689765
-0.636512
0.694128
-0.631007
0.571206
-0.662205
0.722005
-0.510445
0.448783
-0.68447
0.746131
-0.386257
0.322882
-0.702276
0.765651
-0.25866
0.193582
-0.713707
0.778785
-0.127498
0.0626062
-0.717457
0.782349
-0.016683
0.0177216
1.54506
-1.54203
1.53671
-0.0779616
0.0832735
-1.52928
1.51972
-0.139944
0.149501
-1.50804
1.49424
-0.201361
0.215166
-1.47831
1.46025
-0.261951
0.280006
-1.44007
1.41777
-0.321445
0.343746
-1.39335
1.36682
-0.379553
0.406085
-1.33818
1.30746
-0.435939
0.466668
-1.27465
1.23978
-0.490258
0.525124
-1.20288
1.16397
-0.542148
0.581061
-1.12308
1.08025
-0.591229
0.63406
-1.03552
0.988944
-0.637105
0.683679
-0.940581
0.890497
-0.679388
0.729473
-0.838767
0.785481
-0.717756
0.771042
-0.73074
0.674657
-0.752022
0.808104
-0.617355
0.558955
-0.782196
0.840596
-0.499571
0.4393
-0.808228
0.868499
-0.378217
0.316377
-0.829327
0.891168
-0.253797
0.190443
-0.843399
0.906752
-0.125938
0.0632347
-0.848349
0.911052
-0.0186943
0.0196337
1.48988
-1.48712
1.48226
-0.0884564
0.0933111
-1.47546
1.46672
-0.158833
0.167581
-1.45601
1.44334
-0.228662
0.241333
-1.42869
1.41206
-0.297686
0.314318
-1.39343
1.3728
-0.365628
0.386261
-1.35015
1.32548
-0.432178
0.456849
-1.29878
1.27005
-0.496964
0.525694
-1.23929
1.2065
-0.559591
0.592379
-1.1717
1.13488
-0.619635
0.65645
-1.09608
1.05531
-0.676637
0.717407
-1.0126
0.967998
-0.730107
0.774711
-0.921541
0.873286
-0.77954
0.827795
-0.823295
0.771646
-0.824459
0.876108
-0.718429
0.663749
-0.864483
0.919163
-0.607727
0.550495
-0.89946
0.956693
-0.492184
0.43292
-0.929373
0.988637
-0.372812
0.311944
-0.953632
1.0145
-0.250356
0.188009
-0.970146
1.03249
-0.124253
0.0635257
-0.976793
1.03752
-0.020503
0.0213312
1.43657
-1.43392
1.42958
-0.0980012
0.102343
-1.42349
1.41565
-0.176042
0.183884
-1.40604
1.39464
-0.253609
0.265011
-1.38143
1.36639
-0.330468
0.345508
-1.34949
1.33072
-0.406351
0.425123
-1.31005
1.28745
-0.480947
0.503549
-1.2629
1.23637
-0.553856
0.580377
-1.20787
1.17735
-0.62464
0.655152
-1.14483
1.11028
-0.692812
0.727358
-1.07372
1.03513
-0.757832
0.796413
-0.994553
0.951991
-0.819107
0.861669
-0.907479
0.861056
-0.876007
0.92243
-0.812774
0.762694
-0.9279
0.977979
-0.710896
0.657475
-0.974195
1.02762
-0.602549
0.546253
-1.01451
1.07081
-0.488737
0.430157
-1.04873
1.10731
-0.370665
0.310398
-1.0764
1.13667
-0.249451
0.187831
-1.09554
1.15716
-0.124502
0.0658167
-1.10404
1.16273
-0.0220852
0.0227896
1.38531
-1.383
1.37923
-0.106481
0.110252
-1.37394
1.3671
-0.191371
0.198204
-1.35871
1.34872
-0.275922
0.285909
-1.33711
1.32384
-0.359947
0.373213
-1.30888
1.29219
-0.443213
0.45991
-1.27371
1.25342
-0.525425
0.545721
-1.23126
1.20719
-0.606171
0.630237
-1.18118
1.15319
-0.68498
0.712974
-1.12317
1.09112
-0.761307
0.793365
-1.05699
1.02077
-0.834529
0.870743
-0.982464
0.942057
-0.903938
0.944345
-0.899564
0.855005
-0.968768
1.01333
-0.808413
0.759835
-1.02821
1.07679
-0.709336
0.657
-1.08146
1.13379
-0.602938
0.547286
-1.12782
1.18348
-0.490211
0.431901
-1.16698
1.22529
-0.372558
0.312397
-1.1985
1.25866
-0.251611
0.190334
-1.22056
1.28184
-0.126878
0.070375
-1.23119
1.2877
-0.0234159
0.0239843
1.33573
-1.3338
1.33066
-0.113779
0.116918
-1.32624
1.32052
-0.204609
0.210325
-1.31348
1.30506
-0.295301
0.303719
-1.29523
1.28394
-0.385744
0.397035
-1.27113
1.25676
-0.475766
0.490143
-1.24075
1.22304
-0.565113
0.582822
-1.20356
1.18226
-0.653382
0.674684
-1.15906
1.13391
-0.740086
0.765242
-1.10673
1.07747
-0.824635
0.853893
-1.04608
1.01251
-0.906323
0.939892
-0.976724
0.93869
-0.984326
1.02236
-0.89839
0.855818
-1.05772
1.10029
-0.810983
0.763909
-1.12551
1.17258
-0.714639
0.663241
-1.18661
1.23801
-0.60981
0.554481
-1.24001
1.29534
-0.497423
0.438849
-1.28502
1.34359
-0.379004
0.318176
-1.32106
1.38189
-0.256654
0.194728
-1.34643
1.40836
-0.129503
0.0750625
-1.35965
1.41409
-0.0244715
0.0248934
1.28802
-1.28631
1.28385
-0.119772
0.122225
-1.28039
1.2759
-0.215539
0.220037
-1.27032
1.26363
-0.311434
0.31813
-1.25575
1.24664
-0.40745
0.416562
-1.23622
1.22442
-0.503508
0.515309
-1.21116
1.19634
-0.599426
0.61424
-1.17989
1.16171
-0.694841
0.713025
-1.1417
1.11977
-0.789276
0.811204
-1.09583
1.06978
-0.882119
0.90817
-1.04153
1.011
-0.972596
1.00313
-0.978108
0.94279
-1.05977
1.09509
-0.904986
0.864653
-1.14256
1.18289
-0.82176
0.776297
-1.21973
1.26519
-0.728276
0.677736
-1.28993
1.34047
-0.624752
0.569445
-1.35171
1.40701
-0.511992
0.452633
-1.4039
1.46326
-0.391676
0.329519
-1.44562
1.50778
-0.266611
0.203525
-1.47518
1.53827
-0.135419
0.0836023
-1.49172
1.54354
-0.0252326
0.0255001
1.24217
-1.24089
1.23917
-0.124355
0.126075
-1.23673
1.23354
-0.223963
0.227157
-1.22955
1.2247
-0.324023
0.328866
-1.21895
1.2122
-0.424661
0.431407
-1.20438
1.19541
-0.525921
0.534896
-1.18518
1.17358
-0.627733
0.639331
-1.1605
1.14583
-0.729811
0.744484
-1.12943
1.11119
-0.831727
0.84997
-1.09097
1.06863
-0.932886
0.955223
-1.04405
1.01709
-1.03249
1.05945
-0.987621
0.95553
-1.1295
1.16159
-0.920701
0.883035
-1.22269
1.26035
-0.842446
0.79887
-1.31059
1.35417
-0.752265
0.702621
-1.39152
1.44116
-0.649972
0.594408
-1.46352
1.51908
-0.536095
0.475293
-1.52478
1.58558
-0.412382
0.347907
-1.57387
1.63834
-0.282568
0.217438
-1.60902
1.67415
-0.144966
0.096507
-1.63011
1.67857
-0.0256854
0.0257948
1.19763
-1.19699
1.19603
-0.127442
0.1284
-1.19465
1.19282
-0.229721
0.23155
-1.19049
1.18761
-0.332815
0.335704
-1.18409
1.17986
-0.437011
0.441235
-1.17484
1.16892
-0.542508
0.548428
-1.16199
1.15393
-0.649386
0.657453
-1.14459
1.13384
-0.757484
0.76823
-1.12153
1.1075
-0.866478
0.88051
-1.09158
1.07358
-0.975851
0.993844
-1.05334
1.03066
-1.08483
1.10751
-1.00537
0.977256
-1.19237
1.22048
-0.946154
0.911881
-1.29711
1.33138
-0.874271
0.833175
-1.3974
1.43849
-0.788465
0.740047
-1.49118
1.5396
-0.687871
0.631959
-1.57593
1.63184
-0.572424
0.509515
-1.64894
1.71185
-0.443655
0.375548
-1.70788
1.77599
-0.306201
0.237345
-1.7506
1.81945
-0.158128
0.112212
-1.77766
1.82358
-0.0258247
0.0257772
1.15494
-1.15476
1.15457
-0.128983
0.129171
-1.15427
1.15383
-0.232707
0.233148
-1.1532
1.15231
-0.337628
0.338512
-1.15111
1.14951
-0.44421
0.445812
-1.14741
1.14472
-0.552832
0.555525
-1.14131
1.13704
-0.663763
0.668028
-1.13178
1.12536
-0.777021
0.783443
-1.11761
1.10833
-0.892449
0.901722
-1.09734
1.0844
-1.00969
1.02262
-1.0693
1.05179
-1.1281
1.14561
-1.03162
1.00851
-1.24671
1.26981
-0.982209
0.952427
-1.36417
1.39395
-0.918888
0.881319
-1.47873
1.5163
-0.839459
0.793071
-1.58803
1.63442
-0.741962
0.68601
-1.68894
1.74489
-0.625208
0.559728
-1.77765
1.84313
-0.490006
0.416931
-1.85042
1.92349
-0.341968
0.267922
-1.90429
1.97834
-0.180562
0.13875
-1.94035
1.98217
-0.0256556
0.0254578
1.11372
-1.11381
1.11438
-0.128975
0.128409
-1.11514
1.11606
-0.232897
0.231972
-1.11711
1.11822
-0.338389
0.337277
-1.11933
1.12038
-0.446094
0.44505
-1.12126
1.12188
-0.556585
0.555965
-1.12212
1.12185
-0.670357
0.670631
-1.12091
1.11914
-0.787648
0.789414
-1.11636
1.11237
-0.90854
0.912534
-1.10694
1.09982
-1.03293
1.04005
-1.09074
1.07942
-1.16043
1.17175
-1.06554
1.04875
-1.29031
1.3071
-1.02869
1.00497
-1.42144
1.44516
-0.977159
0.94483
-1.55217
1.5845
-0.907528
0.864794
-1.68009
1.72282
-0.816189
0.761321
-1.80159
1.85646
-0.699905
0.631858
-1.91162
1.97967
-0.557441
0.477576
-2.00433
2.08419
-0.394139
0.311143
-2.07479
2.15779
-0.21125
0.172265
-2.12493
2.16391
-0.0251938
0.0248574
1.07398
-1.07468
1.07596
-0.127464
0.126187
-1.07772
1.07994
-0.230358
0.228135
-1.08259
1.08562
-0.335154
0.332125
-1.08898
1.0926
-0.442661
0.43904
-1.09641
1.10031
-0.553648
0.54974
-1.10422
1.10799
-0.668846
0.66507
-1.1115
1.11459
-0.788755
0.785664
-1.11709
1.11878
-0.913748
0.912056
-1.11944
1.11883
-1.04407
1.04469
-1.11664
1.11257
-1.17972
1.18379
-1.10625
1.09729
-1.32042
1.32938
-1.08522
1.06956
-1.46551
1.48117
-1.04975
1.02517
-1.61386
1.63844
-0.995129
0.958878
-1.76351
1.79976
-0.915611
0.864492
-1.91095
1.96207
-0.804721
0.735649
-2.05022
2.11929
-0.656989
0.569312
-2.17284
2.26052
-0.474616
0.378141
-2.27
2.36647
-0.261374
0.223164
-2.34404
2.38225
-0.024465
0.0240066
1.03552
-1.03661
1.03853
-0.124549
0.122628
-1.0412
1.04461
-0.225252
0.221846
-1.04873
1.05352
-0.328119
0.323325
-1.05895
1.06498
-0.434099
0.42807
-1.07155
1.07859
-0.544136
0.537096
-1.08602
1.09375
-0.65919
0.651466
-1.10165
1.10961
-0.780026
0.772071
-1.11746
1.12504
-0.907344
0.899766
-1.13214
1.13852
-1.04179
1.03541
-1.14391
1.14801
-1.18388
1.17978
-1.15045
1.15083
-1.33394
1.33357
-1.14865
1.14337
-1.49213
1.49741
-1.13434
1.1208
-1.65832
1.67186
-1.10186
1.07648
-1.83181
1.8572
-1.04343
1.00129
-2.01045
2.05259
-0.948472
0.883289
-2.18888
2.25406
-0.804195
0.710412
-2.35683
2.45061
-0.602822
0.487073
-2.49941
2.61515
-0.347284
0.302477
-2.61706
2.66187
-0.0235034
0.0229424
0.99852
-1.00014
1.00262
-0.120376
0.117898
-1.00608
1.01052
-0.217831
0.213394
-1.01592
1.02227
-0.317621
0.311272
-1.02955
1.03773
-0.420796
0.412616
-1.04678
1.05667
-0.528433
0.518546
-1.06734
1.07873
-0.641686
0.630294
-1.09077
1.10336
-0.761563
0.748968
-1.11641
1.12977
-0.889068
0.8757
-1.14331
1.15684
-1.02527
1.01174
-1.17014
1.18295
-1.17121
1.15839
-1.19499
1.20588
-1.32795
1.31705
-1.21522
1.22247
-1.49665
1.48939
-1.22703
1.22815
-1.67864
1.67752
-1.22488
1.21605
-1.8754
1.88422
-1.2002
1.17543
-2.08794
2.1127
-1.13939
1.08913
-2.3149
2.36516
-1.02113
0.931614
-2.54905
2.63857
-0.817486
0.680195
-2.77232
2.90961
-0.510757
0.438771
-2.98152
3.05351
-0.0223488
0.0217064
0.962987
-0.964703
0.96764
-0.115128
0.112192
-0.971751
0.977041
-0.208417
0.203128
-0.983509
0.991154
-0.304113
0.296468
-0.999975
1.00997
-0.403315
0.393318
-1.02114
1.03347
-0.507178
0.494848
-1.04695
1.06155
-0.616993
0.60239
-1.07725
1.09401
-0.733948
0.71719
-1.11177
1.13049
-0.859287
0.840573
-1.15007
1.17042
-0.994421
0.974075
-1.1914
1.21288
-1.14088
1.1194
-1.23466
1.25652
-1.30037
1.27851
-1.27818
1.2993
-1.47503
1.45391
-1.31946
1.33813
-1.66772
1.64905
-1.35462
1.36803
-1.88251
1.86911
-1.37714
1.38029
-2.12506
2.12191
-1.37513
1.3584
-2.40207
2.4188
-1.32551
1.27011
-2.7193
2.7747
-1.18399
1.05518
-3.07754
3.20635
-0.882917
0.799051
-3.49438
3.57824
0.111364
-0.27196
0.160596
-0.232278
0.31719
-0.0849127
-0.369726
0.406553
-0.0368273
-0.435541
0.460866
-0.0253249
-0.486215
0.50494
-0.0187253
-0.524267
0.538406
-0.0141386
-0.541844
0.526209
0.0156349
-0.49923
0.465045
0.0341844
-0.421144
0.358752
0.0623925
-0.265947
0.113566
0.15238
0.171034
-0.751863
0.580829
1.53158
-1.98657
0.454999
2.15651
-2.35012
0.193612
2.40655
-2.39159
-0.0149573
2.44354
-2.47046
0.0269219
2.5466
-2.66518
0.118584
2.80581
-3.05276
0.246952
3.45998
-4.17017
0.710189
5.16166
-5.35498
0.193316
4.66288
-1.59191
-3.07097
-1.01035
2.4659
-1.45555
-3.4177
4.08368
-0.665984
-4.5814
4.96954
-0.388138
-5.27795
5.52443
-0.246476
-5.72147
5.87875
-0.157279
-6.00398
6.10333
-0.0993494
-6.1818
6.24345
-0.0616502
-6.29167
6.32916
-0.0374926
-6.35814
6.38033
-0.0221881
-6.3971
6.40955
-0.0124465
-6.41853
6.42453
-0.00600508
-6.42835
6.43015
-0.00179961
-6.42987
6.42743
0.00244124
-6.42366
6.41871
0.00494476
-6.41262
6.40523
0.00739117
-6.39774
6.39378
0.00395996
-6.39883
6.41492
-0.0160843
-6.43137
6.43808
-0.00670894
-6.43921
6.44169
-0.00247761
-6.4479
6.45073
-0.00283547
-6.43641
6.40912
0.0272987
-6.38813
6.38372
0.00441712
-6.40239
6.43895
-0.0365558
-6.47094
6.48394
-0.0129928
-6.48709
6.48551
0.001583
-6.48446
6.48666
-0.00220174
-6.4896
6.48196
0.00763933
-6.46262
6.44485
0.0177667
-6.43536
6.42867
0.00668603
-6.42998
6.4445
-0.0145233
-6.46782
6.484
-0.0161844
-6.45918
6.42667
0.0325109
-6.43566
6.47836
-0.0426983
-6.49613
6.45013
0.0460021
-6.38337
6.57261
-0.189234
-7.30318
6.21998
1.0832
-5.70988
5.67257
0.0373095
-5.73948
5.81896
-0.0794784
-5.87892
5.92347
-0.0445433
-5.94021
5.95576
-0.0155495
0.423082
-0.561336
0.138253
-0.229805
0.286487
0.147951
-0.204633
-0.333698
0.372158
0.0739294
-0.112389
-0.403514
0.429871
0.0509148
-0.0772722
-0.453001
0.476105
0.0373281
-0.0604315
-0.49445
0.508214
0.0298999
-0.0436642
-0.51393
0.507662
-0.0244039
0.0306716
-0.490392
0.463777
-0.0644557
0.0910702
-0.429149
0.385973
-0.111831
0.155007
-0.33347
0.276582
-0.24165
0.298538
-0.22069
0.200113
-0.733592
0.754169
-0.166028
-0.0867607
-1.11682
1.36961
0.669378
-1.43321
-0.568402
1.33223
1.99554
-2.34334
-0.0895845
0.437386
2.50759
-2.59675
-0.0988863
0.188043
2.70524
-2.87194
-0.266164
0.432869
3.06302
-3.30654
-0.470664
0.714191
3.67058
-4.29277
-1.26768
1.88987
5.40202
-3.44477
1.06534
-3.02259
-0.417105
1.23819
5.00828
-5.82937
-1.99918
2.82172
2.57697
-3.39951
-3.54776
4.15186
1.31009
-1.91419
-4.64739
5.05329
0.78934
-1.19524
-5.386
5.65849
0.508212
-0.780701
-5.8809
6.0613
0.328643
-0.509037
-6.20664
6.323
0.209539
-0.325898
-6.41552
6.48862
0.131027
-0.204127
-6.54606
6.59091
0.0803304
-0.12518
-6.62564
6.65235
0.0480045
-0.0747149
-6.67263
6.68769
0.027277
-0.0423378
-6.69853
6.7059
0.0135532
-0.0209272
-6.71032
6.71236
0.00400571
-0.0060455
-6.71288
6.71105
-0.00372842
0.00555713
-6.7078
6.70336
-0.00937262
0.0138179
-6.69836
6.69359
-0.0121634
0.0169319
-6.68942
6.68579
-0.00403469
0.00766412
-6.68157
6.67656
0.0140842
-0.00907202
-6.67234
6.66994
0.00750654
-0.00510967
-6.66822
6.66499
0.00189923
0.00133056
-6.66021
6.65578
-0.00436616
0.00878932
-6.65481
6.65642
-0.0259621
0.0243558
-6.65712
6.65564
-0.00155634
0.00303568
-6.65196
6.64695
0.0328387
-0.0278291
-6.64359
6.64442
0.0190425
-0.0198731
-6.64678
6.64897
0.00182807
-0.00401187
-6.64972
6.64846
0.000874505
0.00039079
-6.64582
6.64419
-0.00948217
0.0111139
-6.64398
6.6427
-0.0230757
0.0243494
-6.64032
6.63782
-0.00958475
0.0120785
-6.63301
6.62499
0.0172861
-0.00926859
-6.61381
6.60397
0.00844898
0.00138247
-6.60643
6.61448
-0.0117108
0.0036613
-6.61242
6.59939
0.115479
-0.102444
-6.58568
6.5701
0.0689196
-0.0533358
-6.53875
6.30729
0.0553537
0.176103
-5.90395
6.17288
-1.25547
0.986545
-6.34117
6.34168
0.096945
-0.0974553
-6.33364
6.33242
0.128302
-0.127084
-6.33557
6.33884
0.0636372
-0.066911
-6.34435
6.34685
0.0250022
-0.0275069
0.688132
-0.802632
0.114499
-0.207616
0.263364
0.260489
-0.316237
-0.308915
0.347831
0.150256
-0.189172
-0.380962
0.408861
0.10425
-0.132149
-0.432285
0.453332
0.0820289
-0.103076
-0.469457
0.479852
0.0543453
-0.0647403
-0.48522
0.487014
-0.0343809
0.0325864
-0.478551
0.460136
-0.113477
0.131893
-0.434486
0.405161
-0.190035
0.219361
-0.373979
0.34224
-0.336022
0.367761
-0.321732
0.335456
-0.742857
0.729133
-0.411197
0.490874
-1.34133
1.26166
-0.543617
0.604618
-1.34718
1.28618
-0.679316
0.866763
-1.43921
1.25176
-0.203055
-0.870448
-0.449763
1.52327
1.70773
-2.68593
-1.19079
2.16899
3.66275
-3.99196
-1.14123
1.47044
3.54008
-2.35505
-1.13844
-0.0465824
-1.01833
2.46644
4.9282
-6.37631
-2.61713
2.69761
6.10259
-6.18307
-2.96622
3.40344
3.9836
-4.42082
-3.89295
4.36907
2.44909
-2.92521
-4.8024
5.18224
1.58749
-1.96732
-5.50673
5.7789
1.0527
-1.32486
-6.00316
6.1854
0.690575
-0.872818
-6.3318
6.4478
0.442595
-0.558604
-6.5387
6.60941
0.276582
-0.347293
-6.66376
6.70514
0.168803
-0.210184
-6.73635
6.75957
0.100057
-0.123277
-6.77656
6.78867
0.0561492
-0.0682554
-6.79688
6.80201
0.0273053
-0.032437
-6.80462
6.80512
0.00746555
-0.00796389
-6.80389
6.80129
-0.00768412
0.0102811
-6.79749
6.79278
-0.0183992
0.0231027
-6.78758
6.78222
-0.0219848
0.0273453
-6.7767
6.77068
-0.0126708
0.0186937
-6.76379
6.75622
0.00238742
0.00518704
-6.74915
6.74356
0.000483633
0.00510132
-6.7388
6.73412
-0.00549101
0.0101794
-6.72936
6.72569
-0.0128445
0.0165211
-6.72449
6.7252
-0.0231294
0.022419
-6.72552
6.72372
-0.0045105
0.00631014
-6.71927
6.71311
0.0216558
-0.0154995
-6.70766
6.70459
0.0180171
-0.0149451
-6.70346
6.70316
0.00479161
-0.00449384
-6.70266
6.70143
-0.00158805
0.00281941
-6.69972
6.69854
-0.0125282
0.0137102
-6.69833
6.69792
-0.0242823
0.0246885
-6.69594
6.69142
-0.0154631
0.0199837
-6.68383
6.67393
0.000205998
0.00968674
-6.66444
6.65936
-0.00717688
0.0122567
-6.66168
6.66253
-0.00220884
0.00136124
-6.65034
6.622
0.0600019
-0.0316676
-6.57583
6.50703
-0.0536728
0.122471
-6.41204
6.48312
-0.524852
0.453771
-6.6104
6.6756
-0.388041
0.322848
-6.66983
6.62671
0.0297645
0.013365
-6.58617
6.55697
0.10324
-0.0740399
-6.53925
6.52835
0.0605147
-0.0496184
-6.52303
6.51852
0.0256346
-0.0211184
0.901438
-0.962453
0.0610146
-0.172184
0.23029
0.37223
-0.430335
-0.277682
0.318563
0.228227
-0.269108
-0.354116
0.384189
0.160652
-0.190725
-0.408384
0.42907
0.123765
-0.144451
-0.445938
0.457916
0.0759126
-0.0878899
-0.466489
0.471378
-0.0292608
0.0243719
-0.468907
0.456303
-0.146976
0.159581
-0.435551
0.410102
-0.244942
0.270391
-0.384844
0.359195
-0.395954
0.421603
-0.342945
0.349622
-0.71886
0.712183
-0.391036
0.447914
-1.18701
1.13013
-0.486848
0.500646
-1.25499
1.24119
-0.493891
0.502333
-1.24036
1.23192
-0.545093
0.568256
-1.98541
1.96225
-0.231491
-0.395717
-3.09058
3.71779
1.18362
-0.990371
-1.49809
1.30484
-0.0757093
2.48932
2.66512
-5.07874
-3.3885
3.43085
6.60725
-6.6496
-3.40863
3.44114
6.21761
-6.25013
-3.59962
3.88754
4.76043
-5.04835
-4.24999
4.63852
3.3469
-3.73542
-5.01753
5.36685
2.32761
-2.67693
-5.67305
5.93341
1.58937
-1.84972
-6.14732
6.31923
1.0496
-1.22152
-6.45464
6.55966
0.669259
-0.774279
-6.63959
6.6999
0.412869
-0.473178
-6.74478
6.77785
0.247325
-0.280395
-6.80194
6.81938
0.143351
-0.160793
-6.83177
6.84043
0.0782721
-0.0869351
-6.8462
6.84973
0.036378
-0.0399106
-6.85146
6.85172
0.00797867
-0.00824355
-6.85079
6.84883
-0.0128786
0.0148365
-6.84596
6.84231
-0.0275155
0.0311684
-6.83805
6.8333
-0.0326109
0.0373627
-6.82803
6.82211
-0.024902
0.0308232
-6.81549
6.80847
-0.0126897
0.0197052
-6.80179
6.79602
-0.0110182
0.0167941
-6.7911
6.78678
-0.0148422
0.0191658
-6.78307
6.78045
-0.019682
0.0222979
-6.77942
6.7795
-0.0221695
0.022088
-6.77941
6.77796
-0.00807069
0.00952444
-6.77467
6.77006
0.0100547
-0.00544477
-6.76541
6.76182
0.0114185
-0.00782664
-6.75947
6.75797
0.00344968
-0.00194664
-6.75677
6.75553
-0.00404914
0.00529394
-6.75422
6.75304
-0.0148282
0.0160051
-6.75188
6.74988
-0.0258863
0.027885
-6.74598
6.73929
-0.0255757
0.0322644
-6.72953
6.71741
-0.0205007
0.032618
-6.70499
6.6948
-0.0193934
0.0295849
-6.68819
6.68048
-0.00489822
0.0126042
-6.66453
6.63878
0.00515803
0.0205926
-6.61096
6.59735
-0.15836
0.171977
-6.61851
6.67318
-0.394188
0.339516
-6.72798
6.76107
-0.281288
0.248199
-6.76465
6.74707
-0.0410029
0.0585781
-6.72257
6.70063
0.0474825
-0.0255441
-6.68439
6.67292
0.037635
-0.0261668
-6.66541
6.65928
0.0153676
-0.00923112
1.00434
-1.03787
0.0335281
-0.110912
0.178038
0.492775
-0.559902
-0.234545
0.281667
0.3126
-0.359723
-0.321841
0.357315
0.222963
-0.258436
-0.385938
0.407574
0.164395
-0.186031
-0.424165
0.436675
0.101253
-0.113763
-0.445363
0.451764
-0.0192205
0.0128201
-0.453911
0.447818
-0.169524
0.175617
-0.432536
0.410654
-0.293794
0.315676
-0.384336
0.359876
-0.443769
0.468229
-0.341383
0.335364
-0.710935
0.716955
-0.349192
0.371236
-1.09258
1.07054
-0.38121
0.364605
-1.24189
1.25849
-0.322467
0.283896
-1.24654
1.28511
-0.293817
0.375098
-1.88947
1.80819
-0.686432
1.03356
-3.73183
3.3847
-0.737702
1.20101
-0.991655
0.528346
-3.21796
3.64694
6.40993
-6.8389
-3.69541
3.72482
6.67232
-6.70173
-3.76421
3.84359
6.30182
-6.3812
-4.0005
4.24159
5.30251
-5.54359
-4.54875
4.88826
4.09283
-4.43234
-5.23165
5.5531
3.00949
-3.33093
-5.83705
6.07523
2.09792
-2.33609
-6.26659
6.41552
1.38208
-1.53101
-6.52974
6.61602
0.869592
-0.955878
-6.68025
6.72842
0.526446
-0.574619
-6.7646
6.79184
0.309265
-0.336504
-6.81268
6.82899
0.176381
-0.192695
-6.84191
6.85229
0.0953637
-0.10574
-6.86064
6.86736
0.0441894
-0.0509051
-6.87263
6.87666
0.00979503
-0.0138285
-6.87967
6.88164
-0.015249
0.013277
-6.88261
6.88255
-0.033312
0.0333692
-6.88147
6.8794
-0.0409751
0.0430429
-6.87638
6.87252
-0.0358354
0.039693
-6.86798
6.86307
-0.0257118
0.0306169
-6.85825
6.85393
-0.0219005
0.0262183
-6.8503
6.84742
-0.0227943
0.0256726
-6.84532
6.8441
-0.0242192
0.0254398
-6.84387
6.84438
-0.0218742
0.0213628
-6.8449
6.84462
-0.0104321
0.0107142
-6.84306
6.84032
0.00182101
0.00091211
-6.83707
6.83405
0.00449655
-0.00147541
-6.83163
6.8298
0.00023401
0.0015991
-6.82833
6.82701
-0.00654155
0.00786215
-6.8257
6.82429
-0.0172604
0.0186713
-6.8224
6.81921
-0.0305284
0.0337255
-6.81379
6.80552
-0.0397668
0.0480322
-6.79411
6.77952
-0.0458988
0.060493
-6.76266
6.74578
-0.0429491
0.0598307
-6.73179
6.71982
-0.0229302
0.034899
-6.70556
6.68936
-0.0417602
0.0579591
-6.67942
6.68705
-0.171813
0.164186
-6.71712
6.7607
-0.291225
0.247648
-6.8022
6.83083
-0.218299
0.189664
-6.84207
6.83924
-0.0678727
0.0706992
-6.8293
6.81803
0.00918314
0.00208539
-6.80829
6.80053
0.0163949
-0.00863907
-6.79454
6.78931
0.00342064
0.0018047
1.05707
-1.06785
0.0107734
-0.0633277
0.120675
0.623618
-0.680965
-0.181564
0.237364
0.411605
-0.467405
-0.285766
0.325888
0.295241
-0.335363
-0.358962
0.383785
0.207857
-0.23268
-0.401138
0.414003
0.126022
-0.138887
-0.424574
0.433696
-0.00442748
-0.00469472
-0.439736
0.440097
-0.178185
0.177824
-0.431241
0.411519
-0.337105
0.356827
-0.383213
0.352666
-0.495829
0.526375
-0.324391
0.301009
-0.731223
0.754605
-0.285488
0.276509
-1.06309
1.07207
-0.25776
0.216565
-1.28755
1.32874
-0.144424
0.0584866
-1.34767
1.43361
-0.0126595
0.0483737
-1.73959
1.70388
-0.156068
0.470477
-3.02301
2.70861
-0.971922
3.27223
0.915675
-3.21598
-3.67509
3.72208
6.84272
-6.88972
-3.78816
3.87503
6.75853
-6.8454
-3.98053
4.11474
6.48947
-6.62368
-4.29602
4.52966
5.77895
-6.01258
-4.81023
5.11704
4.75248
-5.05929
-5.42477
5.70908
3.63362
-3.91792
-5.95205
6.14812
2.55427
-2.75033
-6.29736
6.4105
1.66184
-1.77498
-6.49922
6.56934
1.03158
-1.1017
-6.62665
6.67524
0.619564
-0.668152
-6.71724
6.75295
0.365169
-0.400875
-6.78446
6.81209
0.212589
-0.240218
-6.83625
6.85735
0.120254
-0.141361
-6.8757
6.89158
0.0615577
-0.0774307
-6.90511
6.91648
0.0212451
-0.032613
-6.92594
6.93386
-0.00838168
0.000453091
-6.9402
6.94507
-0.0309447
0.0260786
-6.94834
6.94993
-0.0432793
0.041689
-6.94984
6.94832
-0.0422546
0.0437753
-6.9458
6.94271
-0.034399
0.0374856
-6.9395
6.93653
-0.0297029
0.0326729
-6.9341
6.93248
-0.0278018
0.0294197
-6.93176
6.93173
-0.0259974
0.0260319
-6.93231
6.9334
-0.0205193
0.0194221
-6.93465
6.93544
-0.0103929
0.00960317
-6.93528
6.93394
-0.00283012
0.00417067
-6.93167
6.92912
-0.00121611
0.00376454
-6.92677
6.92472
-0.00349967
0.00555035
-6.9229
6.92118
-0.00931286
0.011034
-6.9194
6.9174
-0.0202882
0.0222928
-6.91484
6.91102
-0.0372533
0.0410717
-6.90491
6.89601
-0.0566566
0.0655526
-6.88417
6.86855
-0.0757836
0.0914128
-6.8482
6.82452
-0.0799209
0.103602
-6.80374
6.79035
-0.0476004
0.0609838
-6.77988
6.77162
-0.069541
0.0778054
-6.77146
6.78449
-0.15299
0.139951
-6.81183
6.84784
-0.208596
0.172586
-6.88287
6.90968
-0.162323
0.13551
-6.9255
6.93165
-0.0684323
0.0622751
-6.93171
6.92905
-0.008627
0.0112895
-6.92571
6.92237
0.00318747
0.000149389
-6.91899
6.91541
-0.0061895
0.00977321
1.06895
-1.0575
-0.0114532
-0.023174
0.0625867
0.728853
-0.768265
-0.114085
0.170786
0.524175
-0.580876
-0.226725
0.276684
0.380074
-0.430033
-0.318337
0.350265
0.260447
-0.292375
-0.372843
0.388893
0.153011
-0.169062
-0.401488
0.412096
0.0144158
-0.0250244
-0.419948
0.423039
-0.175839
0.172747
-0.418084
0.402142
-0.374468
0.39041
-0.375161
0.341296
-0.558431
0.592297
-0.304801
0.266625
-0.785485
0.823661
-0.226204
0.183421
-1.09824
1.14102
-0.1345
0.0723336
-1.38039
1.44255
0.0117978
-0.11826
-1.53593
1.64239
0.217576
-0.272489
-1.70546
1.76037
0.291645
0.519361
-2.14954
1.33853
-2.6736
3.66021
5.4409
-6.42752
-3.65199
3.73517
6.96291
-7.0461
-3.85617
3.99624
6.9605
-7.10057
-4.1516
4.32618
6.78151
-6.95609
-4.52817
4.75815
6.24461
-6.47459
-5.01534
5.28387
5.34621
-5.61474
-5.54044
5.76184
4.17199
-4.39339
-5.92903
6.05771
2.91437
-3.04304
-6.16233
6.24661
1.86834
-1.95262
-6.34488
6.43927
1.17441
-1.2688
-6.52853
6.60944
0.728338
-0.809249
-6.68169
6.74382
0.448102
-0.510231
-6.79732
6.84116
0.277191
-0.321031
-6.87835
6.91016
0.169054
-0.200865
-6.93727
6.96024
0.0978002
-0.120777
-6.97966
6.99594
0.0470001
-0.0632854
-7.00946
7.02073
0.00948707
-0.0207558
-7.03026
7.03824
-0.0192916
0.0113094
-7.04466
7.04923
-0.0384941
0.033923
-7.0516
7.05175
-0.0444128
0.0442676
-7.05004
7.04727
-0.0402189
0.0429899
-7.04437
7.04203
-0.0353065
0.0376504
-7.04046
7.03996
-0.0305117
0.031009
-7.04078
7.04214
-0.0253781
0.0240164
-7.04382
7.04556
-0.0180157
0.0162708
-7.04712
7.04831
-0.00855014
0.00736683
-7.0488
7.04808
-0.00513465
0.00585529
-7.04565
7.04253
-0.0063771
0.00950216
-7.03982
7.03735
-0.00780686
0.0102795
-7.03495
7.03249
-0.0131143
0.015578
-7.0298
7.02664
-0.0248443
0.0280051
-7.02261
7.01727
-0.0454829
0.0508276
-7.01061
7.00252
-0.0742985
0.0823875
-6.99189
6.97839
-0.106215
0.119717
-6.95728
6.9268
-0.13051
0.16099
-6.90093
6.88879
-0.0741823
0.0863303
-6.88033
6.87573
-0.0836219
0.0882195
-6.88135
6.89613
-0.126214
0.11143
-6.91986
6.95089
-0.139608
0.10858
-6.98156
7.0067
-0.109675
0.0845336
-7.02443
7.03513
-0.053428
0.042725
-7.04078
7.04336
-0.0108722
0.00828957
-7.04428
7.04426
-0.00159312
0.00161852
-7.04317
7.04104
-0.012554
0.0146819
1.03089
-0.986456
-0.0444336
0.0237337
0.000564227
0.799091
-0.823389
-0.0424449
0.0973257
0.636142
-0.691023
-0.157924
0.217188
0.484236
-0.543499
-0.27014