/*--------------------------------*- C++ -*----------------------------------*\
| =========                 |                                                 |
| \\      /  F ield         | OpenFOAM: The Open Source CFD Toolbox           |
|  \\    /   O peration     | Version:  v1912                                 |
|   \\  /    A nd           | Website:  www.openfoam.com                      |
|    \\/     M anipulation  |                                                 |
\*---------------------------------------------------------------------------*/
FoamFile
{
    version     2.0;
    format      ascii;
    class       volVectorField;
    location    "38";
    object      U;
}
// * * * * * * * * * * * * * * * * * * * * * * * * * * * * * * * * * * * * * //

dimensions      [0 1 -1 0 0 0 0];


internalField   nonuniform List<vector> 
20320
(
(1.8548 0.00629506 0)
(1.85344 -0.00533962 0)
(1.83805 0.00426239 0)
(1.80854 0.0119551 0)
(1.76761 0.0191734 0)
(1.71627 0.0259913 0)
(1.65463 0.0326237 0)
(1.58298 0.0386083 0)
(1.50188 0.0443306 0)
(1.41182 0.0496869 0)
(1.31336 0.0548486 0)
(1.2069 0.0596793 0)
(1.09324 0.0638003 0)
(0.973001 0.068125 0)
(0.8466 0.0723535 0)
(0.714533 0.0765868 0)
(0.576703 0.0819622 0)
(0.43236 0.0902701 0)
(0.27921 0.103928 0)
(0.111016 0.123781 0)
(1.85493 0.0112694 0)
(1.84635 0.0356498 0)
(1.827 0.0666745 0)
(1.79674 0.0978233 0)
(1.75548 0.128402 0)
(1.70351 0.158276 0)
(1.64115 0.187264 0)
(1.5688 0.215251 0)
(1.48685 0.242072 0)
(1.39573 0.267612 0)
(1.29589 0.291739 0)
(1.1878 0.314419 0)
(1.07187 0.335495 0)
(0.948535 0.354683 0)
(0.818277 0.371784 0)
(0.681544 0.386632 0)
(0.538847 0.39929 0)
(0.39108 0.410742 0)
(0.239664 0.424264 0)
(0.0869588 0.457417 0)
(1.85492 0.0170503 0)
(1.84641 0.0698575 0)
(1.82689 0.125477 0)
(1.79639 0.180567 0)
(1.75505 0.234758 0)
(1.70306 0.287655 0)
(1.64068 0.338987 0)
(1.56822 0.388481 0)
(1.48607 0.435845 0)
(1.39471 0.480848 0)
(1.2947 0.523363 0)
(1.18664 0.5633 0)
(1.0711 0.600602 0)
(0.948609 0.635177 0)
(0.819603 0.666692 0)
(0.684478 0.694472 0)
(0.543649 0.717574 0)
(0.397848 0.735286 0)
(0.248628 0.748756 0)
(0.100351 0.782891 0)
(1.85492 0.0228339 0)
(1.84666 0.099805 0)
(1.82749 0.17912 0)
(1.79732 0.257535 0)
(1.7563 0.334622 0)
(1.70467 0.409962 0)
(1.64261 0.483135 0)
(1.5704 0.5537 0)
(1.48836 0.621226 0)
(1.39692 0.685308 0)
(1.29657 0.745604 0)
(1.18797 0.801892 0)
(1.07185 0.854083 0)
(0.949027 0.902229 0)
(0.820233 0.946313 0)
(0.686008 0.985853 0)
(0.54674 1.01959 0)
(0.402751 1.04557 0)
(0.254406 1.06286 0)
(0.103809 1.09741 0)
(1.85492 0.0282985 0)
(1.8468 0.127849 0)
(1.82793 0.229463 0)
(1.79823 0.329983 0)
(1.75782 0.428914 0)
(1.70687 0.525751 0)
(1.64555 0.619978 0)
(1.57407 0.71103 0)
(1.49273 0.798347 0)
(1.40186 0.88137 0)
(1.3019 0.959545 0)
(1.19338 1.03237 0)
(1.07698 1.09949 0)
(0.953546 1.16078 0)
(0.824013 1.21633 0)
(0.689261 1.26611 0)
(0.549869 1.30918 0)
(0.406073 1.3432 0)
(0.257822 1.36581 0)
(0.105403 1.40193 0)
(1.85492 0.0334343 0)
(1.847 0.154332 0)
(1.82861 0.277059 0)
(1.79962 0.398572 0)
(1.76013 0.518315 0)
(1.71023 0.635716 0)
(1.65004 0.750178 0)
(1.5797 0.861028 0)
(1.49943 0.967583 0)
(1.40951 1.06914 0)
(1.31029 1.16498 0)
(1.20223 1.25438 0)
(1.0859 1.33667 0)
(0.962052 1.41141 0)
(0.831617 1.47846 0)
(0.695654 1.53794 0)
(0.555073 1.58947 0)
(0.410346 1.63093 0)
(0.261332 1.65903 0)
(0.106871 1.69812 0)
(1.85492 0.0382014 0)
(1.8473 0.179077 0)
(1.82957 0.321571 0)
(1.8016 0.462819 0)
(1.7634 0.602236 0)
(1.71501 0.739208 0)
(1.65644 0.873077 0)
(1.58775 1.00307 0)
(1.50904 1.1284 0)
(1.4205 1.24821 0)
(1.32238 1.36162 0)
(1.21504 1.4677 0)
(1.09897 1.56552 0)
(0.974815 1.65428 0)
(0.843427 1.73346 0)
(0.705909 1.80302 0)
(0.56341 1.86292 0)
(0.416778 1.91155 0)
(0.266181 1.94537 0)
(0.109154 1.98685 0)
(1.85492 0.0425552 0)
(1.8477 0.20188 0)
(1.83088 0.362647 0)
(1.80429 0.522242 0)
(1.76787 0.680092 0)
(1.72154 0.835576 0)
(1.66521 0.988001 0)
(1.59879 1.13652 0)
(1.52225 1.28022 0)
(1.43564 1.41813 0)
(1.33908 1.54918 0)
(1.2328 1.67223 0)
(1.11718 1.78608 0)
(0.992746 1.8896 0)
(0.860278 1.98183 0)
(0.72084 2.0623 0)
(0.575722 2.13094 0)
(0.426074 2.18653 0)
(0.27236 2.22546 0)
(0.110482 2.26878 0)
(1.85492 0.0464453 0)
(1.84823 0.222511 0)
(1.83261 0.399886 0)
(1.80784 0.576288 0)
(1.77376 0.751204 0)
(1.73017 0.92405 0)
(1.67683 1.09413 0)
(1.61348 1.26055 0)
(1.5399 1.42231 0)
(1.45595 1.57829 0)
(1.36156 1.72725 0)
(1.2568 1.8678 0)
(1.14189 1.99847 0)
(1.01724 2.11776 0)
(0.883492 2.22425 0)
(0.741676 2.31692 0)
(0.593191 2.39539 0)
(0.439542 2.45863 0)
(0.281717 2.50301 0)
(0.113385 2.54716 0)
(1.85492 0.0498182 0)
(1.8489 0.240714 0)
(1.83481 0.432836 0)
(1.81237 0.624322 0)
(1.78131 0.814779 0)
(1.74128 1.00371 0)
(1.69184 1.19047 0)
(1.63254 1.37415 0)
(1.56292 1.55368 0)
(1.48258 1.72782 0)
(1.39123 1.89513 0)
(1.28867 2.05399 0)
(1.17491 2.20259 0)
(1.05016 2.33905 0)
(0.914936 2.46142 0)
(0.770173 2.568 0)
(0.617359 2.65784 0)
(0.458408 2.72975 0)
(0.294993 2.78006 0)
(0.117886 2.82335 0)
(1.85492 0.0526192 0)
(1.84973 0.256222 0)
(1.83755 0.461021 0)
(1.81801 0.665668 0)
(1.79073 0.869953 0)
(1.7552 1.07353 0)
(1.71076 1.27586 0)
(1.6567 1.47607 0)
(1.5923 1.67307 0)
(1.51684 1.86553 0)
(1.42968 2.05183 0)
(1.33031 2.23008 0)
(1.21841 2.39814 0)
(1.0939 2.55365 0)
(0.95706 2.69408 0)
(0.808665 2.81694 0)
(0.650211 2.92036 0)
(0.483955 3.0027 0)
(0.312029 3.05992 0)
(0.120581 3.10081 0)
(1.85493 0.0547981 0)
(1.85074 0.268774 0)
(1.84084 0.483966 0)
(1.82482 0.699633 0)
(1.80215 0.915811 0)
(1.77216 1.13238 0)
(1.73397 1.34897 0)
(1.6866 1.56483 0)
(1.62898 1.7789 0)
(1.56001 1.98982 0)
(1.47865 2.19584 0)
(1.38391 2.39483 0)
(1.27501 2.58428 0)
(1.15145 2.76133 0)
(1.01311 2.92278 0)
(0.860463 3.06514 0)
(0.694957 3.18538 0)
(0.519294 3.28085 0)
(0.336413 3.34671 0)
(0.125742 3.38412 0)
(1.85493 0.0563147 0)
(1.85191 0.278143 0)
(1.84468 0.501248 0)
(1.83279 0.725574 0)
(1.8156 0.951469 0)
(1.79228 1.1791 0)
(1.76173 1.40838 0)
(1.72267 1.63874 0)
(1.67371 1.86925 0)
(1.6133 2.09863 0)
(1.53986 2.3251 0)
(1.45183 2.54634 0)
(1.34777 2.75952 0)
(1.22651 2.96128 0)
(1.08726 3.14763 0)
(0.929955 3.31394 0)
(0.755744 3.45557 0)
(0.567738 3.56831 0)
(0.370031 3.64597 0)
(0.133258 3.67955 0)
(1.85493 0.0571434 0)
(1.85323 0.284156 0)
(1.84903 0.512536 0)
(1.84184 0.742962 0)
(1.83096 0.976148 0)
(1.81542 1.21262 0)
(1.79396 1.45265 0)
(1.76505 1.69597 0)
(1.72691 1.94192 0)
(1.67757 2.18943 0)
(1.61484 2.43683 0)
(1.53643 2.6818 0)
(1.44003 2.92132 0)
(1.32347 3.1516 0)
(1.18489 3.36788 0)
(1.02318 3.56419 0)
(0.838692 3.7338 0)
(0.634568 3.86997 0)
(0.416138 3.96395 0)
(0.142845 3.99402 0)
(1.85494 0.0572784 0)
(1.85466 0.286728 0)
(1.85377 0.517637 0)
(1.85177 0.751446 0)
(1.84793 0.98926 0)
(1.84122 1.23202 0)
(1.83027 1.48045 0)
(1.81337 1.73467 0)
(1.78846 1.99448 0)
(1.75312 2.25917 0)
(1.70457 2.52744 0)
(1.63971 2.79722 0)
(1.55513 3.0656 0)
(1.44728 3.32866 0)
(1.31268 3.58107 0)
(1.14834 3.81554 0)
(0.952878 4.02273 0)
(0.728749 4.19219 0)
(0.482918 4.31088 0)
(0.16344 4.33877 0)
(1.85494 0.056737 0)
(1.85617 0.285875 0)
(1.85878 0.516546 0)
(1.8623 0.750928 0)
(1.86605 0.990523 0)
(1.86902 1.23671 0)
(1.86984 1.49072 0)
(1.86673 1.7532 0)
(1.85748 2.02449 0)
(1.83936 2.30453 0)
(1.8091 2.59263 0)
(1.76278 2.88738 0)
(1.69584 3.18646 0)
(1.60303 3.48639 0)
(1.47852 3.78194 0)
(1.31629 4.06496 0)
(1.11135 4.32344 0)
(0.863112 4.54165 0)
(0.578348 4.6991 0)
(0.19083 4.73364 0)
(1.85495 0.0555597 0)
(1.8577 0.281731 0)
(1.86387 0.509464 0)
(1.87307 0.741608 0)
(1.8847 0.980032 0)
(1.89791 1.22654 0)
(1.91143 1.48289 0)
(1.92359 1.75033 0)
(1.93222 2.02986 0)
(1.93453 2.32223 0)
(1.92698 2.6277 0)
(1.9051 2.94594 0)
(1.86334 3.27587 0)
(1.79473 3.61541 0)
(1.69066 3.9607 0)
(1.54074 4.30437 0)
(1.33365 4.63295 0)
(1.06118 4.92488 0)
(0.725714 5.14746 0)
(0.244857 5.20807 0)
(1.85495 0.0538088 0)
(1.8592 0.274544 0)
(1.86886 0.4968 0)
(1.88367 0.724003 0)
(1.9032 0.958316 0)
(1.9268 1.20191 0)
(1.95348 1.45704 0)
(1.98186 1.72555 0)
(2.01006 2.00916 0)
(2.03554 2.30953 0)
(2.05491 2.6281 0)
(2.06367 2.96598 0)
(2.05585 3.32402 0)
(2.0234 3.70265 0)
(1.95529 4.10132 0)
(1.83633 4.51654 0)
(1.64611 4.93767 0)
(1.36106 5.34087 0)
(0.966086 5.67848 0)
(0.354447 5.81029 0)
(1.85495 0.0515632 0)
(1.86061 0.264659 0)
(1.87356 0.47916 0)
(1.89371 0.698931 0)
(1.92082 0.926337 0)
(1.95454 1.16382 0)
(1.99426 1.41404 0)
(2.03907 1.67935 0)
(2.08764 1.96213 0)
(2.13803 2.26495 0)
(2.18755 2.59042 0)
(2.23237 2.94129 0)
(2.26713 3.32067 0)
(2.28416 3.73237 0)
(2.272 4.18106 0)
(2.21283 4.67125 0)
(2.07806 5.2034 0)
(1.82283 5.76508 0)
(1.38717 6.30936 0)
(0.596828 6.63879 0)
(1.85496 0.048913 0)
(1.86187 0.252497 0)
(1.87782 0.457288 0)
(1.90283 0.66745 0)
(1.93692 0.885434 0)
(1.98005 1.11382 0)
(2.03209 1.35554 0)
(2.0927 1.61329 0)
(2.1613 1.88996 0)
(2.2369 2.18881 0)
(2.31795 2.51346 0)
(2.40209 2.86802 0)
(2.48581 3.25764 0)
(2.56382 3.68939 0)
(2.62777 4.17359 0)
(2.66335 4.72524 0)
(2.64396 5.36417 0)
(2.51748 6.11209 0)
(2.17313 6.9827 0)
(1.31845 7.81027 0)
(0.648578 -0.381719 0)
(1.13294 -0.123308 0)
(1.52651 -0.0466436 0)
(1.74274 -0.0315858 3.06475e-21)
(1.92032 -0.0240914 0)
(2.05752 -0.0167606 0)
(2.06021 0.0231251 0)
(1.84073 0.0429432 0)
(1.47836 0.0805282 0)
(0.702691 0.209634 -9.32269e-21)
(-1.63081 0.898121 0)
(-7.79085 -0.39019 0)
(-8.69113 0.295455 -1.27735e-20)
(-8.98199 -0.0719778 -6.51171e-21)
(-9.45228 -0.0332211 0)
(-10.0945 0.0996072 4.01818e-22)
(-11.2757 0.350564 1.63727e-21)
(-14.5166 0.917316 3.1722e-21)
(-22.8818 -2.10258 0)
(-7.87767 -5.87629 -5.62555e-19)
(7.21185 -2.48842 -1.61024e-19)
(14.9528 -1.09342 -3.74782e-19)
(18.6956 -0.622521 1.39214e-19)
(20.9924 -0.397978 -1.01689e-19)
(22.4655 -0.259298 0)
(23.4042 -0.170338 -4.89267e-20)
(23.9889 -0.112416 0)
(24.3457 -0.0746788 2.06431e-20)
(24.5581 -0.0500202 2.60533e-20)
(24.6794 -0.0336306 0)
(24.7426 -0.0219689 4.98943e-21)
(24.7671 -0.0134502 -2.99843e-21)
(24.7618 -0.00570158 8.52349e-22)
(24.7302 -0.00493353 -4.11197e-22)
(24.6811 0.000320537 0)
(24.6227 0.00527493 0)
(24.676 -0.0878445 -1.09565e-22)
(24.8047 -0.0437876 0)
(24.7976 -0.0116228 -4.41676e-22)
(24.8446 -0.0182559 0)
(24.7183 0.124955 0)
(24.5623 0.0207469 -6.38871e-22)
(24.7271 -0.191851 0)
(24.9975 -0.0629206 0)
(24.9797 0.00308378 6.63997e-22)
(24.9744 -0.00840653 7.67931e-22)
(24.9894 0.0334473 0)
(24.8273 0.0117132 -2.60625e-22)
(24.7649 -0.0342226 5.67886e-22)
(24.7666 -0.0261567 -3.24806e-21)
(24.9153 -0.0352535 0)
(24.7648 0.0571678 -1.40427e-21)
(24.9296 0.00403154 0)
(25.4917 0.377774 3.23791e-22)
(25.8117 -0.320694 0)
(25.792 -0.570591 0)
(21.7949 0.158201 -1.05234e-25)
(22.2749 -0.117257 1.59278e-25)
(22.7366 -0.0687045 0)
(22.8741 -0.00564412 0)
(0.828025 -0.990923 0)
(1.15427 -0.349222 0)
(1.43161 -0.18552 -2.53427e-21)
(1.64007 -0.127619 0)
(1.80602 -0.0983636 0)
(1.93461 -0.0745226 1.49991e-21)
(1.91948 0.0552703 1.50049e-22)
(1.7441 0.154168 0)
(1.43478 0.265147 -4.89492e-24)
(0.928921 0.545498 -5.11829e-21)
(0.164335 1.4947 -4.34528e-23)
(-0.74514 2.63451 5.40124e-20)
(-5.01972 1.79918 -1.887e-19)
(-8.44632 0.169061 0)
(-9.69106 0.101448 0)
(-10.6866 0.370398 -3.06949e-20)
(-12.2003 0.654348 0)
(-15.4703 1.9701 0)
(-28.6099 -4.88934 5.17953e-21)
(8.42093 -10.6884 0)
(10.9106 -6.03497 0)
(15.7047 -3.22327 0)
(19.041 -1.9709 1.11396e-19)
(21.3353 -1.27597 -8.68952e-20)
(22.8756 -0.828242 6.32306e-20)
(23.8827 -0.52956 4.36351e-20)
(24.5226 -0.332041 0)
(24.9189 -0.204222 0)
(25.158 -0.122686 1.16341e-20)
(25.2964 -0.0705203 -3.37592e-24)
(25.369 -0.0362385 0)
(25.3965 -0.0128019 1.89285e-25)
(25.3933 0.00724365 -1.41073e-21)
(25.3653 0.0220934 0)
(25.3261 0.0281574 0)
(25.299 0.00909988 -2.50704e-23)
(25.2761 -0.0342446 0)
(25.241 -0.0205416 0)
(25.224 -0.00281483 0)
(25.1853 0.0124379 2.4284e-22)
(25.1681 0.0595513 9.89755e-24)
(25.1845 0.005568 4.05753e-22)
(25.1688 -0.0813863 2.05517e-23)
(25.14 -0.0478121 0)
(25.1521 -0.00741015 -1.02688e-22)
(25.1573 -0.00079169 0)
(25.1366 0.0220968 2.68902e-22)
(25.1305 0.0471986 -5.89435e-23)
(25.1184 0.0134998 -7.53408e-24)
(25.0951 -0.0287835 1.40247e-22)
(25.0259 -0.00406791 -4.34337e-22)
(25.0767 0.00693823 -2.15344e-22)
(25.1703 -0.222568 -7.90349e-22)
(25.332 -0.169127 0)
(25.0768 -0.0299693 0)
(21.9653 1.26477 0)
(24.0621 -0.302149 0)
(23.9622 -0.272344 -2.33593e-22)
(23.9801 -0.137046 1.77408e-22)
(24.0134 -0.0524097 0)
(1.00171 -1.48074 0)
(1.16404 -0.571479 -1.89841e-21)
(1.38723 -0.335882 0)
(1.58251 -0.233754 -2.95508e-21)
(1.73379 -0.183341 -2.26743e-21)
(1.82191 -0.117547 -8.67409e-22)
(1.78362 0.0678779 0)
(1.64409 0.246067 1.70181e-21)
(1.38688 0.409498 0)
(1.03256 0.700193 0)
(0.574957 1.45688 0)
(0.644581 2.57789 0)
(1.04712 2.69064 0)
(1.48898 2.66609 0)
(-1.82491 1.76221 0)
(-9.33372 3.30594 0)
(-15.9202 2.65882 0)
(-12.6719 1.32505 7.263e-19)
(14.6697 -11.758 0)
(14.0197 -12.2794 0)
(14.4543 -8.3848 0)
(17.0926 -5.35439 0)
(19.7089 -3.53079 0)
(21.7391 -2.3574 0)
(23.1489 -1.54968 0)
(24.0633 -0.993218 0)
(24.6266 -0.619844 0)
(24.9588 -0.377175 0)
(25.1462 -0.222694 1.09461e-20)
(25.2452 -0.124304 0)
(25.289 -0.0598352 -4.06014e-21)
(25.2971 -0.0154841 0)
(25.2801 0.0177112 0)
(25.2468 0.0411483 0)
(25.2067 0.0488681 0)
(25.1697 0.0310254 0)
(25.1241 0.00288746 4.77305e-23)
(25.0719 0.00398481 0)
(25.0345 0.0155296 0)
(24.9971 0.0293644 0)
(24.9856 0.0444929 -1.09761e-22)
(24.9935 0.0108104 -1.5554e-22)
(24.9675 -0.0357888 1.022e-22)
(24.9268 -0.0326929 0)
(24.9147 -0.00958917 -1.31166e-22)
(24.9092 0.00436469 0)
(24.8946 0.0259398 0)
(24.89 0.048263 0)
(24.877 0.0348545 0)
(24.8237 0.0090411 1.90494e-22)
(24.7527 0.0186532 0)
(24.7701 0.0017314 5.7459e-22)
(24.7044 -0.0898506 0)
(24.4954 0.17625 0)
(23.7378 0.903027 4.56546e-20)
(24.7206 0.659894 1.51266e-21)
(24.7193 -0.00469203 -1.14537e-21)
(24.4184 -0.174548 -7.34264e-23)
(24.282 -0.109826 0)
(24.2402 -0.0472348 -3.06872e-24)
(0.969416 -1.86079 0)
(1.1277 -0.789271 0)
(1.32891 -0.489429 0)
(1.51625 -0.345526 0)
(1.65443 -0.264116 2.51513e-21)
(1.72728 -0.16122 0)
(1.69332 0.0528627 0)
(1.56531 0.301292 -1.32048e-23)
(1.32766 0.505112 0)
(1.01506 0.806573 2.50212e-23)
(0.654622 1.40994 -1.47951e-21)
(0.602366 2.27574 0)
(0.854398 2.44725 0)
(0.81743 2.44631 4.09387e-23)
(0.700737 3.93844 5.20661e-23)
(-2.55898 6.88918 -1.065e-22)
(-5.85055 2.85278 2.87525e-20)
(6.32525 -7.0072 0)
(17.2147 -13.0305 -5.82941e-20)
(16.6044 -12.2953 0)
(16.7727 -9.68767 -4.39812e-22)
(18.4626 -7.00162 3.60817e-22)
(20.5357 -4.94359 -2.53839e-22)
(22.2676 -3.39592 7.51141e-20)
(23.4631 -2.24396 -5.692e-20)
(24.1983 -1.42771 0)
(24.616 -0.877255 0)
(24.8395 -0.5228 -4.38751e-23)
(24.9522 -0.301263 2.81944e-23)
(25.0047 -0.163429 0)
(25.0234 -0.0751981 3.6062e-21)
(25.021 -0.0156546 0)
(25.0039 0.027871 0)
(24.9764 0.0584492 0)
(24.9433 0.0694224 -3.00357e-22)
(24.9083 0.0552701 0)
(24.8649 0.0323295 0)
(24.8174 0.0276841 1.60711e-22)
(24.7806 0.0338256 -3.57481e-22)
(24.7525 0.0417031 1.66553e-22)
(24.7447 0.043685 1.74906e-22)
(24.7484 0.0175563 0)
(24.7294 -0.0148781 -1.20794e-22)
(24.6962 -0.0188946 0)
(24.6769 -0.00546015 8.56866e-23)
(24.6663 0.00919342 -8.21012e-23)
(24.6546 0.0303517 0)
(24.6437 0.0526381 -6.81005e-23)
(24.6152 0.0565125 0)
(24.5449 0.0517441 1.86351e-22)
(24.4549 0.0468165 3.22203e-22)
(24.408 0.0158022 -3.77056e-22)
(24.2907 0.0169216 5.85506e-22)
(24.0765 0.333659 1.56113e-21)
(24.2078 0.708279 0)
(24.6301 0.525541 4.23735e-22)
(24.6761 0.10227 2.93924e-22)
(24.5026 -0.0692437 8.18341e-24)
(24.3825 -0.0621692 0)
(24.3276 -0.0241568 0)
(1.03184 -1.99298 5.94738e-22)
(1.03019 -1.03685 1.15119e-23)
(1.24866 -0.657999 0)
(1.44703 -0.472729 -2.28002e-21)
(1.58829 -0.34444 2.90376e-21)
(1.64253 -0.211335 0)
(1.59741 0.0329632 0)
(1.47512 0.342719 -1.62064e-23)
(1.25736 0.601628 1.27965e-23)
(0.954343 0.894395 -1.39685e-21)
(0.61947 1.39777 2.69995e-22)
(0.42834 2.11437 1.30166e-23)
(0.394314 2.44576 -1.18964e-21)
(0.0873612 2.47073 0)
(-0.217203 3.62136 -1.25987e-25)
(0.811459 6.94655 -8.66839e-21)
(1.64782 1.6047 0)
(17.9075 -13.2885 4.70425e-20)
(17.8679 -13.1275 9.7502e-21)
(17.8277 -12.4336 0)
(18.2412 -10.648 8.62554e-21)
(19.6018 -8.37834 -3.25032e-22)
(21.3197 -6.23324 0)
(22.7366 -4.36201 0)
(23.6326 -2.86715 5.30668e-20)
(24.1188 -1.79564 1.34274e-22)
(24.3652 -1.08148 0)
(24.4928 -0.632811 0)
(24.5646 -0.360455 3.95789e-23)
(24.6117 -0.19536 0)
(24.6441 -0.0913989 -5.95804e-21)
(24.6643 -0.0214454 -1.02609e-23)
(24.6737 0.0294466 8.76505e-22)
(24.6725 0.0666944 -7.33671e-22)
(24.6618 0.0834461 1.00029e-22)
(24.6426 0.0748496 -2.77055e-22)
(24.6144 0.055884 0)
(24.5818 0.0476565 1.68316e-25)
(24.5562 0.0479435 0)
(24.5413 0.0490757 -1.45383e-22)
(24.5411 0.0425905 -8.96762e-23)
(24.5485 0.0210482 1.59431e-23)
(24.5406 -0.000474441 4.40563e-23)
(24.5181 -0.00569724 1.91041e-23)
(24.4998 0.00130495 -4.63452e-23)
(24.4877 0.0140928 -5.87976e-23)
(24.4761 0.0351876 1.90676e-22)
(24.4597 0.062919 5.29875e-25)
(24.4191 0.0860975 -8.39834e-23)
(24.3363 0.104242 1.84287e-22)
(24.2163 0.0994088 -3.09702e-22)
(24.1202 0.0560033 0)
(24.0151 0.100315 -6.03126e-22)
(23.9341 0.332394 1.0295e-21)
(24.1401 0.52819 0)
(24.4481 0.399253 1.01536e-22)
(24.5413 0.13861 1.51149e-22)
(24.4751 -0.00451678 -4.93513e-25)
(24.4053 -0.0234255 0)
(24.363 -0.00116432 -7.88124e-24)
(1.02335 -2.07288 -1.73443e-22)
(0.943441 -1.27767 0)
(1.15532 -0.858404 -7.49302e-24)
(1.37439 -0.613524 0)
(1.51476 -0.428891 0)
(1.5567 -0.258409 -2.49825e-21)
(1.51401 -0.00023636 0)
(1.40392 0.348121 3.88441e-22)
(1.20107 0.678024 -5.28426e-22)
(0.874737 0.997591 -1.30297e-21)
(0.494902 1.44767 7.26463e-22)
(0.145986 2.07848 9.19648e-22)
(-0.156385 2.55127 -1.33557e-21)
(-0.710363 2.70936 -4.13066e-21)
(-1.23843 3.353 0)
(-1.23564 5.58584 -1.72048e-20)
(9.17388 -2.37279 0)
(17.7427 -13.4294 0)
(18.1051 -13.2777 1.54208e-20)
(18.5849 -12.8004 0)
(19.3268 -11.5182 0)
(20.5702 -9.59548 -5.23725e-20)
(21.9602 -7.39071 -1.43867e-19)
(22.9438 -5.19056 0)
(23.4207 -3.363 -4.88743e-20)
(23.6469 -2.09816 0)
(23.8025 -1.27218 1.80974e-20)
(23.9461 -0.760494 0)
(24.0786 -0.451807 1.16186e-20)
(24.1965 -0.262538 0)
(24.2932 -0.140421 -2.03548e-21)
(24.3669 -0.0553771 1.25033e-21)
(24.4189 0.00731982 0)
(24.4531 0.0547583 -4.55718e-22)
(24.4707 0.0825258 2.32702e-22)
(24.4705 0.0841322 -2.4759e-23)
(24.456 0.0707705 -1.20838e-24)
(24.4357 0.0614641 -2.89364e-23)
(24.4201 0.0562822 6.60475e-23)
(24.4162 0.0509933 -2.60879e-25)
(24.4229 0.0389601 0)
(24.4348 0.0195778 -6.34387e-24)
(24.4356 0.00726442 -6.91921e-23)
(24.4201 0.00537051 0)
(24.403 0.00919036 -1.31653e-25)
(24.3889 0.0201376 -3.63813e-24)
(24.3741 0.0418967 -2.64614e-23)
(24.3526 0.07703 9.11533e-24)
(24.3061 0.120008 2.01666e-23)
(24.2194 0.164577 9.76099e-23)
(24.0754 0.180657 -2.61253e-22)
(23.9384 0.107838 -6.04236e-22)
(23.8623 0.145365 4.88442e-22)
(23.8549 0.286816 0)
(24.0453 0.370836 -5.16132e-22)
(24.298 0.290605 0)
(24.4175 0.12923 4.77058e-23)
(24.4217 0.0211394 0)
(24.3988 -0.00196528 0)
(24.3758 0.0160137 0)
(0.97092 -2.06925 1.32321e-21)
(0.84951 -1.45983 0)
(1.00894 -1.0756 0)
(1.24885 -0.785996 3.89268e-21)
(1.41421 -0.535677 0)
(1.46495 -0.312373 0)
(1.42681 -0.0380283 0)
(1.31507 0.339454 0)
(1.10852 0.744862 0)
(0.770272 1.11892 0)
(0.342432 1.56214 0)
(-0.169228 2.17009 3.08535e-21)
(-0.71862 2.73925 0)
(-1.41791 3.08725 0)
(-2.13085 3.37592 -3.28265e-20)
(-2.56734 3.17375 0)
(17.0492 -12.0748 5.71029e-21)
(17.5709 -13.5924 0)
(18.3329 -13.6621 -5.61475e-23)
(19.1934 -13.3528 0)
(20.1481 -12.3725 0)
(21.2671 -10.6707 -5.57673e-20)
(22.2122 -8.35087 -7.53435e-20)
(22.5656 -5.90803 6.35651e-20)
(22.6639 -3.91234 -3.13699e-20)
(22.8231 -2.40279 0)
(23.1563 -1.44728 7.08862e-23)
(23.4805 -0.863478 3.70226e-23)
(23.7486 -0.518696 0)
(23.9483 -0.309517 3.45826e-20)
(24.0998 -0.174771 0)
(24.2099 -0.0805181 3.09101e-20)
(24.2875 -0.0125086 -2.24168e-23)
(24.341 0.0423522 2.5663e-20)
(24.3783 0.0771309 0)
(24.3937 0.085733 -1.45327e-20)
(24.3845 0.0767989 8.61702e-21)
(24.3667 0.0679813 4.68833e-21)
(24.3581 0.0594101 1.37912e-21)
(24.365 0.0497792 8.81823e-22)
(24.3797 0.0356316 0)
(24.3938 0.0170518 -9.25258e-22)
(24.3978 0.00986337 -8.98209e-22)
(24.382 0.0115134 -5.43151e-24)
(24.3622 0.0140845 0)
(24.3445 0.024154 -1.98915e-21)
(24.3236 0.0464091 1.77761e-21)
(24.2919 0.0855986 -1.54641e-21)
(24.2411 0.142281 0)
(24.1635 0.202834 -8.74582e-23)
(24.0144 0.254564 0)
(23.8513 0.148067 0)
(23.7909 0.166318 0)
(23.8247 0.227528 0)
(23.9928 0.237522 0)
(24.2089 0.186857 0)
(24.3362 0.0932969 0)
(24.3779 0.0190536 2.56668e-23)
(24.3849 0.0034832 -1.10837e-24)
(24.3778 0.0269287 1.51339e-23)
(0.834891 -1.95454 0)
(0.713718 -1.57422 -6.74878e-24)
(0.847992 -1.28364 2.73499e-21)
(1.1102 -0.992144 4.25729e-21)
(1.31446 -0.675545 0)
(1.3831 -0.381122 0)
(1.34515 -0.0815653 0)
(1.22609 0.322807 1.54613e-21)
(1.00653 0.796854 0)
(0.641142 1.24945 0)
(0.164852 1.72251 0)
(-0.478617 2.38432 3.91081e-21)
(-1.27886 3.0113 0)
(-1.96248 3.46327 0)
(-3.46503 3.99741 2.54941e-19)
(-1.31649 1.7478 0)
(16.1838 -13.3671 0)
(17.4884 -14.0821 0)
(18.6114 -14.2213 -2.46951e-20)
(19.6644 -14.0067 -2.77627e-20)
(20.6477 -13.1802 0)
(21.4813 -11.5542 -6.52317e-20)
(21.7 -9.17335 -6.87095e-20)
(21.428 -6.35009 -1.67079e-19)
(21.3164 -3.8236 -3.35365e-20)
(21.7285 -2.84998 0)
(21.9596 -2.00398 0)
(22.1479 -1.13227 0)
(22.2221 -0.681531 0)
(22.2472 -0.443316 0)
(22.2661 -0.273448 0)
(22.2837 -0.154491 9.11636e-21)
(22.3176 -0.0847584 0)
(22.4084 -0.095239 0)
(22.6006 -0.0943414 -4.58119e-22)
(22.812 -0.00879235 -3.88714e-22)
(22.9374 0.0633643 -1.02846e-23)
(22.989 0.0753845 0)
(23.0145 0.0571513 0)
(23.0362 0.034403 0)
(23.0618 0.017229 0)
(23.0826 0.00754142 0)
(23.0908 0.0228699 0)
(23.0951 0.0381685 0)
(23.1089 0.033525 0)
(23.1299 0.0437 0)
(23.1591 0.072026 0)
(23.1987 0.127387 0)
(23.2661 0.20464 0)
(23.3835 0.310709 4.79417e-21)
(23.7923 0.358273 0)
(23.834 0.20527 0)
(23.7365 0.181178 0)
(23.8295 0.192063 0)
(24.0138 0.137696 -3.44482e-22)
(24.186 0.101892 0)
(24.3091 0.0528333 0)
(24.3602 0.00787421 0)
(24.3711 0.00348958 0)
(24.3708 0.0339392 1.1029e-23)
(0.624601 -1.69505 -2.9564e-21)
(0.480035 -1.62076 0)
(0.636201 -1.49358 1.52006e-21)
(0.936513 -1.23824 0)
(1.19615 -0.864367 0)
(1.32436 -0.468396 0)
(1.28605 -0.124297 -3.57933e-21)
(1.14145 0.304978 0)
(0.900157 0.842721 2.13153e-21)
(0.503977 1.39148 0)
(-0.021218 1.91206 1.1468e-21)
(-0.747642 2.67708 -5.12231e-21)
(-1.70781 3.402 0)
(-2.49724 3.76024 0)
(-2.97379 4.08078 3.94939e-20)
(2.48113 -2.73786 5.2649e-19)
(16.4452 -14.4073 3.14274e-20)
(17.7081 -14.6998 -5.55385e-20)
(18.8737 -14.8581 -3.03263e-20)
(19.9387 -14.6711 0)
(20.7577 -13.862 4.93451e-20)
(21.0278 -12.2525 -6.25172e-20)
(20.9934 -9.37415 0)
(20.5085 -6.34821 3.38859e-20)
(20.0944 -4.40991 0)
(19.9721 -2.97418 -4.17597e-20)
(19.938 -2.0009 3.10566e-20)
(19.9849 -1.23948 0)
(20.1052 -0.757539 0)
(20.1677 -0.478666 0)
(20.1984 -0.294514 1.03247e-20)
(20.2195 -0.173484 7.74807e-21)
(20.2485 -0.109121 -1.23235e-20)
(20.2882 -0.126613 0)
(20.3265 -0.150425 2.73504e-21)
(20.3919 -0.0844352 -2.38034e-21)
(20.4794 0.000170901 -8.06254e-22)
(20.555 0.037607 1.70751e-21)
(20.6118 0.0377298 -9.36283e-22)
(20.6575 0.0237471 -8.5502e-22)
(20.7006 0.00816837 3.69803e-22)
(20.7409 -0.00242131 -1.30661e-24)
(20.7823 0.00107339 -1.09458e-22)
(20.8399 0.00377343 -2.58502e-22)
(20.9078 -0.00290635 -3.64274e-22)
(20.9881 -0.00228304 4.46497e-22)
(21.0885 0.0102316 0)
(21.2211 0.0356681 7.4614e-22)
(21.4072 0.0623627 -3.22179e-24)
(21.6629 0.0664966 0)
(21.9893 0.0939865 0)
(22.3704 0.0920419 0)
(22.7623 0.03383 0)
(23.4674 -0.000335664 -4.1214e-21)
(23.9853 0.0530739 0)
(24.1695 0.0362738 0)
(24.2929 0.0136408 9.65596e-22)
(24.3317 -0.0044196 2.80085e-22)
(24.3145 3.57754e-06 6.88224e-23)
(24.2673 0.0353512 2.56212e-23)
(0.454034 -1.34909 0)
(0.320805 -1.61983 0)
(0.479866 -1.67929 0)
(0.756923 -1.48731 0)
(1.02186 -1.11112 0)
(1.20632 -0.636347 0)
(1.23341 -0.169802 0)
(1.06637 0.298245 0)
(0.802245 0.878235 0)
(0.365878 1.53873 0)
(-0.229666 2.11797 0)
(-0.947258 2.95293 0)
(-1.85749 3.86553 0)
(-2.64746 3.94923 0)
(-3.5123 4.15601 0)
(15.6359 -15.3888 0)
(16.7454 -15.0189 0)
(17.8768 -15.3244 0)
(19.0269 -15.4994 0)
(19.9783 -15.2662 0)
(20.4188 -14.4186 0)
(20.4851 -12.8987 0)
(19.1894 -9.16791 0)
(18.2184 -6.60374 0)
(17.7954 -4.53734 0)
(17.6226 -3.11404 0)
(17.5688 -2.12642 2.4731e-20)
(17.5921 -1.39572 0)
(17.7116 -0.88361 0)
(17.833 -0.559825 0)
(17.9306 -0.348902 0)
(18.0104 -0.213794 0)
(18.0827 -0.142008 0)
(18.1447 -0.141599 0)
(18.1723 -0.163753 0)
(18.196 -0.124169 0)
(18.2551 -0.0517051 0)
(18.3353 -0.00706665 0)
(18.4143 0.0020008 0)
(18.4861 -0.00764608 0)
(18.5542 -0.0221802 0)
(18.6222 -0.0336949 0)
(18.6975 -0.0374802 0)
(18.7906 -0.0435213 0)
(18.8974 -0.056608 0)
(19.0192 -0.0670983 0)
(19.1642 -0.0711952 0)
(19.3433 -0.070595 0)
(19.5673 -0.0751407 -1.25098e-21)
(19.8313 -0.0942726 -1.86423e-21)
(20.1205 -0.101013 0)
(20.4566 -0.125765 0)
(20.8166 -0.221838 0)
(21.1136 -0.306097 0)
(21.355 -0.147141 1.65924e-22)
(21.5378 -0.0720922 7.50642e-23)
(21.6284 -0.0360252 5.42644e-23)
(21.6594 -0.00576896 0)
(21.6464 0.0263152 5.81257e-23)
(21.6192 0.0730879 0)
(0.330263 -1.02039 4.5998e-21)
(0.200696 -1.53922 0)
(0.344564 -1.8148 -4.66779e-21)
(0.589711 -1.72079 3.90996e-21)
(0.838513 -1.36532 0)
(1.01992 -0.847263 0)
(1.07013 -0.2762 0)
(0.957947 0.282185 5.61905e-21)
(0.700399 0.909096 3.24987e-21)
(0.236473 1.69973 0)
(-0.408761 2.35365 1.71916e-21)
(-1.16053 3.16012 0)
(-1.95433 4.21851 0)
(-2.40147 4.21379 -8.24941e-19)
(-12.1741 2.11788 -7.348e-18)
(15.4744 -15.1673 -2.14093e-21)
(16.7486 -15.6257 -6.00609e-23)
(17.9447 -15.9542 0)
(19.046 -16.1052 -7.63191e-20)
(19.7454 -15.7522 9.12015e-20)
(19.9551 -14.9452 1.7262e-22)
(19.1336 -12.0651 -1.22899e-19)
(17.1081 -9.0534 2.61655e-20)
(15.998 -6.5443 3.21685e-20)
(15.4138 -4.63526 0)
(15.1672 -3.24554 1.03438e-22)
(15.101 -2.25705 1.94965e-20)
(15.1395 -1.54307 0)
(15.2668 -1.03095 1.24317e-20)
(15.4293 -0.682435 9.84826e-21)
(15.5899 -0.446892 -7.72279e-21)
(15.7375 -0.292413 6.00926e-21)
(15.8704 -0.204467 0)
(15.9819 -0.179309 0)
(16.0527 -0.182731 0)
(16.1021 -0.155708 0)
(16.1718 -0.102492 1.13112e-21)
(16.2659 -0.0625713 -8.05157e-22)
(16.3678 -0.0495997 4.63648e-24)
(16.4674 -0.0552835 -6.86898e-22)
(16.5642 -0.0687904 -6.43791e-22)
(16.6619 -0.082881 0)
(16.7677 -0.0947482 2.58558e-22)
(16.8881 -0.109753 0)
(17.0216 -0.130421 0)
(17.1692 -0.151895 0)
(17.3366 -0.171648 0)
(17.5296 -0.19128 0)
(17.7502 -0.215636 0)
(17.9889 -0.245544 1.68091e-21)
(18.2384 -0.268382 0)
(18.5076 -0.304434 1.08603e-21)
(18.7587 -0.377715 1.41154e-21)
(18.9034 -0.393003 -8.86199e-22)
(19.0184 -0.253965 -3.28813e-23)
(19.1384 -0.144336 0)
(19.2101 -0.0714459 9.98256e-23)
(19.2431 -0.0141355 1.33988e-22)
(19.247 0.034668 0)
(19.2455 0.0745903 1.95895e-23)
(0.0358961 -0.630293 -2.72646e-21)
(0.00823589 -1.42841 0)
(0.216018 -1.88646 0)
(0.440932 -1.92287 -4.16511e-21)
(0.669869 -1.61558 0)
(0.842769 -1.08164 7.52959e-21)
(0.897146 -0.41968 8.23756e-21)
(0.7894 0.225311 0)
(0.547173 0.915959 4.89789e-21)
(0.119434 1.82366 7.25304e-22)
(-0.504783 2.61709 -9.00109e-22)
(-1.37963 3.4418 0)
(-2.37396 4.42785 0)
(-3.17905 6.19707 0)
(14.9279 -13.4205 -3.15823e-19)
(15.6446 -16.0374 -6.53049e-23)
(16.793 -16.2636 0)
(17.9544 -16.5783 0)
(18.9205 -16.6324 8.30787e-20)
(19.2972 -16.1615 0)
(19.549 -14.9304 -3.91434e-19)
(16.7936 -11.5379 0)
(15.0145 -8.6747 2.43901e-20)
(13.8736 -6.41184 2.29256e-20)
(13.1982 -4.65327 2.10114e-20)
(12.8627 -3.3385 1.82119e-20)
(12.7485 -2.38314 0)
(12.7764 -1.69218 0)
(12.9045 -1.19186 -9.90234e-21)
(13.0887 -0.835963 0)
(13.2922 -0.584645 6.4608e-21)
(13.4945 -0.412023 5.14774e-21)
(13.6842 -0.304389 0)
(13.8505 -0.25304 3.39881e-21)
(13.9794 -0.233125 2.72052e-21)
(14.0818 -0.205916 -3.77901e-24)
(14.1881 -0.16534 1.24686e-21)
(14.3099 -0.132173 8.52627e-22)
(14.4391 -0.118295 0)
(14.5675 -0.12105 6.36564e-22)
(14.6933 -0.133339 -6.098e-22)
(14.8193 -0.149551 5.7819e-22)
(14.9508 -0.167507 -2.81111e-22)
(15.092 -0.189539 3.26815e-22)
(15.2427 -0.216817 -4.23948e-22)
(15.4037 -0.246819 -5.4955e-22)
(15.5773 -0.277659 0)
(15.7653 -0.309518 -9.24979e-22)
(15.9655 -0.343258 1.22331e-21)
(16.1703 -0.376747 1.57205e-21)
(16.3749 -0.404775 0)
(16.5751 -0.436167 0)
(16.7357 -0.470054 0)
(16.8155 -0.441728 0)
(16.8805 -0.317209 0)
(16.9608 -0.196225 1.11982e-23)
(17.0242 -0.102972 9.56019e-23)
(17.0667 -0.0294028 0)
(17.0937 0.0281901 -3.8817e-25)
(17.1192 0.0634114 2.63917e-23)
(-0.519564 0.00536218 0)
(-0.0875426 -1.30664 0)
(0.0790566 -1.90305 1.15042e-21)
(0.29503 -2.08968 0)
(0.486781 -1.84651 0)
(0.649696 -1.32825 -8.80732e-21)
(0.727627 -0.60296 1.99409e-20)
(0.634297 0.154547 0)
(0.393762 0.89964 0)
(-0.0239794 1.87493 2.85796e-23)
(-0.594335 2.84529 0)
(-1.4486 3.82557 0)
(-2.60174 4.89915 5.77274e-21)
(-4.20249 6.32672 1.1833e-19)
(14.8997 -16.4751 -6.31159e-19)
(15.727 -16.5906 -5.98465e-21)
(16.8421 -16.8796 -5.9327e-20)
(17.902 -17.1565 -6.49094e-23)
(18.6052 -17.068 -8.55164e-20)
(18.8506 -16.523 0)
(17.383 -13.9394 0)
(14.8405 -10.8384 -3.39542e-20)
(13.1151 -8.26938 -3.57816e-20)
(11.9346 -6.21027 3.33041e-20)
(11.1871 -4.59724 1.52244e-20)
(10.7713 -3.37758 0)
(10.5963 -2.48152 -1.12031e-20)
(10.5908 -1.83018 9.36517e-21)
(10.7038 -1.35454 -7.81074e-21)
(10.8913 -1.00601 0)
(11.1164 -0.749906 5.35611e-21)
(11.354 -0.56496 -4.34643e-21)
(11.5868 -0.439463 0)
(11.801 -0.364308 2.96714e-21)
(11.9849 -0.321717 -2.43338e-21)
(12.1433 -0.286585 -1.82675e-21)
(12.295 -0.24992 2.51624e-21)
(12.4512 -0.220283 0)
(12.61 -0.205397 6.739e-22)
(12.7665 -0.205099 0)
(12.9191 -0.215274 -5.72774e-22)
(13.0697 -0.231906 -3.47262e-24)
(13.2217 -0.253052 -2.95667e-22)
(13.378 -0.279217 3.44596e-22)
(13.5389 -0.310572 0)
(13.7045 -0.345415 5.70561e-22)
(13.8751 -0.381873 7.2624e-22)
(14.0499 -0.418743 -2.2015e-24)
(14.226 -0.454641 -1.19232e-21)
(14.3979 -0.486541 0)
(14.5608 -0.510894 0)
(14.7062 -0.527947 0)