/*--------------------------------*- C++ -*----------------------------------*\
| =========                 |                                                 |
| \\      /  F ield         | OpenFOAM: The Open Source CFD Toolbox           |
|  \\    /   O peration     | Version:  v1912                                 |
|   \\  /    A nd           | Website:  www.openfoam.com                      |
|    \\/     M anipulation  |                                                 |
\*---------------------------------------------------------------------------*/
FoamFile
{
    version     2.0;
    format      ascii;
    class       volScalarField;
    location    "42";
    object      alpha.water;
}
// * * * * * * * * * * * * * * * * * * * * * * * * * * * * * * * * * * * * * //

dimensions      [0 0 0 0 0 0 0];


internalField   nonuniform List<scalar> 
20320
(
1
1
1
1
1
1
1
1
1
1
1
1
1
1
1
1
1
1
1
1
1
1
1
1
1
1
1
1
1
1
1
1
1
1
1
1
1
1
1
1
1
1
1
1
1
1
1
1
1
1
1
1
1
1
1
1
1
1
1
1
1
1
1
1
1
1
1
1
1
1
1
1
1
1
1
1
1
1
1
1
1
1
1
1
1
1
1
1
1
1
1
1
1
1
1
1
1
1
1
1
1
1
1
1
1
1
1
1
1
1
1
1
1
1
1
1
1
1
1
1
1
1
1
1
1
1
1
1
1
1
1
1
1
1
1
1
1
1
1
1
1
1
1
1
1
1
1
1
1
1
1
1
1
1
1
1
1
1
1
1
1
1
1
1
1
1
1
1
1
1
1
1
1
1
1
1
1
1
1
1
1
1
1
1
1
1
1
1
1
1
1
1
1
1
1
1
1
1
1
1
1
1
1
1
1
1
1
1
1
1
1
1
1
1
1
1
1
1
1
1
1
1
1
1
1
1
1
1
1
1
1
1
1
1
1
1
1
1
1
1
1
1
1
1
1
1
1
1
1
1
1
1
1
1
1
1
1
1
1
1
1
1
1
1
1
1
1
1
1
1
1
1
1
1
1
1
1
1
1
1
1
1
1
1
1
1
1
1
1
1
1
1
1
1
1
1
1
1
1
1
1
1
1
1
1
1
1
1
1
1
1
1
1
1
1
1
1
1
1
1
1
1
1
1
1
1
1
1
1
1
1
1
1
1
1
1
1
1
1
1
1
1
1
1
1
1
1
1
1
1
1
1
1
1
1
1
1
1
1
1
1
1
1
1
1
1
1
1
1
1
1
1
1
1
1
1
1
1
1
1
1
1
1
1
1
1
1
1
1
1
1
1
1
1
1
1
1
1
1
1
1
0.997564
0.994703
0.955854
0.966195
1
0.999992
0.999979
0.997603
0.38895
0.721624
0.756862
0.755276
0.507888
0.508782
0.534495
0.534495
0.199583
0.146902
0.0904276
0.067895
0.0614021
0.0257706
4.46094e-19
-2.99173e-21
-3.86093e-21
-6.25964e-20
-5.51781e-20
0.999189
1
1
1
1
0.984524
0.887273
0.896963
1
1
0.637691
0.533766
0.60031
0.999998
0.99999
0.290417
0.290375
0.290737
0.290933
0.752232
0.999822
0.999767
0.162167
0.116019
0.21537
1
1
0.0320928
0.0300589
0.0364379
0.0368324
0.0317132
1
0.999999
1
1
0.99981
0.999996
0.999998
0.996182
0.96045
0.502975
0.0161148
0.0161565
0.224677
0.888217
0.826564
0.312458
0.00649785
1.3762e-20
2.30777e-19
0.198415
0.729776
0.934137
1
1
1
0.982385
0.657494
0.800122
1
1
1
1
1
1
1
1
1
1
1
1
0.999753
0.999318
0.999633
0.997971
0.996894
0.999006
0.998971
0.61316
0.778995
0.999901
0.999882
0.983996
0.525721
0.99257
1
1
1
1
1
1
0.738229
0.968144
0.985331
0.998012
0.988821
0.965281
1
0.703919
0.558945
0.0160546
0.0160895
0.0161236
0.988083
1
1
0.115601
2.2853e-11
2.82872e-11
0.788958
1
1
1
1
1
1
1
1
1
1
1
1
1
1
1
1
1
1
1
1
1
1
1
1
1
0.999946
0.998401
0.999138
0.999999
1
0.941698
0.713499
0.932646
0.999935
1
1
1
1
1
1
0.999999
0.919904
0.714973
0.71888
0.942024
0.987315
0.737387
0.870167
0.988123
0.861528
0.0160895
0.206617
0.966986
1
1
1
0.062772
5.9981e-12
0.726689
1
1
1
1
1
1
1
1
1
1
1
1
1
1
1
1
1
1
1
1
1
1
1
1
1
1
1
1
1
1
1
1
1
1
1
1
1
1
1
1
1
1
1
1
0.998207
0.884976
0.852643
0.970525
0.998778
1
0.999404
0.0968137
1
0.996617
0.943851
0.990758
0.97364
-1.70415e-21
0.00337853
1
1
1
1
1
1
1
1
1
1
1
1
1
1
1
1
1
1
1
1
1
1
1
1
1
1
1
1
1
1
1
1
1
1
1
1
1
1
1
1
1
1
1
0.968495
0.957792
0.921935
1
0.968496
0.906251
0.997793
0.735103
0.848773
1
0.999993
0.95289
0.986058
0.914893
0.883601
-3.35975e-22
0.738877
1
1
1
1
1
1
1
1
1
1
1
1
1
1
1
1
1
1
1
1
1
1
1
1
1
1
1
1
1
1
1
1
1
1
1
1
1
1
0.956557
0.715695
0.731224
0.562156
0.190226
0.760554
0.978961
1
0.999918
1
0.991924
0.992735
0.725657
0.90895
1
1
0.864095
0.983809
0.92297
0.388198
1.00427e-23
0.992342
1
1
1
1
1
1
1
1
1
0.998858
0.997759
0.999346
0.999811
0.985962
0.945282
0.86656
0.779035
0.624963
0.590785
0.57313
0.567832
0.565498
0.651335
0.845333
0.859706
0.860041
0.867983
0.863521
0.892627
0.940863
0.924791
0.875721
0.837484
0.792919
0.697471
0.540382
0.00432246
1.93736e-35
-2.88056e-36
1.54415e-16
1.75609e-15
2.87375e-16
3.57706e-14
0.760554
0.808326
0.999999
0.999657
0.994223
1
1
1
1
1
0.996342
0.928752
0.986745
0.998627
0.0929956
0.206794
1
1
1
1
1
1
0.985979
0.548057
0.113479
0
-2.38648e-20
-2.13522e-20
3.93575e-05
1.81699e-20
-1.73763e-21
8.7229e-22
1.03834e-21
-7.45361e-22
-2.89838e-22
-2.10726e-22
-3.13156e-22
-1.0235e-21
-1.66014e-22
-2.20958e-21
-5.70313e-21
1.78779e-21
-1.15898e-21
-1.03315e-21
-4.0123e-21
-8.05112e-21
-1.31808e-20
-2.68319e-20
-7.06523e-20
-1.72052e-19
-2.89719e-19
-2.79158e-19
2.01431e-19
1.66977e-17
3.82669e-16
5.60127e-15
6.90992e-14
6.2641e-13
4.11215e-12
1.11783e-27
0.922179
0.722056
0.999887
0.949539
0.913383
0.985628
0.810462
0.926204
0.99999
0.999643
0.99996
0.804815
0.945715
0.999929
-1.82077e-19
0.814383
1
1
1
1
1
0.680187
1.70565e-19
-1.5512e-20
-1.6941e-20
-2.3644e-20
-3.00972e-20
-3.23937e-20
-2.67886e-20
-1.93459e-20
-1.51139e-20
-1.40614e-20
-1.4722e-20
-1.58206e-20
-1.65613e-20
-1.66762e-20
-1.63051e-20
-1.57506e-20
-1.52573e-20
-1.49548e-20
-1.48519e-20
-1.48207e-20
-1.4643e-20
-1.41183e-20
-1.32445e-20
-1.21866e-20
-1.10961e-20
-9.98477e-21
-8.61402e-21
-6.04122e-21
5.08838e-22
2.00358e-19
5.91032e-18
1.22632e-16
1.87777e-15
2.15173e-14
1.82985e-13
1.23823e-12
1.6322e-11
4.49037e-11
0.703097
1
0.999586
0.992861
1
0.953933
0.986997
0.996304
0.999994
0.999989
0.81894
0.900596
0.999929
0.79479
4.02115e-19
1
1
1
1
1
0.597019
-2.01818e-20
-7.96953e-21
-9.28425e-21
-9.77438e-21
-9.89163e-21
-9.43477e-21
-8.57181e-21
-7.67957e-21
-7.0785e-21
-6.92362e-21
-7.0943e-21
-7.4127e-21
-7.69588e-21
-7.83519e-21
-7.86306e-21
-7.89154e-21
-7.97871e-21
-8.05826e-21
-8.01046e-21
-7.77063e-21
-7.35766e-21
-6.84133e-21
-6.32281e-21
-5.86811e-21
-5.5036e-21
-5.22448e-21
-5.00643e-21
-4.81981e-21
-4.61461e-21
-4.27606e-21
-3.69787e-21
-2.81527e-21
-1.50156e-21
3.42687e-22
1.61788e-20
8.09539e-20
1.65881e-19
9.599e-22
-1.92717e-22
0.673807
1
0.96896
0.996576
1
0.997764
1
0.977629
0.989218
0.999501
0.940561
0.997025
1
0.20348
0.466383
1
1
1
1
0.914825
-1.54337e-19
-1.088e-20
-1.37298e-20
-1.0777e-20
-8.52064e-21
-7.21247e-21
-6.18247e-21
-5.31253e-21
-4.63005e-21
-4.1704e-21
-3.92422e-21
-3.82352e-21
-3.81808e-21
-3.87119e-21
-3.94753e-21
-4.03242e-21
-4.13237e-21
-4.23915e-21
-4.31222e-21
-4.3162e-21
-4.25481e-21
-4.15487e-21
-4.03374e-21
-3.89009e-21
-3.71251e-21
-3.50083e-21
-3.26465e-21
-3.01734e-21
-2.77135e-21
-2.52991e-21
-2.28333e-21
-2.0508e-21
-1.87823e-21
-1.77872e-21
-1.75177e-21
-1.80089e-21
-1.92374e-21
-2.1195e-21
-2.38032e-21
-2.68568e-21
0.842317
1
0.90034
0.999995
0.991805
0.971583
0.977928
0.764402
0.711345
1
1
0.999071
1
8.31011e-18
0.966992
1
1
1
1
0.0584143
-1.6547e-20
-1.09863e-20
-9.12371e-21
-6.5785e-21
-4.84183e-21
-3.83795e-21
-3.13832e-21
-2.62486e-21
-2.28832e-21
-2.11113e-21
-2.05708e-21
-2.08755e-21
-2.16253e-21
-2.26339e-21
-2.37627e-21
-2.49522e-21
-2.61901e-21
-2.73763e-21
-2.82951e-21
-2.87237e-21
-2.84907e-21
-2.74676e-21
-2.56538e-21
-2.31775e-21
-2.03012e-21
-1.73567e-21
-1.46222e-21
-1.22654e-21
-1.0348e-21
-8.85248e-22
-7.73315e-22
-7.00561e-22
-6.70436e-22
-6.79512e-22
-7.23117e-22
-7.98842e-22
-9.04887e-22
-1.04014e-21
-1.20106e-21
-1.3804e-21
0.594978
0.996489
1
0.9999
0.99796
0.998985
0.886103
0.885636
0.993893
1
0.980063
1
0.583977
0.155251
1
1
1
1
0.613036
1.18052e-21
-1.35015e-20
-9.79205e-21
-6.03545e-21
-3.87974e-21
-2.68096e-21
-2.01457e-21
-1.58323e-21
-1.29454e-21
-1.12446e-21
-1.05196e-21
-1.05351e-21
-1.11271e-21
-1.21177e-21
-1.33543e-21
-1.46877e-21
-1.59665e-21
-1.70388e-21
-1.77164e-21
-1.77826e-21
-1.70668e-21
-1.55488e-21
-1.34282e-21
-1.10414e-21
-8.6917e-22
-6.62916e-22
-4.98406e-22
-3.77127e-22
-2.93589e-22
-2.39773e-22
-2.07959e-22
-1.92187e-22
-1.89043e-22
-1.96757e-22
-2.13932e-22
-2.39813e-22
-2.74396e-22
-3.17934e-22
-3.70655e-22
-4.32083e-22
-5.01256e-22
0.594978
0.983048
0.999571
0.999988
0.974803
0.999992
1
1
0.956002
0.925119
0.999696
1
0.0406233
0.902747
1
1
1
1
0.00744903
-8.24108e-21
-9.30156e-21
-5.16052e-21
-3.1944e-21
-2.07098e-21
-1.39701e-21
-9.8277e-22
-7.16054e-22
-5.55038e-22
-4.75409e-22
-4.57553e-22
-4.86857e-22
-5.51747e-22
-6.4328e-22
-7.41628e-22
-8.288e-22
-8.86545e-22
-8.99699e-22
-8.58951e-22
-7.6513e-22
-6.33088e-22
-4.88054e-22
-3.54683e-22
-2.44965e-22
-1.63634e-22
-1.08439e-22
-7.36104e-23
-5.2957e-23
-4.14577e-23
-3.56252e-23
-3.32592e-23
-3.3106e-23
-3.45831e-23
-3.75012e-23
-4.18327e-23
-4.76568e-23
-5.51431e-23
-6.44995e-23
-7.59188e-23
-8.95043e-23
-1.0536e-22
0.785122
0.843894
0.994436
0.943904
0.972847
0.982092
0.91006
0.987569
0.991281
0.997114
0.999967
1
-5.07312e-19
1
1
1
1
0.603291
-2.6319e-20
-4.80443e-21
-4.0059e-21
-2.61863e-21
-1.64785e-21
-1.02033e-21
-6.30877e-22
-3.93958e-22
-2.5757e-22
-1.88701e-22
-1.6406e-22
-1.68854e-22
-1.93718e-22
-2.30667e-22
-2.70554e-22
-3.03832e-22
-3.17125e-22
-3.04264e-22
-2.66529e-22
-2.12553e-22
-1.5453e-22
-1.03377e-22
-6.48436e-23
-3.8509e-23
-2.21562e-23
-1.27593e-23
-7.66982e-24
-5.03212e-24
-3.71665e-24
-3.09614e-24
-2.84283e-24
-2.79368e-24
-2.87405e-24
-3.05869e-24
-3.34845e-24
-3.7562e-24
-4.30337e-24
-5.01895e-24
-5.93667e-24
-7.09029e-24
-8.50865e-24
-1.02163e-23
0.846328
0.626091
0.996175
0.431283
1
0.985932
0.964841
0.955854
1
1
0.999885
0.266538
0.72395
1
1
1
1
0.0431379
-9.96254e-21
-5.23326e-21
-2.81978e-21
-1.53156e-21
-8.40579e-22
-4.49405e-22
-2.32748e-22
-1.20928e-22
-6.88244e-23
-4.81339e-23
-4.3186e-23
-4.6138e-23
-5.26327e-23
-5.92229e-23
-6.26417e-23
-6.05116e-23
-5.3091e-23
-4.14774e-23
-2.87278e-23
-1.77784e-23
-1.00769e-23
-5.31531e-24
-2.64727e-24
-1.27856e-24
-6.21542e-25
-3.19855e-25
-1.84711e-25
-1.2481e-25
-9.85511e-26
-8.75897e-26
-8.40076e-26
-8.4524e-26
-8.80001e-26
-9.43955e-26
-1.04284e-25
-1.18651e-25
-1.38865e-25
-1.66698e-25
-2.0436e-25
-2.54521e-25
-3.20279e-25
-4.04899e-25
0.916297
0.635699
0.978985
0.689372
0.999157
0.866432
0.810324
0.948009
1
0.996437
1
-1.01912e-19
0.995338
1
1
1
0.891344
-1.45624e-19
-9.67903e-21
-4.12698e-21
-1.83454e-21
-8.52417e-22
-3.86044e-22
-1.61672e-22
-6.35523e-23
-2.54328e-23
-1.22106e-23
-8.08888e-24
-7.00553e-24
-6.8001e-24
-6.61501e-24
-6.05201e-24
-5.01848e-24
-3.69527e-24
-2.39661e-24
-1.37187e-24
-6.99799e-25
-3.2286e-25
-1.37261e-25
-5.49769e-26
-2.13216e-26
-8.31041e-27
-3.44365e-27
-1.64617e-27
-9.8273e-28
-7.40341e-28
-6.59354e-28
-6.46019e-28
-6.68429e-28
-7.19284e-28
-8.02751e-28
-9.30194e-28
-1.11978e-27
-1.39773e-27
-1.80141e-27
-2.38432e-27
-3.22415e-27
-4.43584e-27
-6.18956e-27
-8.71126e-27
0.916293
0.812402
0.712532
1
0.999927
0.99434
0.99993
0.847743
0.95676
0.999327
0.997216
-7.5879e-19
1
1
1
1
0.14905
-3.12413e-20
-6.17128e-21
-2.68778e-21
-1.08701e-21
-4.19434e-22
-1.44132e-22
-4.23319e-23
-1.11059e-23
-3.07327e-24
-1.17977e-24
-6.68901e-25
-4.5882e-25
-3.23818e-25
-2.17181e-25
-1.3276e-25
-7.23172e-26
-3.47856e-26
-1.4792e-26
-5.61039e-27
-1.92654e-27
-6.1066e-28
-1.8311e-28
-5.36729e-29
-1.6201e-29
-5.54767e-30
-2.51698e-30
-1.68415e-30
-1.5332e-30
-1.63277e-30
-1.85844e-30
-2.18017e-30
-2.604e-30
-3.15624e-30
-3.88198e-30
-4.84936e-30
-6.15572e-30
-7.9388e-30
-1.03954e-29
-1.38148e-29
-1.86464e-29
-2.56322e-29
-3.60789e-29
-5.22637e-29
0.881888
0.547224
0.434771
1
0.96057
0.993144
1
1
0.979071
1
0.525056
0.522942
1
1
1
1
-7.07772e-19
-7.32804e-21
-3.54185e-21
-1.62565e-21
-5.83225e-22
-1.71165e-22
-3.95079e-23
-6.84775e-24
-9.61688e-25
-1.52791e-25
-3.93788e-26
-1.37948e-26
-5.08155e-27
-1.79045e-27
-5.85013e-28
-1.75296e-28
-4.80365e-29
-1.20573e-29
-2.79021e-30
-6.04367e-31
-1.26935e-31
-2.85141e-32
-8.68744e-33
-4.50502e-33
-3.47519e-33
-3.17577e-33
-3.12414e-33
-3.2152e-33
-3.42557e-33
-3.75531e-33
-4.21499e-33
-4.82208e-33
-5.5998e-33
-6.57801e-33
-7.79488e-33
-9.30269e-33
-1.11751e-32
-1.35176e-32
-1.64859e-32
-2.03111e-32
-2.53381e-32
-3.20677e-32
-4.11704e-32
-5.33566e-32
0.273595
0.676422
0.326696
1
0.792669
1
1
1
1
1
-2.15997e-38
0.86807
1
1
1
0.519803
2.55117e-21
-4.01175e-21
-2.25785e-21
-9.22564e-22
-2.65517e-22
-5.31246e-23
-6.76943e-24
-4.93504e-25
-2.24953e-26
-1.21857e-27
-9.16732e-29
-5.74354e-30
-3.45438e-31
-2.37057e-32
-1.88951e-33
-1.7467e-34
-2.21918e-35
-6.18763e-36
-3.52081e-36
-2.5283e-36
-1.94146e-36
-1.55115e-36
-1.28488e-36
-1.10259e-36
-9.78769e-37
-8.96972e-37
-8.45954e-37
-8.18296e-37
-8.08821e-37
-8.13665e-37
-8.2995e-37
-8.55117e-37
-8.87281e-37
-9.24963e-37
-9.67653e-37
-1.01581e-36
-1.07153e-36
-1.13837e-36
-1.22245e-36
-1.33271e-36
-1.48221e-36
-1.68877e-36
-1.97342e-36
-2.34341e-36
0.273595
0.799929
0.326696
0.998998
0.932321
0.998508
0.729713
0.437675
0.540803
0.0237866
-6.4378e-39
0.988663
1
1
1
0.0865286
-2.16113e-21
-3.30131e-21
-1.50674e-21
-4.78554e-22
-9.72496e-23
-1.08971e-23
-5.10376e-25
-5.64705e-27
-1.30523e-29
-2.60455e-31
-4.68876e-34
-8.8318e-39
-1.93192e-39
-5.53486e-40
-1.96584e-40
-7.87428e-41
-4.07583e-41
-2.47513e-41
-1.60025e-41
-1.07526e-41
-7.45476e-42
-5.32299e-42
-3.91553e-42
-2.97003e-42
-2.32203e-42
-1.86836e-42
-1.54467e-42
-1.31025e-42
-1.13878e-42
-1.01365e-42
-9.2481e-43
-8.67125e-43
-8.39381e-43
-8.43936e-43
-8.87184e-43
-9.80743e-43
-1.14509e-42
-1.41631e-42
-1.86082e-42
-2.60709e-42
-3.91824e-42
-6.36511e-42
-1.12327e-41
-2.13162e-41
0.308125
0.955475
0.768777
0.999309
0.899016
0.0278038
6.59699e-15
6.597e-15
2.80142e-15
2.79275e-15
-6.06183e-34
1
1
1
1
-5.31897e-20
-4.6151e-21
-2.36008e-21
-9.1178e-22
-2.12997e-22
-2.56686e-23
-1.0766e-24
-3.92971e-27
-1.38072e-30
-4.01541e-33
-6.7451e-41
-2.77089e-42
-8.85238e-44
-2.26903e-45
-7.29396e-47
-5.59418e-48
-2.07499e-48
-1.79994e-48
-1.86758e-48
-2.05446e-48
-2.35422e-48
-2.77961e-48
-3.33336e-48
-4.06104e-48
-5.03609e-48
-6.36825e-48
-8.20743e-48
-1.07081e-47
-1.40944e-47
-1.8654e-47
-2.47213e-47
-3.27003e-47
-4.30682e-47
-5.64432e-47
-7.37195e-47
-9.62825e-47
-1.26472e-46
-1.68474e-46
-2.30041e-46
-3.26394e-46
-4.89349e-46
-7.90739e-46
-1.40668e-45
-2.80087e-45
-6.18793e-45
0.954323
0.955475
0.266535
0.999309
0.0158375
1.81378e-13
7.17312e-14
4.96232e-14
9.31019e-27
2.25251e-08
0.243572
1
1
1
0.64501
3.54551e-21
-4.03302e-21
-1.69156e-21
-5.0299e-22
-7.57721e-23
-3.85549e-24
-1.37367e-26
-4.10907e-31
-1.41222e-34
-9.12243e-43
-1.04487e-44
-4.79104e-47
-2.77645e-49
-4.60066e-52
-2.40655e-52
-1.74946e-52
-1.4171e-52
-1.25059e-52
-1.17854e-52
-1.1725e-52
-1.21946e-52
-1.32154e-52
-1.48517e-52
-1.73371e-52
-2.09811e-52
-2.60548e-52
-3.28577e-52
-4.20322e-52
-5.4357e-52
-7.06774e-52
-9.1569e-52
-1.17804e-51
-1.50545e-51
-1.91481e-51
-2.43552e-51
-3.12044e-51
-4.06871e-51
-5.4712e-51
-7.71973e-51
-1.1681e-50
-1.94858e-50
-3.708e-50
-8.38068e-50
-2.33512e-49
-8.00527e-49
0.446315
0.265027
0.607638
0.212153
2.15378e-12
8.74356e-13
3.66239e-13
4.01659e-14
1.08875e-06
9.16447e-07
0.71291
1
1
1
0.194388
-2.83146e-20
-3.34992e-21
-1.14503e-21
-2.42607e-22
-1.83756e-23
-1.45795e-25
-3.4292e-31
-1.60367e-34
-7.94042e-44
-3.73531e-46
-9.02695e-49
-1.16846e-52
-9.95038e-56
-2.72865e-56
-1.06511e-56
-6.23229e-57
-5.09082e-57
-5.14585e-57
-5.85415e-57
-7.10618e-57
-8.94573e-57
-1.15034e-56
-1.50143e-56
-1.99918e-56
-2.72277e-56
-3.79063e-56
-5.39184e-56
-7.85173e-56
-1.15792e-55
-1.67999e-55
-2.39225e-55
-3.34589e-55
-4.61664e-55
-6.3045e-55
-8.60743e-55
-1.19091e-54
-1.69838e-54
-2.54773e-54
-4.12828e-54
-7.47453e-54
-1.57989e-53
-4.12785e-53
-1.43264e-52
-7.08655e-52
-4.94179e-51
0.152371
0.52056
0.205346
0.00256335
2.81838e-12
2.68573e-12
1.09165e-12
4.30555e-14
8.88008e-05
-4.48815e-24
0.977668
1
1
1
0.00647616
-2.81407e-21
-2.15692e-21
-7.24002e-22
-9.35868e-23
-2.03439e-24
-9.3481e-31
-6.15942e-34
-3.40136e-44
-9.69255e-47
-1.11071e-49
-8.63417e-54
-2.03325e-58
-1.78353e-59
-3.23368e-60
-2.27219e-60
-2.53112e-60
-3.02942e-60
-3.7086e-60
-4.61231e-60
-5.80953e-60
-7.37991e-60
-9.44554e-60
-1.2197e-59
-1.58355e-59
-2.06247e-59
-2.69675e-59
-3.5563e-59
-4.73624e-59
-6.34439e-59
-8.47433e-59
-1.12484e-58
-1.48531e-58
-1.94648e-58
-2.54099e-58
-3.38273e-58
-4.68687e-58
-6.88737e-58
-1.10558e-57
-2.01507e-57
-4.38385e-57
-1.21728e-56
-4.72128e-56
-2.8723e-55
-3.0459e-54
-5.18083e-53
0.00020756
3.6224e-06
0.000600266
1.46513e-21
1.56035e-11
6.90065e-12
1.23119e-12
4.35804e-05
0.000199442
8.16669e-20
1
1
1
1
-6.67399e-20
-3.65245e-21
-1.78056e-21
-4.14262e-22
-2.42548e-23
-1.60998e-27
-4.58679e-33
-6.05704e-41
-1.47654e-46
-1.00911e-49
-7.37001e-54
-4.99542e-60
-1.50366e-61
-5.27689e-63
-1.00381e-63
-9.22863e-64
-9.95451e-64
-1.10241e-63
-1.24511e-63
-1.42958e-63
-1.66208e-63
-1.95145e-63
-2.31451e-63
-2.76649e-63
-3.31686e-63
-3.98987e-63
-4.8089e-63
-5.78232e-63
-6.92063e-63
-8.26081e-63
-9.90667e-63
-1.19712e-62
-1.45918e-62
-1.81118e-62
-2.33614e-62
-3.20158e-62
-4.84527e-62
-8.30621e-62
-1.66517e-61
-4.03611e-61
-1.20747e-60
-4.88945e-60
-3.19964e-59
-4.08633e-58
-1.09006e-56
-4.64425e-55
0.000795961
0.0313469
1.34682e-21
1.34323e-21
4.25826e-11
1.49343e-11
7.98737e-13
0.00100715
-1.91784e-22
0.61564
1
1
1
0.483842
-3.96733e-22
-3.32271e-21
-1.29086e-21
-1.93085e-22
-2.48365e-24
-1.48543e-31
-2.22395e-36
-1.31705e-45
-4.5778e-49
-3.02598e-53
-2.42243e-59
-1.08383e-60
-4.69093e-62
-1.8984e-63
-7.12712e-65
-2.5465e-66
-1.57415e-67
-7.74354e-68
-7.4121e-68
-7.54517e-68
-7.87387e-68
-8.36914e-68
-9.01908e-68
-9.79795e-68
-1.06951e-67
-1.17275e-67
-1.28608e-67
-1.40619e-67
-1.54521e-67
-1.76646e-67
-2.50832e-67
-6.61778e-67
-3.07029e-66
-1.61259e-65
-8.01689e-65
-3.64566e-64
-1.51277e-63
-5.74619e-63
-2.0039e-62
-6.43131e-62
-1.90382e-61
-5.23266e-61
-1.33037e-60
-3.31458e-60
-2.0314e-59
-1.15406e-57
0.000136831
0.029167
1.40524e-14
1.9935e-09
1.45085e-07
8.34205e-23
0.000937877
0.000356888
6.29539e-22
0.966769
1
1
1
0.113827
-1.04516e-20
-2.69276e-21
-8.30294e-22
-6.59439e-23
-8.42374e-27
-9.58925e-34
-4.39677e-42
-4.67466e-46
-1.23285e-50
-3.55472e-56
-1.74503e-59
-7.87775e-61
-3.3312e-62
-1.31038e-63
-4.77525e-65
-1.60695e-66
-4.9643e-68
-1.40001e-69
-3.6102e-71
-1.06358e-72
-2.2162e-73
-1.85771e-73
-1.74313e-73
-1.74072e-73
-2.29568e-73
-6.98466e-73
-4.40524e-72
-3.36688e-71
-2.64534e-70
-2.07099e-69
-1.58425e-68
-1.17176e-67
-8.23474e-67
-5.32391e-66
-3.0869e-65
-1.59754e-64
-7.40423e-64
-3.08852e-63
-1.16706e-62
-4.01568e-62
-1.26283e-61
-3.64038e-61
-9.61727e-61
-2.32027e-60
-5.08831e-60
-1.01372e-59
0.00123021
0.012326
-3.78899e-33
-1.44019e-24
1.06889e-07
1.85269e-06
0.00100716
5.07858e-06
0.0308007
1
1
1
1
-3.98974e-19
-3.94906e-21
-2.1677e-21
-4.83215e-22
-1.17498e-23
-2.29294e-29
-1.95784e-36
-1.02546e-41
-1.03393e-45
-2.5258e-50
-7.55263e-56
-1.27448e-59
-5.60871e-61
-2.31271e-62
-8.8648e-64
-3.14834e-65
-1.03298e-66
-3.11801e-68
-8.61981e-70
-2.17251e-71
-4.97446e-73
-1.03138e-74
-2.1709e-76
-1.71466e-76
-1.23593e-75
-9.52472e-75
-7.58881e-74
-6.16589e-73
-5.06032e-72
-4.16387e-71
-3.39771e-70
-2.7263e-69
-2.12876e-68
-1.5959e-67
-1.13436e-66
-7.43545e-66
-4.36952e-65
-2.27741e-64
-1.05376e-63
-4.34696e-63
-1.60934e-62
-5.37309e-62
-1.62188e-61
-4.41718e-61
-1.07659e-60
-2.29807e-60
-4.02355e-60
0.00126089
-1.67735e-26
2.18984e-05
6.12337e-05
-2.14007e-27
4.87952e-06
3.3314e-06
2.77597e-07
0.796911
1
1
1
0.885905
-2.22843e-20
-3.57799e-21
-1.63564e-21
-2.35118e-22
-3.834e-25
-4.60927e-33
-7.22046e-38
-2.2832e-41
-2.34794e-45
-5.77923e-50
-1.74055e-55
-9.05095e-60
-3.88348e-61
-1.56275e-62
-5.84887e-64
-2.02843e-65
-6.50194e-67
-1.91943e-68
-5.20038e-70
-1.2888e-71
-2.91223e-73
-5.98302e-75
-1.13397e-76
-1.73628e-77
-1.18854e-76
-9.52007e-76
-7.85515e-75
-6.59414e-74
-5.5963e-73
-4.74899e-72
-3.99656e-71
-3.31247e-70
-2.67796e-69
-2.09106e-68
-1.55887e-67
-1.09564e-66
-7.09442e-66
-4.1161e-65
-2.10816e-64
-9.5105e-64
-3.78582e-63
-1.33476e-62
-4.16463e-62
-1.14265e-61
-2.70908e-61
-5.36044e-61
-8.26156e-61
0.00087445
7.39078e-28
3.5736e-06
4.5721e-05
-2.24254e-25
5.023e-24
1.20289e-05
6.5301e-20
1
1
1
1
0.253294
-1.45809e-21
-3.24824e-21
-1.14809e-21
-8.26668e-23
-4.78378e-27
-2.43055e-34
-1.32137e-37
-4.51368e-41
-4.80527e-45
-1.20854e-49
-3.70917e-55
-6.23602e-60
-2.6106e-61
-1.02606e-62
-3.74966e-64
-1.27085e-65
-3.98489e-67
-1.15263e-68
-3.0654e-70
-7.46856e-72
-1.66325e-73
-3.37827e-75
-6.25132e-77
-2.10436e-78
-8.39335e-78
-6.89119e-77
-5.82075e-76
-5.00321e-75
-4.33503e-74
-3.75178e-73
-3.21909e-72
-2.71721e-71
-2.2353e-70
-1.77716e-69
-1.35348e-68
-9.75881e-68
-6.57303e-67
-4.06177e-66
-2.24606e-65
-1.09091e-64
-4.62357e-64
-1.70398e-63
-5.43807e-63
-1.48686e-62
-3.40996e-62
-6.31549e-62
-8.91644e-62
0.00359428
0.0227917
0.00268979
5.67395e-05
0.00218486
-1.71765e-23
1.30594e-06
0.601032
1
1
1
1
0.00563418
-2.74108e-21
-2.44488e-21
-6.98169e-22
-1.41271e-23
-6.24014e-30
-2.39187e-34
-2.15604e-37
-7.72519e-41
-8.497e-45
-2.18862e-49
-6.86774e-55
-4.15543e-60
-1.69809e-61
-6.52814e-63
-2.33216e-64
-7.72592e-66
-2.37017e-67
-6.71851e-69
-1.75486e-70
-4.20923e-72
-9.24685e-74
-1.85646e-75
-3.3976e-77
-6.16516e-79
-4.25707e-79
-3.47322e-78
-2.96501e-77
-2.57153e-76
-2.2429e-75
-1.95277e-74
-1.6826e-73
-1.42293e-72
-1.1694e-71
-9.27763e-71
-7.02906e-70
-5.04045e-69
-3.37997e-68
-2.0875e-67
-1.17016e-66
-5.8346e-66
-2.538e-65
-9.48967e-65
-3.01401e-64
-8.02258e-64
-1.75172e-63
-3.04751e-63
-4.14326e-63
0.001431
0.0227906
0.00287351
0.00674656
0.000607141
6.27941e-06
4.17967e-07
1
1
1
1
0.956756
-9.12537e-20
-3.31221e-21
-1.89658e-21
-3.46961e-22
-5.73838e-25
-1.80963e-31
-3.10624e-34
-3.0082e-37
-1.12327e-40
-1.27113e-44
-3.34558e-49
-1.07403e-54
-2.67677e-60
-1.06517e-61
-4.01081e-63
-1.40327e-64
-4.55159e-66
-1.36667e-67
-3.7955e-69
-9.73015e-71
-2.29632e-72
-4.97932e-74
-9.88801e-76
-1.7927e-77
-2.9756e-79
-1.84863e-80
-1.1675e-79
-9.92182e-79
-8.54609e-78
-7.38755e-77
-6.35625e-76
-5.40153e-75
-4.49102e-74
-3.62027e-73
-2.80149e-72
-2.06366e-71
-1.43055e-70
-9.22855e-70
-5.46631e-69
-2.92303e-68
-1.39051e-67
-5.78429e-67
-2.06355e-66
-6.19223e-66
-1.53833e-65
-3.12731e-65
-5.22052e-65
-7.34614e-65
0.0121855
0.0170801
0.00332597
0.0114615
1.93385e-06
5.20156e-07
0.515906
1
1
1
1
0.258525
-5.90508e-21
-3.43214e-21
-1.2995e-21
-1.21086e-22
-5.7983e-27
-1.73449e-31
-3.50902e-34
-3.51153e-37
-1.35499e-40
-1.57066e-44
-4.21727e-49
-1.38736e-54
-1.66707e-60
-6.42349e-62
-2.37086e-63
-8.13225e-65
-2.58649e-66
-7.61602e-68
-2.07463e-69
-5.21946e-71
-1.21115e-72
-2.58834e-74
-5.08032e-76
-9.12749e-78
-1.49599e-79
-2.53904e-81
-2.54804e-81
-2.09198e-80
-1.75895e-79
-1.48111e-78
-1.23697e-77
-1.01657e-76
-8.14038e-76
-6.29384e-75
-4.65137e-74
-3.25431e-73
-2.13081e-72
-1.28927e-71
-7.11505e-71
-3.53371e-70
-1.55581e-69
-5.97496e-69
-1.978e-68
-5.59786e-68
-1.35314e-67
-2.80542e-67
-4.92247e-67
-6.92697e-67
0.012323
0.0100922
5.69127e-05
7.95412e-07
5.34688e-06
8.44917e-18
1
1
1
1
1
-1.14515e-19
-3.19562e-21
-2.61715e-21
-7.71653e-22
-1.8815e-23
-6.34976e-29
-1.6643e-31
-3.3361e-34
-3.37224e-37
-1.32882e-40
-1.56765e-44
-4.28278e-49
-1.44722e-54
-1.00567e-60
-3.71335e-62
-1.34463e-63
-4.52494e-65
-1.41181e-66
-4.08024e-68
-1.0915e-69
-2.69889e-71
-6.15906e-73
-1.29631e-74
-2.51142e-76
-4.46506e-78
-7.25993e-80
-1.08007e-81
-4.87878e-83
-2.71472e-82
-2.18226e-81
-1.75594e-80
-1.39908e-79
-1.09227e-78
-8.27401e-78
-6.02809e-77
-4.17528e-76
-2.72441e-75
-1.65467e-74
-9.24287e-74
-4.69916e-73
-2.14656e-72
-8.72051e-72
-3.12607e-71
-9.8265e-71
-2.70366e-70
-6.49012e-70
-1.34234e-69
-2.32039e-69
-3.19765e-69
8.10959e-08
9.62023e-22
-1.52319e-26
2.72725e-06
6.1377e-19
0.766554
1
1
1
1
0.738214
1.32263e-20
-3.37313e-21
-2.00802e-21
-3.74098e-22
-7.13575e-25
-7.01199e-29
-1.71705e-31
-2.89318e-34
-2.70351e-37
-1.04347e-40
-1.23213e-44
-3.40834e-49
-1.18949e-54
-5.88796e-61
-2.05186e-62
-7.29708e-64
-2.41149e-65
-7.38442e-67
-2.09479e-68
-5.50327e-70
-1.33765e-71
-3.00426e-73
-6.22915e-75
-1.19081e-76
-2.09303e-78
-3.37137e-80
-4.96075e-82
-6.95051e-84
-2.29145e-84
-1.63994e-83
-1.23191e-82
-9.20649e-82
-6.73525e-81
-4.77362e-80
-3.23992e-79
-2.08776e-78
-1.26244e-77
-7.0956e-77
-3.66172e-76
-1.72056e-75
-7.29316e-75
-2.77419e-74
-9.41241e-74
-2.84666e-73
-7.65384e-73
-1.8161e-72
-3.71178e-72
-6.27167e-72
-8.39723e-72
1.07931e-07
3.09275e-07
1.30064e-07
1.65587e-07
0.194529
1
1
1
1
1
0.103925
-3.503e-21
-3.25295e-21
-1.34665e-21
-1.15899e-22
-3.85251e-26
-1.1544e-28
-2.69905e-31
-3.47637e-34
-2.37193e-37
-7.28459e-41
-7.65284e-45
-2.06287e-49
-7.50314e-55
-3.33173e-61
-1.08047e-62
-3.77595e-64
-1.22667e-65
-3.69141e-67
-1.02869e-68
-2.65448e-70
-6.34043e-72
-1.4009e-73
-2.86151e-75
-5.39698e-77
-9.3738e-79
-1.49457e-80
-2.1804e-82
-2.903e-84
-4.83677e-86
-8.37193e-86
-5.49031e-85
-3.69011e-84
-2.46846e-83
-1.61116e-82
-1.0117e-81
-6.03696e-81
-3.38936e-80
-1.77163e-79
-8.54263e-79
-3.77116e-78
-1.51373e-77
-5.50352e-77
-1.80691e-76
-5.34279e-76
-1.41429e-75
-3.30078e-75
-6.60344e-75
-1.08927e-74
-1.42872e-74
2.95127e-08
1.09998e-06
1.08396e-07
0.0209847
1
1
1
1
1
0.988202
3.14564e-20
-7.72032e-21
-2.76024e-21
-7.90065e-22
-1.54513e-23
-4.77345e-26
-2.32953e-28
-6.22395e-31
-7.87877e-34
-4.24139e-37
-8.14971e-41
-4.7298e-45
-9.41645e-50
-3.54723e-55
-1.79032e-61
-5.39643e-63
-1.85584e-64
-5.9305e-66
-1.75499e-67
-4.80846e-69
-1.21995e-70
-2.86544e-72
-6.2268e-74
-1.25222e-75
-2.32821e-77
-3.99354e-79
-6.29887e-81
-9.10537e-83
-1.20202e-84
-1.45255e-86
-5.72388e-88
-2.16321e-87
-1.18185e-86
-6.66197e-86
-3.78417e-85
-2.11814e-84
-1.148e-83
-5.9312e-83
-2.88703e-82
-1.31139e-81
-5.51207e-81
-2.13066e-80
-7.53667e-80
-2.42671e-79
-7.06597e-79
-1.83873e-78
-4.20059e-78
-8.19924e-78
-1.32007e-77
-1.70208e-77
8.46797e-08
9.58672e-07
0.0188582
1
1
1
1
1
1
0.154593
-2.87029e-22
-3.97076e-21
-2.02982e-21
-3.7375e-22
-5.96016e-24
-6.49703e-26
-4.18804e-28
-1.33526e-30
-1.89569e-33
-1.03828e-36
-1.65914e-40
-4.87909e-45
-3.68188e-50
-1.25522e-55
-8.92649e-62
-2.54325e-63
-8.62079e-65
-2.71471e-66
-7.91029e-68
-2.13307e-69
-5.32355e-71
-1.23018e-72
-2.63071e-74
-5.20933e-76
-9.54419e-78
-1.61444e-79
-2.51563e-81
-3.59826e-83
-4.70854e-85
-5.61456e-87
-6.31007e-89
-1.09136e-89
-4.73271e-89
-2.21547e-88
-1.05432e-87
-5.04406e-87
-2.39668e-86
-1.11315e-85
-4.98381e-85
-2.12438e-84
-8.51724e-84
-3.18368e-83
-1.09849e-82
-3.46367e-82
-9.87475e-82
-2.51015e-81
-5.58779e-81
-1.06244e-80
-1.67565e-80
-2.13464e-80
0.220658
0.174263
1
1
1
1
1
1
0.97364
6.62439e-20
-5.63873e-21
-3.70223e-21
-1.29822e-21
-1.51351e-22
-5.12341e-24
-7.0689e-26
-5.29145e-28
-1.91134e-30
-2.96367e-33
-1.67295e-36
-2.43898e-40
-4.99983e-45
-1.60021e-50
-3.45585e-56
-4.04921e-62
-1.12388e-63
-3.75869e-65
-1.16848e-66
-3.35823e-68
-8.92292e-70
-2.19363e-71
-4.98938e-73
-1.05055e-74
-2.04833e-76
-3.69798e-78
-6.16904e-80
-9.48904e-82
-1.34142e-83
-1.73655e-85
-2.05159e-87
-2.2047e-89
-2.45633e-91
-1.38845e-91
-6.06956e-91
-2.6792e-90
-1.17685e-89
-5.12071e-89
-2.19237e-88
-9.13646e-88
-3.67337e-87
-1.40556e-86
-5.06299e-86
-1.69683e-85
-5.22656e-85
-1.45996e-84
-3.64234e-84
-7.98406e-84
-1.50044e-83
-2.35246e-83
-2.98983e-83
1
1
1
1
1
1
1
1
1
1
1
1
1
1
1
1
1
1
1
1
1
1
1
1
1
1
1
1
1
1
1
1
1
1
1
1
1
1
1
1
1
1
1
1
1
1
1
1
1
1
1
1
1
1
1
1
1
1
1
1
1
1
1
1
1
1
1
1
1
1
1
1
1
1
1
1
1
1
1
1
1
1
1
1
1
1
1
1
1
1
1
1
1
1
1
1
1
1
1
1
1
1
1
1
1
1
1
1
1
1
1
1
1
1
1
1
1
1
1
1
1
1
1
1
1
1
1
1
1
1
1
1
1
1
1
1
1
1
1
1
1
1
1
1
1
1
1
1
1
1
1
1
1
1
1
1
1
1
1
1
1
1
1
1
1
1
1
1
1
1
1
1
1
1
1
1
1
1
1
1
1
1
1
1
1
1
1
1
1
1
1
1
1
1
1
1
1
1
1
1
1
1
1
1
1
1
1
1
1
1
1
1
1
1
1
1
1
1
1
1
1
1
1
1
1
1
1
1
1
1
1
1
1
1
1
1
1
1
1
1
1
1
1
1
1
1
1
1
1
1
1
1
1
1
0.99928
0.986518
0.94667
0.875015
0.768898
0.590335
-1.38161e-33
0.261491
0.26003
0.248801
0.231251
0.209069
0.183328
0.154669
0.124192
0.0927326
0.0612627
0.0310252
0.00043724
-1.74503e-22
-1.1746e-22
-4.65382e-23
-1.48323e-23
-9.36338e-24
-1.37304e-23
-3.51538e-25
-8.7138e-34
-1.99323e-34
-3.3452e-34
-6.24454e-34
-1.05472e-33
-1.4963e-33
-1.97753e-33
-2.47318e-33
-2.94853e-33
-3.36564e-33
-3.70708e-33
-4.10265e-33
-1.12937e-24
-8.05205e-25
-1.46261e-25
-2.03468e-26
-2.99494e-27
-2.69236e-28
-1.11757e-29
-4.5633e-31
-8.20345e-34
-5.27143e-35
-4.2022e-36
-1.15773e-35
-3.34491e-35
-6.40153e-35
-1.00579e-34
-1.37703e-34
-1.69539e-34
-1.91745e-34
-2.03958e-34
-2.15147e-34
-2.70103e-34
-4.1309e-34
-5.0845e-34
-4.95277e-34
-3.73638e-34
-2.17277e-34
-1.02642e-34
-4.73338e-35
-6.50087e-34
-8.55417e-36
-5.91023e-38
-1.76378e-37
-5.16605e-37
-1.21018e-36
-2.20993e-36
-3.34312e-36
-4.38535e-36
-5.15137e-36
-5.58902e-36
-5.83672e-36
-6.27531e-36
-6.99716e-36
-6.85791e-36
-5.48131e-36
-3.52941e-36
-1.85519e-36
-8.27305e-37
-3.30891e-37
-2.72052e-34
-7.86263e-38
-1.21186e-39
-3.73584e-39
-1.14986e-38
-2.84801e-38
-5.60955e-38
-8.82944e-38
-1.16457e-37
-1.34184e-37
-1.39363e-37
-1.34025e-37
-1.21714e-37
-1.03778e-37
-7.91076e-38
-5.17637e-38
-2.86651e-38
-1.34844e-38
-5.48054e-39
-1.97086e-39
-8.78657e-35
-2.84239e-38
-3.43206e-40
-8.06978e-41
-2.73835e-40
-7.05253e-40
-1.39955e-39
-2.18177e-39
-2.77656e-39
-3.02739e-39
-2.91826e-39
-2.53422e-39
-1.99868e-39
-1.42578e-39
-9.0565e-40
-5.0414e-40
-2.43972e-40
-1.02697e-40
-3.78695e-41
-1.23602e-41
-2.19493e-35
-4.05139e-38
-3.66995e-40
-4.02754e-42
-5.76596e-42
-1.53406e-41
-2.98419e-41
-4.44807e-41
-5.33993e-41
-5.44501e-41
-4.8608e-41
-3.84682e-41
-2.70688e-41
-1.6897e-41
-9.30898e-42
-4.503e-42
-1.90697e-42
-7.07359e-43
-2.30751e-43
-6.66309e-44
-1.69887e-36
-1.79685e-38
-1.45232e-40
-8.56499e-43
-1.00314e-43
-2.56121e-43
-4.78748e-43
-6.68388e-43
-7.49161e-43
-7.15183e-43
-5.95796e-43
-4.34121e-43
-2.75632e-43
-1.5212e-43
-7.29705e-44
-3.04686e-44
-1.11018e-44
-3.54315e-45
-9.95683e-46
-2.48006e-46
-3.66293e-39
-7.68887e-40
-7.09452e-42
-3.96741e-44
-1.28149e-45
-2.84288e-45
-4.96247e-45
-6.41369e-45
-6.70827e-45
-6.04214e-45
-4.73106e-45
-3.17589e-45
-1.8077e-45
-8.71641e-46
-3.58312e-46
-1.26747e-46
-3.89524e-47
-1.04944e-47
-2.49959e-48
-5.3059e-49
-7.08657e-44
-4.50248e-43
-5.80001e-45
-3.62352e-47
-7.57451e-48
-1.64981e-47
-2.63562e-47
-3.14123e-47
-3.09156e-47
-2.65596e-47
-1.95787e-47
-1.19742e-47
-5.98599e-48
-2.46054e-48
-8.46592e-49
-2.48964e-49
-6.37129e-50
-1.43715e-50
-2.88154e-51
-5.16947e-52
-3.05192e-49
-3.44632e-48
-4.01284e-50
-6.43743e-51
-1.54924e-50
-3.00374e-50
-4.39683e-50
-4.87986e-50
-4.59702e-50
-3.80946e-50
-2.62756e-50
-1.43195e-50
-6.09224e-51
-2.06873e-51
-5.82833e-52
-1.41126e-52
-2.99208e-53
-5.58254e-54
-9.19732e-55