/*--------------------------------*- C++ -*----------------------------------*\
| =========                 |                                                 |
| \\      /  F ield         | OpenFOAM: The Open Source CFD Toolbox           |
|  \\    /   O peration     | Version:  v1912                                 |
|   \\  /    A nd           | Website:  www.openfoam.com                      |
|    \\/     M anipulation  |                                                 |
\*---------------------------------------------------------------------------*/
FoamFile
{
    version     2.0;
    format      ascii;
    class       surfaceScalarField;
    location    "42";
    object      alphaPhi0.water;
}
// * * * * * * * * * * * * * * * * * * * * * * * * * * * * * * * * * * * * * //

dimensions      [0 3 -1 0 0 0 0];
oriented        oriented;


internalField   nonuniform List<scalar> 
40282
(
0.00278966
0.00264727
1.91944
-1.92606
1.92048
0.00557451
-1.91148
1.89934
0.0121371
-1.88417
1.86605
0.0181157
-1.84504
1.82116
0.0238744
-1.79449
1.7651
0.0293903
-1.73308
1.69844
0.0346382
-1.66128
1.62163
0.0396536
-1.57959
1.53513
0.0444529
-1.48843
1.43947
0.0489582
-1.38844
1.33526
0.0531818
-1.28014
1.22302
0.0571273
-1.16409
1.10327
0.0608218
-1.04089
0.976791
0.0640943
-0.911258
0.844068
0.0671905
-0.775578
0.705384
0.070194
-0.633812
0.560346
0.073466
-0.485106
0.407403
0.0777035
-0.32697
0.243081
0.0838892
-0.154975
0.0618387
0.093136
-0.00422782
0.00560387
1.85455
-1.85007
1.84315
-0.0141064
0.021035
-1.8335
1.82108
-0.0256325
0.0380514
-1.80588
1.7879
-0.0369144
0.0548865
-1.7672
1.74381
-0.0479654
0.0713574
-1.71777
1.68913
-0.0587593
0.0874032
-1.65792
1.62419
-0.0692224
0.102949
-1.58799
1.54936
-0.0792841
0.117911
-1.50836
1.46504
-0.0889028
0.132222
-1.41946
1.37167
-0.0980481
0.145832
-1.32173
1.26971
-0.10668
0.158701
-1.21565
1.1596
-0.114726
0.170772
-1.10162
1.04179
-0.122164
0.181997
-0.98013
0.916733
-0.128894
0.192291
-0.851652
0.784991
-0.134897
0.201558
-0.716787
0.647165
-0.140075
0.209698
-0.576215
0.504166
-0.144653
0.216703
-0.431191
0.357625
-0.149255
0.22282
-0.283678
0.209866
-0.155256
0.229069
-0.136058
0.0691597
-0.169691
0.236589
-0.00701066
0.00836248
1.78808
-1.78391
1.77709
-0.0281792
0.034992
-1.76762
1.75551
-0.0506773
0.0627917
-1.74077
1.72342
-0.0729276
0.0902745
-1.70348
1.68096
-0.094759
0.117281
-1.65588
1.62828
-0.116046
0.143649
-1.59818
1.56564
-0.13668
0.169226
-1.53068
1.49336
-0.156545
0.193863
-1.45373
1.41186
-0.175546
0.217422
-1.36779
1.3216
-0.193601
0.239789
-1.27336
1.22315
-0.210659
0.260877
-1.17102
1.11707
-0.226697
0.280653
-1.06134
1.00391
-0.241676
0.299107
-0.944827
0.884138
-0.255519
0.316208
-0.821892
0.75814
-0.268074
0.331825
-0.692933
0.626331
-0.279073
0.345676
-0.558399
0.489238
-0.288197
0.357358
-0.418988
0.347868
-0.295401
0.366521
-0.276184
0.204436
-0.301498
0.373246
-0.133299
0.0647124
-0.308957
0.377543
-0.00964624
0.0109228
1.72406
-1.7202
1.71378
-0.0417019
0.0481226
-1.70479
1.69326
-0.0748118
0.0863421
-1.6792
1.66262
-0.107564
0.124145
-1.64354
1.62197
-0.13976
0.161324
-1.59795
1.57149
-0.171215
0.197676
-1.54262
1.51137
-0.201749
0.232994
-1.47779
1.4419
-0.231186
0.267075
-1.40375
1.36338
-0.259348
0.299711
-1.32086
1.27624
-0.286077
0.330698
-1.22958
1.18097
-0.311238
0.359855
-1.13047
1.07818
-0.334755
0.387044
-1.02419
0.968596
-0.356612
0.412208
-0.911486
0.852946
-0.376822
0.435362
-0.79305
0.731858
-0.395331
0.456522
-0.669422
0.605783
-0.411885
0.475524
-0.540982
0.475062
-0.4259
0.491819
-0.408072
0.340081
-0.436523
0.504514
-0.271224
0.201775
-0.443389
0.512839
-0.132104
0.0637359
-0.447286
0.515654
-0.0121438
0.0133508
1.66231
-1.65866
1.65257
-0.0544956
0.0605816
-1.64406
1.63313
-0.0977853
0.108716
-1.61979
1.60405
-0.140613
0.156355
-1.58592
1.56542
-0.182755
0.203256
-1.54256
1.51737
-0.223989
0.249181
-1.48986
1.46007
-0.264087
0.29388
-1.42802
1.39374
-0.302819
0.3371
-1.35726
1.31863
-0.339947
0.378577
-1.27789
1.23509
-0.375232
0.418037
-1.19027
1.14351
-0.408444
0.455209
-1.09486
1.0444
-0.439387
0.489843
-0.992223
0.938413
-0.467936
0.521745
-0.883076
0.826318
-0.494065
0.550823
-0.768246
0.708959
-0.517822
0.577109
-0.648541
0.587061
-0.539134
0.600614
-0.524566
0.461089
-0.557512
0.62099
-0.396649
0.331267
-0.571853
0.637235
-0.264977
0.197871
-0.580811
0.647916
-0.130009
0.0630135
-0.583838
0.650834
-0.0144981
0.0156261
1.60289
-1.59929
1.59357
-0.0665968
0.0723134
-1.58558
1.5753
-0.119523
0.129798
-1.56275
1.54793
-0.171929
0.186748
-1.53085
1.51152
-0.223556
0.242891
-1.48994
1.46612
-0.27415
0.297961
-1.4401
1.41187
-0.323442
0.351672
-1.38146
1.34889
-0.371157
0.403726
-1.31419
1.27738
-0.417002
0.453806
-1.23851
1.19761
-0.460672
0.501573
-1.15472
1.1099
-0.501855
0.546679
-1.06319
1.01466
-0.540252
0.588779
-0.964386
0.91244
-0.575602
0.627549
-0.858913
0.803908
-0.607733
0.662739
-0.747534
0.689906
-0.636629
0.694257
-0.631136
0.571324
-0.662335
0.722148
-0.510551
0.448878
-0.684606
0.746279
-0.38634
0.32295
-0.702408
0.765798
-0.258701
0.193583
-0.713855
0.778974
-0.127429
0.062316
-0.717525
0.782638
-0.0166916
0.0177311
1.54528
-1.54226
1.53695
-0.0779326
0.0832387
-1.52952
1.51997
-0.139904
0.149453
-1.5083
1.4945
-0.201335
0.215135
-1.47858
1.46052
-0.261947
0.279999
-1.44035
1.41805
-0.321462
0.343762
-1.39363
1.3671
-0.379578
0.40611
-1.33846
1.30773
-0.435979
0.466709
-1.27492
1.24005
-0.490321
0.525191
-1.20315
1.16423
-0.542234
0.581152
-1.12333
1.08049
-0.591329
0.634167
-1.03576
0.989176
-0.637216
0.683798
-0.940804
0.890709
-0.679511
0.729606
-0.838968
0.78567
-0.717886
0.771185
-0.730915
0.674818
-0.752161
0.808259
-0.617498
0.559076
-0.782344
0.840766
-0.499661
0.439345
-0.808362
0.868678
-0.378193
0.316238
-0.829408
0.891363
-0.253474
0.189838
-0.843396
0.907031
-0.124948
0.0618345
-0.848315
0.911429
-0.0187047
0.0196451
1.4901
-1.48734
1.48249
-0.0884149
0.093262
-1.4757
1.46696
-0.158775
0.167514
-1.45627
1.4436
-0.228624
0.241287
-1.42896
1.41234
-0.297675
0.314301
-1.39371
1.37309
-0.365641
0.38627
-1.35044
1.32577
-0.432201
0.456868
-1.29908
1.27035
-0.497005
0.525733
-1.23959
1.2068
-0.55966
0.592449
-1.17199
1.13517
-0.619731
0.65655
-1.09636
1.05558
-0.676751
0.717527
-1.01287
0.968259
-0.730235
0.774846
-0.921794
0.87353
-0.779683
0.827947
-0.82353
0.77187
-0.824614
0.876274
-0.718642
0.663952
-0.864655
0.919345
-0.607921
0.550683
-0.899656
0.956894
-0.492372
0.433117
-0.92959
0.988845
-0.37303
0.312196
-0.953875
1.01471
-0.250658
0.188367
-0.970442
1.03273
-0.124619
0.063831
-0.977045
1.03783
-0.0205154
0.0213446
1.43678
-1.43414
1.4298
-0.0979434
0.102276
-1.42373
1.4159
-0.175963
0.183792
-1.4063
1.39491
-0.253554
0.264945
-1.38171
1.36668
-0.330444
0.345477
-1.34979
1.33102
-0.406356
0.425122
-1.31035
1.28776
-0.480963
0.50356
-1.26321
1.23669
-0.553893
0.58041
-1.20819
1.17768
-0.62471
0.655222
-1.14515
1.1106
-0.692915
0.727463
-1.07403
1.03544
-0.757957
0.796542
-0.994857
0.952288
-0.819249
0.861817
-0.907769
0.861338
-0.876168
0.922599
-0.813045
0.762955
-0.928075
0.978166
-0.711144
0.657711
-0.974387
1.02782
-0.60277
0.546459
-1.01472
1.07103
-0.488926
0.430326
-1.04894
1.10754
-0.370808
0.310507
-1.07661
1.13691
-0.24951
0.187814
-1.09576
1.15745
-0.124332
0.0654618
-1.10429
1.16316
-0.0220997
0.0228052
1.38551
-1.38321
1.37945
-0.106403
0.110162
-1.37417
1.36735
-0.191264
0.198081
-1.35897
1.349
-0.275844
0.285818
-1.3374
1.32415
-0.359906
0.373162
-1.30919
1.29251
-0.443206
0.459894
-1.27404
1.25375
-0.52543
0.545719
-1.2316
1.20754
-0.6062
0.630259
-1.18153
1.15354
-0.685048
0.713039
-1.12353
1.09147
-0.761414
0.793472
-1.05734
1.02113
-0.834662
0.87088
-0.982811
0.942398
-0.904094
0.944506
-0.899897
0.855328
-0.968947
1.01352
-0.808725
0.760135
-1.02841
1.077
-0.70962
0.657267
-1.08168
1.13403
-0.603183
0.547507
-1.12807
1.18374
-0.490399
0.432043
-1.16723
1.22558
-0.372631
0.312359
-1.19872
1.25899
-0.251392
0.189812
-1.22072
1.2823
-0.125945
0.0688669
-1.23137
1.28844
-0.0234327
0.0240023
1.33593
-1.334
1.33087
-0.113675
0.1168
-1.32648
1.32078
-0.204467
0.210164
-1.31375
1.30535
-0.295194
0.303595
-1.29554
1.28426
-0.385681
0.396957
-1.27147
1.2571
-0.475741
0.490107
-1.2411
1.2234
-0.565101
0.5828
-1.20394
1.18265
-0.653397
0.674689
-1.15946
1.13431
-0.740146
0.765296
-1.10713
1.07788
-0.824741
0.853997
-1.04649
1.01292
-0.906462
0.940033
-0.977125
0.939086
-0.984493
1.02253
-0.898779
0.856199
-1.05792
1.1005
-0.811353
0.764265
-1.12573
1.17282
-0.714978
0.663561
-1.18687
1.23828
-0.610111
0.554759
-1.2403
1.29565
-0.497677
0.439077
-1.28533
1.34393
-0.379203
0.318332
-1.32139
1.38226
-0.256744
0.194671
-1.34674
1.40882
-0.12955
0.0743458
-1.35983
1.41503
-0.0244907
0.0249138
1.28821
-1.2865
1.28407
-0.119638
0.122073
-1.28063
1.27616
-0.215356
0.21983
-1.2706
1.26393
-0.311291
0.317966
-1.25607
1.24698
-0.407357
0.416451
-1.23658
1.22479
-0.503459
0.515245
-1.21154
1.19674
-0.599391
0.61419
-1.1803
1.16213
-0.694835
0.713004
-1.14214
1.12022
-0.789322
0.81124
-1.09629
1.07024
-0.882219
0.908264
-1.042
1.01147
-0.972736
1.00327
-0.978576
0.943256
-1.05995
1.09527
-0.905447
0.865106
-1.14277
1.18311
-0.822202
0.776726
-1.21998
1.26546
-0.728687
0.678126
-1.29022
1.34078
-0.625115
0.569776
-1.35205
1.40738
-0.512282
0.452866
-1.40427
1.46368
-0.39183
0.329551
-1.446
1.50828
-0.266458
0.203027
-1.47552
1.53895
-0.135412
0.0821841
-1.49178
1.54501
-0.0252541
0.0255229
1.24236
-1.24108
1.23938
-0.124184
0.125884
-1.23697
1.2338
-0.223731
0.226897
-1.22984
1.22502
-0.323836
0.328655
-1.21928
1.21256
-0.42453
0.431255
-1.20476
1.19581
-0.52584
0.534796
-1.18559
1.17401
-0.627666
0.639246
-1.16096
1.1463
-0.729774
0.744429
-1.12992
1.1117
-0.831749
0.849977
-1.09149
1.06916
-0.932972
0.955298
-1.04459
1.01763
-1.03262
1.05958
-0.988169
0.95608
-1.12968
1.16177
-0.921249
0.883579
-1.22292
1.26059
-0.842982
0.799394
-1.31088
1.35446
-0.752773
0.703109
-1.39185
1.44152
-0.650435
0.594838
-1.46392
1.51951
-0.536481
0.475616
-1.52521
1.58608
-0.412603
0.347955
-1.5743
1.63895
-0.282314
0.216563
-1.60928
1.67503
-0.144977
0.0938125
-1.62969
1.68085
-0.0257092
0.0258197
1.1978
-1.19717
1.19624
-0.127229
0.128164
-1.19489
1.19309
-0.229431
0.231229
-1.19079
1.18793
-0.332576
0.335437
-1.18444
1.18025
-0.436835
0.441032
-1.17525
1.16935
-0.542387
0.548283
-1.16244
1.1544
-0.649278
0.657321
-1.14509
1.13437
-0.757407
0.768129
-1.12208
1.10807
-0.866467
0.880477
-1.09217
1.07419
-0.975912
0.993888
-1.05396
1.0313
-1.08495
1.10762
-1.00601
0.977905
-1.19254
1.22064
-0.946807
0.912534
-1.29735
1.33162
-0.87492
0.833816
-1.3977
1.43881
-0.789093
0.740657
-1.49155
1.53999
-0.68846
0.632522
-1.57639
1.63232
-0.572958
0.510015
-1.64947
1.71242
-0.444114
0.375942
-1.70848
1.77665
-0.306468
0.237324
-1.75116
1.82031
-0.159932
0.112496
-1.77778
1.82522
-0.0258507
0.0258042
1.1551
-1.15494
1.15477
-0.128723
0.128885
-1.15451
1.1541
-0.232353
0.23276
-1.1535
1.15265
-0.337329
0.33818
-1.15148
1.14991
-0.443979
0.44555
-1.14785
1.14518
-0.552661
0.555327
-1.1418
1.13756
-0.663605
0.66784
-1.13233
1.12594
-0.776891
0.783282
-1.11821
1.10897
-0.89239
0.901634
-1.098
1.08509
-1.00971
1.02262
-1.07001
1.05252
-1.12819
1.14568
-1.03236
1.00928
-1.24686
1.26995
-0.982983
0.953208
-1.36441
1.39418
-0.919672
0.8821
-1.47905
1.51662
-0.84023
0.793826
-1.58844
1.63484
-0.742691
0.686702
-1.68945
1.74544
-0.625846
0.560284
-1.77824
1.8438
-0.490427
0.417105
-1.85103
1.92435
-0.341672
0.26671
-1.90467
1.97963
-0.179574
0.136307
-1.94096
1.98423
-0.0256836
0.0254866
1.11388
-1.11399
1.11458
-0.128662
0.128069
-1.11538
1.11634
-0.232472
0.23151
-1.11742
1.11857
-0.338023
0.336874
-1.11972
1.1208
-0.445799
0.44472
-1.12171
1.12237
-0.556357
0.555704
-1.12264
1.1224
-0.670136
0.670375
-1.1215
1.11977
-0.787451
0.789179
-1.11703
1.11308
-0.908418
0.912375
-1.10768
1.10059
-1.0329
1.03998
-1.09155
1.08026
-1.16048
1.17177
-1.06641
1.04964
-1.29043
1.3072
-1.0296
1.0059
-1.42165
1.44536
-0.978101
0.945779
-1.55249
1.58481
-0.908476
0.865735
-1.68053
1.72327
-0.817113
0.76222
-1.80217
1.85707
-0.700771
0.632685
-1.91235
1.98044
-0.55822
0.478277
-2.00518
2.08513
-0.394672
0.311201
-2.07553
2.15901
-0.21161
0.172321
-2.12634
2.16563
-0.0252234
0.0248877
1.07413
-1.07485
1.07616
-0.127094
0.125788
-1.07796
1.08022
-0.229856
0.227594
-1.08291
1.08598
-0.334713
0.331645
-1.08937
1.09303
-0.442293
0.438634
-1.09688
1.10082
-0.553351
0.549406
-1.10476
1.10858
-0.668552
0.664736
-1.11214
1.11527
-0.788477
0.785341
-1.11781
1.11955
-0.913546
0.911807
-1.12026
1.11969
-1.04396
1.04453
-1.11755
1.11352
-1.1797
1.18373
-1.10724
1.09831
-1.32048
1.32941
-1.08628
1.07066
-1.46568
1.4813
-1.05088
1.02632
-1.61416
1.63872
-0.99629
0.960045
-1.76396
1.80021
-0.916772
0.865633
-1.91158
1.96272
-0.805827
0.736705
-2.05105
2.12017
-0.657984
0.570248
-2.17388
2.26162
-0.475494
0.378927
-2.27113
2.3677
-0.262796
0.226532
-2.34642
2.38268
-0.0244958
0.0240377
1.03567
-1.03678
1.03873
-0.124119
0.122168
-1.04144
1.04489
-0.22467
0.221223
-1.04904
1.05388
-0.327597
0.322762
-1.05936
1.06543
-0.433651
0.42758
-1.07204
1.07912
-0.543762
0.536681
-1.08659
1.09436
-0.658811
0.651042
-1.10231
1.11032
-0.779653
0.771644
-1.11823
1.12587
-0.907043
0.899409
-1.13302
1.13946
-1.04159
1.03515
-1.14491
1.14906
-1.18377
1.17962
-1.15156
1.15198
-1.33392
1.3335
-1.14986
1.14464
-1.49222
1.49745
-1.13566
1.12216
-1.65856
1.67205
-1.10327
1.07792
-1.83224
1.85759
-1.04489
1.00275
-2.01111
2.05325
-0.949908
0.884667
-2.18981
2.25505
-0.805467
0.711513
-2.35807
2.45202
-0.603675
0.487511
-2.5009
2.61707
-0.347522
0.305149
-2.62107
2.66344
-0.0235347
0.0229737
0.998667
-1.0003
1.00281
-0.119885
0.117375
-1.00631
1.01079
-0.217166
0.212687
-1.01624
1.02263
-0.317015
0.310623
-1.02995
1.03817
-0.420262
0.412036
-1.04727
1.0572
-0.527974
0.518043
-1.06792
1.07936
-0.641214
0.629773
-1.09145
1.10411
-0.761079
0.748425
-1.11721
1.13065
-0.888649
0.875216
-1.14425
1.15784
-1.02495
1.01135
-1.17121
1.1841
-1.17098
1.1581
-1.1962
1.20717
-1.32781
1.31684
-1.21657
1.22391
-1.49662
1.48929
-1.22855
1.22974
-1.67877
1.67757
-1.22655
1.2178
-1.87574
1.88449
-1.20201
1.17731
-2.08857
2.11328
-1.1413
1.09106
-2.31592
2.36616
-1.02302
0.933418
-2.55054
2.64015
-0.819106
0.681414
-2.77424
2.91193
-0.512142
0.441931
-2.98565
3.05586
-0.0223801
0.0217374
0.963129
-0.964861
0.967829
-0.114573
0.111606
-0.971979
0.97731
-0.207669
0.202338
-0.983819
0.991507
-0.30342
0.295732
-1.00037
1.01042
-0.402689
0.392645
-1.02163
1.03401
-0.506629
0.494252
-1.04753
1.06219
-0.616419
0.601765
-1.07795
1.09477
-0.733342
0.716521
-1.1126
1.13139
-0.858733
0.839947
-1.15104
1.17147
-0.993962
0.973539
-1.19253
1.21409
-1.14051
1.11895
-1.23595
1.2579
-1.30008
1.27813
-1.27965
1.30087
-1.47484
1.45361
-1.32115
1.33993
-1.66767
1.64888
-1.35655
1.37009
-1.88268
1.86914
-1.37934
1.38262
-2.12554
2.12226
-1.3776
1.36098
-2.40301
2.41963
-1.32817
1.27277
-2.72091
2.77632
-1.18645
1.0571
-3.07994
3.20928
-0.884627
0.801029
-3.49829
3.58189
0.0311038
-0.0805494
0.0494456
-0.0755349
0.119045
-0.043601
-0.159648
0.189288
-0.0340376
-0.217054
0.244537
-0.0272773
-0.253907
0.246993
0.0154025
-0.219075
0.194721
0.0243536
-0.188294
0.187291
0.000998782
-0.170047
0.131639
0.0384062
-0.0713132
-0.0367252
0.106482
0.148504
-0.406405
0.201396
0.963862
-1.04933
-0.034452
1.04364
-1.09341
0.0527251
1.10011
-1.06183
-0.0224528
0.552671
-0.394515
-0.180157
0.239446
-0.175065
-0.0946296
0.194745
-0.229626
0.0348806
0.322274
-0.436967
0.114692
0.393192
-0.363522
0.0357983
0.330431
-0.281769
-1.62696e-18
0.235638
-0.130511
-0.00188818
-0.0130036
0.132464
0.015787
-0.299599
0.403408
0.0404215
-0.344416
0.124408
0.0193917
-0.00728383
-3.14518e-18
0.00728383
1.90011e-19
5.79854e-20
0
-6.04066e-20
-5.11379e-20
0
3.12175e-19
-6.49421e-19
0
5.80372e-18
0
0
-6.80401
6.61627
0.273063
-6.48023
6.40468
0.0755549
-6.35729
6.32338
0.0339146
-6.29647
6.27381
0.0226591
-6.2549
6.24149
0.0134149
-6.23615
5.81684
3.98984e-05
-5.56145
5.55638
0.00518332
-5.54527
5.90317
0.0160543
-6.18285
6.16792
0.0149214
-6.1605
6.1684
-0.00790425
-5.08262
3.40903
-0.0153545
-3.44429
3.41425
0.00233255
-3.42673
4.978
0.0282748
-6.12019
6.10544
0.0144359
-6.11272
6.1384
-0.0251464
-1.79182
1.79068
-0.00202207
-1.803
1.78419
0.00491474
-1.93037
1.82673
-0.0235399
-1.96698
1.9285
0.00478415
-3.04248
6.11906
0.0232973
-6.11777
6.13625
-0.0184775
-6.16739
6.19193
-0.0254947
-2.40404
0.745064
-0.000921452
-0.747597
0.743264
0.0043324
-0.732042
3.12462
0.0358672
-6.10378
6.15022
-0.0464384
-6.23925
6.35728
-0.118029
-0.411249
0.197037
0.000284447
-0.196076
0.194941
0.00113546
-0.21275
0.257329
-0.0103108
-0.261961
0.229843
0.000774589
-0.211492
0.206375
0.000893041
0.120331
-0.143786
0.0234549
-0.0657726
0.0879717
0.0695796
-0.0917788
-0.110482
0.134414
0.0624781
-0.08641
-0.158579
0.183041
0.0553309
-0.0797927
-0.200426
0.201924
-0.0214341
0.0200931
-0.18311
0.153098
-0.0531833
0.083195
-0.123431
0.0988794
-0.0185638
0.0431162
-0.0715609
0.0333499
-0.077114
0.106933
0.0159797
-0.0785832
-0.169653
0.189186
0.114254
-0.0121643
-0.221569
0.154334
0.00640139
-0.0136344
-0.000744261
0.00988142
0.0165262
-0.0125647
-0.0025081
0.000434654
0.0100033
-0.36906
0.0492504
-0.145177
0.595253
-0.630597
0.247069
-0.390555
0.656517
-0.532114
0.175167
-0.250511
0.376814
-0.196364
-0.0191426
0.00808004
0.0317737
-0.00104592
-0.00381289
-1.66947e-10
-3.38631e-20
2.89327e-21
1.88392e-11
-1.88392e-11
7.34832e-20
0.00317252
2.06871e-19
-0.00317252
-0.22417
1.67529
0.00385061
-2.4455
-3.17215
4.06971
0.716473
-2.83568
-4.65681
5.10671
1.14272
-2.12344
-5.3699
5.63454
1.3955
-1.66013
-5.82188
6.00317
0.935516
-1.1168
-6.17442
6.32904
0.446801
-0.601425
-6.47083
6.36209
0.0289597
-0.126608
-5.40205
4.56483
-0.187841
0.58101
-4.81819
6.63715
-0.477236
0.942272
-6.94909
6.87031
-0.425746
0.504529
-6.78797
6.72011
-0.153098
0.22095
-6.6669
6.62539
-0.0739045
0.115409
-6.59259
6.56625
-0.0471341
0.0734776
-6.5447
6.52634
-0.028326
0.0466902
-6.50995
6.49531
-0.0122124
0.0268603
-6.48236
6.47123
-0.015562
0.0266963
-6.46175
6.45334
-0.026306
0.034714
-6.44541
6.43788
-0.020412
0.0279393
-6.43038
6.42273
0.00334913
0.00430464
-6.41346
6.40451
0.0138677
-0.00492461
-6.39657
6.38979
-0.0132783
0.0200567
-6.38584
6.38118
-0.0418439
0.0444035
-6.3748
6.36771
-0.0173865
0.0240514
-6.36323
6.35385
0.021118
-0.0124919
-6.34337
6.33103
0.00507348
-0.00514666
-6.3336
6.34458
-0.00914674
0.00371881
-6.35554
6.35168
0.0282166
-0.0262535
-6.34588
6.34827
-0.0107739
0.00655062
-4.09939
4.20939
-0.0247813
0.0106832
-4.12685
6.31696
0.0348834
-0.0490272
-6.41509
6.42472
0.0558584
-0.0647451
-6.42834
6.42652
0.0228196
-0.0233977
-6.42306
5.72292
-0.040042
0.0306274
-3.31827
3.81905
-0.0508142
0.0202995
-6.15341
6.52431
0.0861152
-0.104565
-6.53815
6.546
0.140202
-0.148051
-6.55192
6.56979
0.069012
-0.0868792
-6.6009
6.62896
0.00311636
-0.0311728
-6.64297
6.64841
0.0253351
-0.0307693
-6.64554
6.64376
-0.00903095
0.0108079
-6.6344
6.62155
-0.0439363
0.0567919
0.133529
-0.100519
-0.0189073
-0.0265291
0.0503101
0.114269
-0.12885
-0.0744115
0.0955853
0.106645
-0.120234
-0.111983
0.129022
0.100667
-0.115111
-0.146374
0.153687
-0.0118686
-9.7265e-05
-0.143197
0.120873
-0.112575
0.112521
-0.0858484
0.0464035
-0.0730714
0.112516
-0.00534301
-0.0265942
-0.096462
0.165245
0.0571891
-0.0309588
-0.128718
0.181872
0.00962588
-0.007276
-0.00996071
0.00955228
0.00516677
-0.00378334
-0.0130208
0.0135509
0.00476054
-0.0306363
-0.00499608
0.0327864
0.359533
-0.539058
0.181174
-0.120261
0.596595
-0.635248
0.385468
-0.346815
0.658665
-0.668593
0.301551
-0.291623
0.324028
-3.98252e-11
-0.00857561
0.0213844
3.98252e-11
-1.42937e-10
4.44889e-11
1.17481e-10
-8.991e-11
0.125656
9.24164e-12
-0.125656
-1.80975
3.57276
1.67999
-4.26244
-4.09791
4.25286
3.79326
-3.94821
-4.44169
4.65198
3.06524
-3.27554
-4.87715
5.10154
2.36637
-2.59075
-5.30095
5.47506
1.83308
-2.0072
-5.63514
5.78559
1.27342
-1.42387
-5.92611
6.05282
0.735559
-0.862269
-6.16347
6.26412
0.219682
-0.320337
-6.37553
6.51258
-0.452435
0.315383
-6.66751
6.79623
-0.814017
0.685291
-6.85855
6.86191
-0.533146
0.529791
-6.83383
6.79475
-0.274098
0.313179
-6.7551
6.71907
-0.154821
0.190854
-6.68788
6.66136
-0.100285
0.126808
-6.63865
6.61867
-0.0661291
0.086107
-6.60052
6.58391
-0.0428538
0.0594677
-6.5691
6.55638
-0.0388106
0.0515352
-6.54572
6.53661
-0.0433746
0.0524835
-6.52825
6.51985
-0.035663
0.0440601
-6.51054
6.49957
-0.0142961
0.0252632
-6.48746
6.47573
-0.00615117
0.0178782
-6.46603
6.45907
-0.0269124
0.0338708
-6.45535
6.45337
-0.0464881
0.0484726
-6.45077
6.44626
-0.0289466
0.0334567
-6.43952
6.43104
0.00308593
0.00539352
-6.4239
6.4219
0.00325398
-0.00125278
-6.42509
6.42263
0.00180895
-0.00621504
-6.42123
6.4208
0.0235666
-0.0233608
-6.42569
6.43879
-0.000504271
-0.0080589
-6.45699
6.47257
-0.000187279
-0.0153106
-6.48434
6.49183
0.0605035
-0.0679919
-6.49749
4.69432
0.0667548
-0.0756089
-4.63614
4.65496
0.0202083
-0.0378047
-5.65378
6.47091
-0.00705995
-0.00810568
-6.58672
6.62007
-0.00101179
-0.0304866
-6.63955
6.65128
0.116581
-0.128305
-6.66014
6.66802
0.154495
-0.162384
-6.67901
6.69344
0.103044
-0.117474
-6.71208
6.73005
0.0531505
-0.071123
-6.74248
6.75076
0.0381463
-0.0464287
-6.75102
6.75139
-0.0113127
0.0109494
-6.74551
6.73767
-0.0670181
0.0748584
0.0835919
-0.0914421
-0.00736554
0.0136437
0.00271942
0.145476
-0.164145
-0.0259941
0.0473418
0.122477
-0.166273
-0.0751302
0.0938922
0.121846
-0.135298
-0.0983154
0.0942064
0.0114771
-0.0178429
-0.0829812
0.0721694
-0.117584
0.127723
-0.0471707
0.0152116
-0.138943
0.190654
0.0324357
-0.0785495
-0.225461
0.27621
0.125376
-0.0577619
-0.297084
0.386368
0.00425214
-0.00348507
-0.0147567
0.0159462
0.00494284
-0.0730432
-0.0275917
0.368434
0.143425
-0.198671
-0.253212
0.353217
0.251955
-0.320004
0.0439755
0.0240733
0.392512
-0.462674
0.288112
-0.217949
0.527913
-0.592416
0.248814
-0.18431
0.246476
-1.72781e-11
-0.0179548
0.00699255
1.72781e-11
2.05275e-11
-5.84545e-11
2.01984e-12
-0.537574
3.42376
1.62778
-4.46519
-3.78748
3.93027
4.61808
-4.76088
-4.09306
4.27392
4.11539
-4.29625
-4.47036
4.67741
3.47973
-3.68678
-4.88767
5.09427
2.80198
-3.00859
-5.28515
5.45757
2.17959
-2.35201
-5.61323
5.75672
1.56915
-1.71264
-5.88816
6.00724
0.983538
-1.10262
-6.11414
6.21588
0.421817
-0.523552
-6.32454
6.44732
-0.184854
0.0620714
-6.57763
6.69265
-0.563004
0.447982
-6.7705
6.80707
-0.5062
0.46963
-6.81252
6.79904
-0.338415
0.351891
-6.77678
6.75193
-0.221468
0.246317
-6.7279
6.70594
-0.151388
0.173346
-6.68633
6.66865
-0.105257
0.122943
-6.65243
6.63742
-0.075535
0.0905465
-6.62379
6.6118
-0.0640806
0.076075
-6.60146
6.59235
-0.0616677
0.0707775
-6.58377
6.57489
-0.0527905
0.0616645
-6.56509
6.554
-0.0363786
0.0474676
-6.54211
6.53067
-0.029521
0.0409684
-6.52109
6.51427
-0.0407466
0.0475616
-6.51038
6.5083
-0.0505315
0.0526171
-6.50636
6.50329
-0.0372468
0.0403085
-6.49866
6.49304
-0.0124064
0.0180352
-6.48835
6.48675
-0.000647183
0.00224144
-6.48873
6.49279
0.0101383
-0.0142022
-6.49729
6.50237
0.0258732
-0.0309526
-6.50966
6.52066
0.0180226
-0.02902
-6.53469
6.54873
0.0298876
-0.0439304
-6.56047
6.56956
0.075677
-0.0847675
-6.57776
6.58758
0.0827396
-0.0925651
-6.60019
6.61714
0.0518835
-0.0688332
-6.63875
6.66578
0.0334276
-0.0604577
-6.69689
6.72544
0.0603009
-0.0888533
-6.74616
6.76116
0.141484
-0.156483
-6.7741
6.78612
0.172222
-0.184239
-6.79805
6.80985
0.130319
-0.14212
-6.82225
6.83438
0.0857341
-0.0978638
-6.84493
6.85401
0.0551264
-0.0642066
-6.85828
6.86043
-0.00973365
0.00758948
-6.8575
6.85371
-0.0804624
0.0842579
0.0827536
-0.066968
-0.0157856
0.0215964
-0.0125684
0.20476
-0.213788
-0.00682811
0.0294485
0.203515
-0.221689
-0.0480862
0.0543091
0.140604
-0.153234
-0.0605066
0.0646942
0.0186531
-0.0195946
-0.0790399
0.0802758
-0.160166
0.17548
-0.0658635
0.0273393
-0.249093
0.288461
0.0254377
-0.078971
-0.32675
0.380283
0.128775
-0.16135
-0.447556
0.484919
0.0228599
-0.00250311
-0.0159642
0.334637
-0.00397806
-0.00356492
-0.678605
0.686148
0.0240285
-0.0428584
-0.381934
0.398619
0.0641597
-0.105557
-0.0750786
0.109006
0.157567
-0.218626
0.146981
-0.082827
0.296315
-0.341885
0.116192
-0.0406164
0.00558177
4.77377e-20
-0.00558177
-3.18405e-21
9.21929e-20
0.705913
0.0292643
-0.421322
-3.42466
3.58741
5.22248
-5.38523
-3.76174
3.9447
4.9244
-5.10735
-4.13791
4.33773
4.48567
-4.6855
-4.54408
4.75108
3.89209
-4.09909
-4.95554
5.15049
3.2074
-3.40235
-5.33138
5.49428
2.51893
-2.68183
-5.64121
5.77416
1.84971
-1.98267
-5.8951
6.00526
1.21656
-1.32673
-6.10626
6.20286
0.622279
-0.718881
-6.30132
6.40557
0.0500965
-0.154346
-6.51215
6.60972
-0.342871
0.245299
-6.68596
6.73549
-0.425496
0.37597
-6.7604
6.76671
-0.354792
0.348481
-6.76157
6.75068
-0.264232
0.275117
-6.73778
6.72466
-0.191171
0.204295
-6.71223
6.70064
-0.137848
0.149438
-6.68978
6.67936
-0.103458
0.11388
-6.66941
6.66026
-0.0867796
0.0959349
-6.65199
6.64439
-0.0792321
0.0868313
-6.63686
6.62885
-0.0701648
0.0781675
-6.61991
6.6099
-0.0580248
0.0680393
-6.59918
6.58877
-0.0518261
0.0622325
-6.57993
6.57366
-0.0540699
0.0603425
-6.57012
6.56857
-0.0544795
0.0560304
-6.5677
6.56639
-0.0425024
0.0438105
-6.56412
6.56117
-0.0222385
0.0251855
-6.55868
6.55808
-0.00335113
0.00395101
-6.5603
6.56535
0.0186522
-0.0236937
-6.57259
6.58174
0.0381668
-0.0473144
-6.59267
6.60509
0.0406601
-0.0530803
-6.61838
6.63169
0.0573896
-0.0707018
-6.64436
6.6566
0.0953725
-0.107619
-6.66947
6.68415
0.104838
-0.119519
-6.70118
6.72138
0.0874984
-0.107696
-6.74531
6.77334
0.0879444
-0.11597
-6.80346
6.83053
0.116213
-0.143283
-6.85142
6.86837
0.172585
-0.189537
-6.88457
6.89987
0.197962
-0.213258
-6.91285
6.92293
0.152846
-0.162921
-6.93154
6.93961
0.107685
-0.115763
-6.94809
6.95706
0.0733093
-0.0822783
-6.96394
6.96773
-0.00460848
0.000815898
-6.96691
6.96607
-0.0864795
0.0873234
0.038251
0.0125658
-0.040287
0.0436395
-0.0381321
0.212648
-0.220101
0.0234797
-0.00215311
0.229344
-0.258122
-0.019448
0.0390493
0.183797
-0.203398
-0.0536063
0.0599868
0.0239053
-0.0364623
-0.0636892
0.0667697
-0.164637
0.167003
-0.0603682
0.0384062
-0.316208
0.338923
0.00323162
-0.0445239
-0.379711
0.344466
0.0799988
-0.120019
-0.512024
0.394792
0.0997989
-0.0385284
-0.733478
0.672207
-0.0243008
0.0629007
-0.669838
0.631333
-0.0833186
0.0906048
-0.403587
0.331026
-0.0931168
0.107773
-0.133059
0.134108
-0.0935316
0.0591662
0.0316653
-0.00864206
-0.0306806
-0.0100297
-0.0367424
0.0794599
0
-4.7124e-22
3.53985e-23
3.36237e-21
-0.399851
3.2949
2.28178
-4.5507
-3.46641
3.63764
5.54598
-5.71721
-3.82692
4.02715
5.30041
-5.50064
-4.23368
4.44198
4.89029
-5.09859
-4.65064
4.85374
4.30479
-4.50789
-5.04861
5.23006
3.58993
-3.77137
-5.39447
5.54076
2.83642
-2.98271
-5.6701
5.78602
2.10689
-2.22282
-5.89079
5.98801
1.42973
-1.52695
-6.0799
6.16937
0.81094
-0.900403
-6.25958
6.35202
0.250548
-0.342993
-6.44476
6.53247
-0.155079
0.0673681
-6.60716
6.66529
-0.32283
0.264706
-6.7055
6.72937
-0.333561
0.309697
-6.74133
6.74624
-0.278259
0.273352
-6.74717
6.74576
-0.21167
0.213078
-6.74311
6.7399
-0.156846
0.160058
-6.73638
6.73232
-0.121118
0.125178
-6.72745
6.72216
-0.103145
0.108435
-6.71694
6.7117
-0.0932251
0.0984637
-6.70603
6.69953
-0.0853736
0.0918711
-6.69202
6.68343
-0.0772544
0.0858452
-6.67402
6.66449
-0.072059
0.0815857
-6.65611
6.65013
-0.0663322
0.0723059
-6.64706
6.64634
-0.057141
0.057867
-6.64678
6.64726
-0.0442017
0.043722
-6.64722
6.64658
-0.0269115
0.0275439
-6.64591
6.64621
-0.00406537
0.00376841
-6.64876
6.65458
0.0291764
-0.034993
-6.6636
6.67527
0.0578523
-0.0695287
-6.68869
6.70233
0.065996
-0.0796283
-6.71543
6.72849
0.0837098
-0.09677
-6.74188
6.75613
0.12095
-0.135197
-6.77196
6.78981
0.13589
-0.153746
-6.80963
6.83166
0.128674
-0.150704
-6.85633
6.88406
0.143745
-0.17148
-6.91355
6.94049
0.169946
-0.196884
-6.96129
6.97838
0.206524
-0.223608
-6.99466
7.00667
0.229176
-0.249953
-6.88351
6.41697
0.172479
-0.0722336
-5.37282
4.87782
0.122538
-2.22565e-17
-4.94936
5.07958
0.0901605
-1.75953e-16
-4.70777
2.66561
0.0035055
-1.94e-18
-1.25725
1.30872
-0.0864816
0
-0.0650456
0.121769
-0.0566468
0.0591002
-0.0483114
0.227714
-0.235259
0.0434034
-0.0210622
0.296161
-0.318502
-0.00114393
0.0202409
0.221603
-0.240729
-0.0357189
0.0480556
0.0483921
-0.0607289
-0.0579591
0.0607716
-0.173386
0.169705
-0.0529057
0.0343802
-0.356513
0.374493
-0.0110806
-0.00936704
-0.370534
0.479875
0.0368191
-0.0593937
-0.47724
0.573014
0.0520106
-0.0115408
-0.623002
0.582533
-0.0475123
0.106768
-0.579499
0.520243
-0.132556
0.193291
-0.291096
0.277732
-0.239273
0.294858
-0.11329
0.0735416
-0.312927
0.313625
0.00498756
-0.0276478
-0.323536
0.00165283
-0.0138455
-0.043064
-9.60528e-05
9.60528e-05
-2.00272e-23
-6.37157e-18
-2.92099
3.38142
5.77563
-6.12138
-3.56008
3.74833
5.89868
-6.08693
-3.94525
4.14936
5.70223
-5.90634
-4.35736
4.56498
5.3074
-5.51502
-4.76841
4.95976
4.70553
-4.89688
-5.13731
5.29647
3.94149
-4.10065
-5.43524
5.5553
3.11518
-3.23524
-5.65718
5.74927
2.32683
-2.41891
-5.83401
5.91609
1.61569
-1.69776
-5.99889
6.08494
0.986342
-1.07239
-6.17379
6.26077
0.433824
-0.508908
-6.35457
6.44667
0.0209544
-0.107655
-6.5374
6.61992
-0.200609
0.100628
-6.68586
6.71776
-0.276013
0.174155
-6.69021
6.59812
-0.259975
0.171076
-6.4376
6.1877
-0.208547
0.1273
-5.84869
5.49843
-0.159395
0.0778893
-5.15722
4.69674
-0.126278
0.0454578
-4.07231
3.70351
-0.112092
0.0195848
-3.66857
3.65005
-0.102689
0.0147509
-3.58916
3.54234
-0.0977299
0.0125667
-3.53671
3.53118
-0.0938581
0.0119015
-3.53403
3.59139
-0.0907757
0.011497
-3.9213
4.66041
-0.0784002
0.0175898
-5.42243
5.69262
-0.0583868
0.0278299
-5.68633
5.67266
-0.0425082
0.020295
-5.67836
5.70903
-0.0271428
0.0127756
-5.75447
5.75763
-0.00309199
0.00096886
-5.74113
5.75406
0.0407696
-0.0348565
-5.85725
6.14659
0.08148
-0.0841404
-6.35339
6.36714
0.0936985
-0.0845547
-6.319
6.20067
0.109865
-0.0540661
-6.0179
5.8215
0.149556
-0.0740144
-5.70123
5.63097
0.171932
-0.0796124
-5.50817
5.17893
0.173594
-0.047549
-4.76557
4.60055
0.19857
1.36514e-20
-4.19677
2.44137
0.213054
8.9289e-21
-0.254682
0.0150844
0.0606406
-4.1501e-18
-1.46984e-19
1.3786e-34
9.04497e-18
-8.89798e-18