/*--------------------------------*- C++ -*----------------------------------*\
| =========                 |                                                 |
| \\      /  F ield         | OpenFOAM: The Open Source CFD Toolbox           |
|  \\    /   O peration     | Version:  v1912                                 |
|   \\  /    A nd           | Website:  www.openfoam.com                      |
|    \\/     M anipulation  |                                                 |
\*---------------------------------------------------------------------------*/
FoamFile
{
    version     2.0;
    format      ascii;
    class       volScalarField;
    location    "42";
    object      epsilon;
}
// * * * * * * * * * * * * * * * * * * * * * * * * * * * * * * * * * * * * * //

dimensions      [0 2 -3 0 0 0 0];


internalField   nonuniform List<scalar> 
20320
(
4.44148e-05
0.000214354
0.000220198
0.000225976
0.000231645
0.000237157
0.000242456
0.00024747
0.000252116
0.000256298
0.000259909
0.000262825
0.000264907
0.000266008
0.000265943
0.000264452
0.000260989
0.000254331
0.000241225
0.00020847
4.40126e-05
4.39264e-05
4.46698e-05
4.64507e-05
4.97907e-05
5.53434e-05
6.39342e-05
7.66288e-05
9.47932e-05
0.000120144
0.000154834
0.000201496
0.000263283
0.000343909
0.00044727
0.000576897
0.000731854
0.000899558
0.00103759
0.00114209
4.44236e-05
4.49242e-05
4.61338e-05
4.81756e-05
5.14953e-05
5.67063e-05
6.47048e-05
7.68261e-05
9.50667e-05
0.000122347
0.000162769
0.000221863
0.000306755
0.000426126
0.000589627
0.000805785
0.00107596
0.00137906
0.00163604
0.00190094
4.50104e-05
4.65104e-05
4.88021e-05
5.19407e-05
5.63951e-05
6.28085e-05
7.21182e-05
8.57446e-05
0.000105886
0.000135962
0.000181181
0.000249117
0.000350075
0.000497023
0.000704749
0.000987216
0.00134956
0.00176592
0.00213252
0.0025979
4.57368e-05
4.85721e-05
5.23175e-05
5.69563e-05
6.29754e-05
7.1055e-05
8.21884e-05
9.78745e-05
0.000120437
0.000153554
0.000203066
0.000278017
0.000391581
0.000561139
0.000806644
0.00114647
0.00158788
0.00210162
0.00257057
0.00328503
4.65807e-05
5.10935e-05
5.67007e-05
6.33156e-05
7.14333e-05
8.1763e-05
9.53458e-05
0.000113748
0.000139384
0.000176078
0.00023
0.000311075
0.000434676
0.00062256
0.000900949
0.0012938
0.00180954
0.0024127
0.00297643
0.0039755
4.75139e-05
5.40155e-05
6.18901e-05
7.09845e-05
8.17877e-05
9.50226e-05
0.000111765
0.000133637
0.000163128
0.000204175
0.000263152
0.000350507
0.000483104
0.000686408
0.000993366
0.0014355
0.0020236
0.00271366
0.00336793
0.00467948
4.85016e-05
5.72559e-05
6.77803e-05
7.98674e-05
9.39895e-05
0.000110868
0.000131594
0.000157824
0.00019211
0.000238484
0.000303488
0.000397926
0.000539694
0.000757173
0.00108969
0.00157769
0.00223635
0.00301201
0.00375366
0.00540399
4.95015e-05
6.07001e-05
7.41964e-05
8.97593e-05
0.000107846
0.000129171
0.000154822
0.000186474
0.000226719
0.000279667
0.000352016
0.000454877
0.000606936
0.000838906
0.00119592
0.00172807
0.00245743
0.00332186
0.00415515
0.00616363
5.04644e-05
6.41955e-05
8.08786e-05
0.000100315
0.000122974
0.000149575
0.000181208
0.000219554
0.000267222
0.000328389
0.000409897
0.000523161
0.000687573
0.000935847
0.00131839
0.00189522
0.00269735
0.0036554
0.00458502
0.00697453
5.13364e-05
6.75543e-05
8.74806e-05
0.000111036
0.000138761
0.00017144
0.0002102
0.000256741
0.000313688
0.000385266
0.000478464
0.000605021
0.00078505
0.00105316
0.00146473
0.00208994
0.00297055
0.00403126
0.00506559
0.00785978
5.20628e-05
7.05635e-05
9.35838e-05
0.000121279
0.00015437
0.000193814
0.000240871
0.000297334
0.000365877
0.000450788
0.000559221
0.000703288
0.000903929
0.00119775
0.00164518
0.00232698
0.00329743
0.00447641
0.00562896
0.00884779
5.2595e-05
7.30076e-05
9.8739e-05
0.000130312
0.000168782
0.000215452
0.000271899
0.000340171
0.000423122
0.000525195
0.000653786
0.000821509
0.00105036
0.00137931
0.00187442
0.00262803
0.00370913
0.00503289
0.00632427
0.0099919
5.28962e-05
7.46964e-05
0.000102523
0.000137398
0.000180887
0.000234882
0.000301563
0.000383539
0.000484136
0.000608207
0.00076364
0.000963861
0.0012324
0.00161149
0.00217417
0.00302673
0.00425619
0.00577195
0.00723553
0.0113708
5.29479e-05
7.5496e-05
0.000104605
0.000141897
0.000189624
0.000250544
0.000327829
0.000425134
0.000546798
0.000698649
0.000889659
0.00113479
0.00146021
0.00191318
0.00257693
0.00357694
0.00502522
0.00682471
0.00853325
0.0131711
5.27533e-05
7.53537e-05
0.000104813
0.000143391
0.000194153
0.000260991
0.00034852
0.000462109
0.000607971
0.000793944
0.00103131
0.00133811
0.00174545
0.00230953
0.00313086
0.00436625
0.00616939
0.00843765
0.01054
0.0157597
5.23363e-05
7.43085e-05
0.000103165
0.000141761
0.00019401
0.000265121
0.000361583
0.000491255
0.000663414
0.000889548
0.0011854
0.00157508
0.0020992
0.00283102
0.00390397
0.00553648
0.00797292
0.0111375
0.0140383
0.0200254
5.17381e-05
7.24839e-05
9.98694e-05
0.000137219
0.000189212
0.000262399
0.000365422
0.000509361
0.000707933
0.000978486
0.00134453
0.00184122
0.00252688
0.00350722
0.00498156
0.00730315
0.0109567
0.0160986
0.0211375
0.0287206
5.10097e-05
7.00648e-05
9.52831e-05
0.000130274
0.000180279
0.000253009
0.000359269
0.000513799
0.000735994
0.00105152
0.00149589
0.00212238
0.00301963
0.00435139
0.00644336
0.00994343
0.0159996
0.0259651
0.0383985
0.0531077
5.02047e-05
6.72643e-05
8.98461e-05
0.000121634
0.000168144
0.000237874
0.000343443
0.000503173
0.000742774
0.00109822
0.00162131
0.00239151
0.00354331
0.00533234
0.0082994
0.0136649
0.0241965
0.0457803
0.0867634
0.167423
0.750517
1.944
2.52016
2.61087
2.24669
2.39249
4.03226
8.4508
16.9383
36.9928
112.641
182.429
307.151
470.418
685.729
1108.24
2687.7
4832.27
5546.4
4600.66
2975.59
1929.96
1464.82
1198.07
974.618
739.106
548.504
328.437
215.207
176.082
153.305
135.338
120.672
108.487
97.901
88.772
81.2568
75.2877
69.7712
64.0436
59.1208
55.5308
53.0965
50.1289
47.4372
45.497
43.1842
41.4488
40.6874
40.0215
38.529
36.8521
36.4203
37.8222
39.2687
38.3732
36.8456
36.0099
35.0692
34.4424
1.43711
0.81277
0.954305
1.01635
1.02096
1.18191
1.9651
4.46944
10.6761
23.2668
51.8237
86.1164
135.228
223.585
409.351
931.983
3182.57
6181.87
7989.5
3307.15
1451.3
824.271
551.284
427.712
361.75
300.008
257.284
187.44
131.2
100.31
81.7527
68.9251
59.3025
51.7548
45.6914
40.7314
36.5879
33.064
30.0304
27.4172
25.1888
23.2284
21.5171
20.034
18.7428
17.5864
16.607
15.7654
14.9988
14.3217
13.7214
13.3017
13.009
12.722
12.4926
12.2619
11.9878
11.7198
11.5638
11.5864
2.12315
0.963329
1.01645
1.07861
1.1422
1.43099
2.52953
5.47535
12.0196
26.101
44.471
75.4143
130.839
245.914
534.31
1491.27
5108.77
7686.68
3186.01
1517.83
832.364
530.026
376.279
289.414
235.112
196.266
167.851
140.938
114.8
93.837
78.1255
66.2733
57.1204
49.8728
44.0128
39.2025
35.1982
31.811
28.9018
26.3922
24.2371
22.3767
20.7506
19.3245
18.0859
17
16.0556
15.2525
14.5509
13.9262
13.3888
12.9686
12.6494
12.3785
12.1316
11.8869
11.6464
11.4344
11.2924
11.2759
2.60753
1.2129
1.26281
1.36023
1.50415
1.92116
3.34773
6.84548
13.5276
26.4951
43.8908
75.5126
137.735
276.068
656.831
2038.88
7444.31
3288.08
1484.64
795.306
498.813
349.921
265.705
213.796
179.155
154.145
135.173
118.109
101.26
86.1098
73.5463
63.4306
55.2989
48.6952
43.2678
38.7629
34.9848
31.7744
29.0139
26.6336
24.5902
22.8319
21.3031
19.9706
18.8207
17.8259
16.9726
16.2557
15.6411
15.105
14.6574
14.3105
14.04
13.8036
13.5691
13.3183
13.0687
12.8415
12.6628
12.5903
3.26412
1.50895
1.62188
1.81868
2.09388
2.68287
4.37605
8.35069
15.385
27.3192
46.2108
80.6267
148.15
299.118
713.456
2360.38
3555.53
1548.36
782.078
467.601
319.944
239.937
191.517
159.964
138.1
121.993
109.336
98.1451
86.9552
76.2866
66.8257
58.7788
52.0483
46.4308
41.7258
37.7642
34.4056
31.5347
29.0647
26.9389
25.1173
23.5563
22.2128
21.0594
20.0799
19.2486
18.5477
17.9702
17.4924
17.0912
16.7706
16.5327
16.3386
16.1512
15.9359
15.6743
15.403
15.1417
14.9077
14.7704
4.24654
1.87288
2.10186
2.48072
2.9618
3.79459
5.74477
10.0803
17.8405
30.4904
51.8427
90.0437
163.591
322.695
743.186
2290.69
1520.14
781.349
455.534
301.358
220.296
172.811
142.448
121.879
107.326
96.5447
88.0199
80.5845
73.2367
65.9652
59.2037
53.203
48.0163
43.5821
39.8013
36.5701
33.8005
31.4218
29.3794
27.6307
26.1404
24.8729
23.7962
22.8911
22.1442
21.5273
21.0162
20.6083
20.2908
20.0425
19.87
19.76
19.65
19.5117
19.3024
19.0148
18.7247
18.4197
18.1219
17.9289
5.23802
2.32239
2.72583
3.3899
4.18496
5.33604
7.59792
12.2642
20.9897
35.6304
60.475
104.233
187.096
361.294
785.883
1509.73
807.153
467.145
301.203
213.356
162.702
131.074
110.027
95.4183
84.9742
77.2907
71.3825
66.3804
61.6358
56.8829
52.3547
48.2256
44.5649
41.3736
38.6116
36.2159
34.1389
32.3514
30.8289
29.541
28.4532
27.533
26.7591
26.1233
25.6182
25.2125
24.8849
24.6407
24.4632
24.337
24.3242
24.3567
24.3061
24.2321
23.9887
23.6145
23.2104
22.7814
22.3963
22.2134
5.87265
2.86068
3.52314
4.60527
5.85361
7.41891
10.067
15.2266
25.1174
42.441
71.9878
123.71
220.804
422.73
898.514
973.328
538.951
331.973
224.825
164.481
128
104.595
88.7196
77.4613
69.3049
63.4558
59.3478
56.3268
53.6273
50.9916
48.4366
45.991
43.7042
41.6389
39.822
38.2401
36.864
35.6899
34.7117
33.8983
33.2024
32.5985
32.0859
31.6707
31.3366
31.0474
30.8277
30.7116
30.6101
30.4751
30.5002
30.4439
30.1575
29.5098
28.4753
27.3991
26.5392
25.8115
25.3631
25.2984
7.12779
3.52112
4.54265
6.21113
8.08739
10.1867
13.3172
19.1829
30.6116
51.2621
86.9716
149.801
267.623
512.965
1131.91
713.079
412.994
263.133
181.897
134.677
105.998
87.8554
75.1736
65.6155
58.739
53.8745
50.6614
48.677
47.4077
46.4114
45.3243
44.0763
42.7321
41.4526
40.385
39.5728
38.9746
38.5399
38.2139
37.9199
37.588
37.2199
36.881
36.6075
36.3505
36.0562
35.8086
35.6639
35.4473
34.9348
34.2603
33.3921
32.2575
31.1817
29.9783
28.8421
28.1377
27.5886
27.3607
27.5714
9.04608
4.35884
5.85804
8.32708
11.0565
13.85
17.5991
24.3748
37.82
62.7361
106.585
184.432
332.022
645.757
1012.66
562.892
337.443
219.668
153.288
114.418
91.6788
77.5751
66.208
57.8361
51.7278
47.3664
44.4694
42.7016
41.6748
41.0202
40.5206
39.9171
39.1998
38.5356
38.0476
37.7221
37.5326
37.4672
37.4919
37.5057
37.4115
37.2124
36.9904
36.7827
36.5426
36.2312
35.9165
35.6181
35.1825
34.513
33.889
32.9839
31.7625
30.7739
29.8722
29.1446
28.7795
28.6099
28.7643
29.3191
10.1955
5.36749
7.55648
11.1188
15.0116
18.7428
23.3175
31.2737
47.302
77.7547
132.338
230.602
420.66
834.158
811.694
458.391
283.192
187.011
131.46
99.7792
82.7603
69.7776
59.9713
52.2805
46.5087
42.3359
39.5511
37.84
36.8373
36.2989
36.1082
35.9584
35.7085
35.4476
35.254
35.1072
35.0029
34.9844
35.0595
35.1363
35.1124
34.9775
34.7901
34.5782
34.3082
33.9645
33.59
33.1882
32.6881
32.1167
31.6442
30.971
30.1154
29.4808
29.021
28.773
28.8007
29.0386
29.5775
30.4278
10.9136
6.49142
9.72688
14.7964
20.3031
25.3537
31.066
40.6015
59.982
97.7126
166.67
292.927
542.106
1097.14
636.326
379.536
240.172
159.989
113.834
89.3746
75.5741
64.2821
54.7313
47.1856
41.5062
37.4276
34.7041
33.0463
32.1183
31.7108
31.7274
31.9075
32.0334
32.0962
32.1144
32.0651
31.9651
31.8922
31.8884
31.8957
31.832
31.6777
31.4656
31.2125
30.9038
30.5429
30.1604
29.7676
29.3594
28.9965
28.7325
28.3816
27.9832
27.7647
27.7293
27.89
28.2624
28.8325
29.6547
30.6771
11.3033
7.7158
12.4557
19.6106
27.4044
34.3817
41.7227
53.4291
77.2676
124.763
213.117
377.588
713.279
875.654
515.841
318.494
204.231
136.764
99.789
82.4508
70.6137
58.9886
49.2133
41.6062
35.9873
32.0303
29.4209
27.8704
27.0858
26.866
27.0824
27.5215
27.9559
28.2979
28.5125
28.5716
28.5042
28.3981
28.3119
28.2241
28.0847
27.8787
27.627
27.3402
27.0215
26.6868
26.3643
26.0757
25.8434
25.7107
25.6738
25.6346
25.6255
25.7589
26.0483
26.4964
27.1064
27.8808
28.8404
29.8932
12.2184
9.08133
15.8302
25.8379
36.9044
46.8382
56.6488
71.4367
101.338
162.157
277.316
495.03
944.762
705.02
430.347
270.167
173.092
116.824
89.3882
77.6366
65.5171
53.2845
43.1043
35.4576
29.9993
26.2603
23.8537
22.483
21.8898
21.877
22.2853
22.9176
23.5847
24.1418
24.5221
24.6955
24.6939
24.5983
24.4702
24.316
24.1175
23.8778
23.6095
23.3273
23.0462
22.788
22.579
22.4424
22.4003
22.47
22.6306
22.8325
23.0931
23.4627
23.9504
24.5558
25.2786
26.1214
27.0796
28.0483
15.3074
10.9123
19.9889
33.764
49.4602
64.0162
77.8857
97.3183
135.537
214.523
367.132
662.229
1001.43
594.352
367.744
229.505
145.383
100.296
82.8955
72.6637
59.652
46.9693
36.6456
29.1392
23.979
20.564
18.4431
17.3077
16.9193
17.0857
17.6355
18.3855
19.1684
19.8521
20.3393
20.6025
20.671
20.6117
20.4819
20.3057
20.096
19.8621
19.6204
19.39
19.1905
19.0431
18.9689
18.9845
19.1013
19.3193
19.617
19.968
20.378
20.866
21.4357
22.085
22.8121
23.6145
24.474
25.2955
20.0144
13.4507
25.1631
43.6737
65.7303
87.4618
108.244
135.278
185.439
289.071
492.437
897.673
869.695
519.694
317.679
192.859
120.721
87.7214
78.2239
66.6036
52.9576
40.248
30.1878
23.0813
18.366
15.364
13.5838
12.7064
12.5022
12.7874
13.3976
14.1717
14.9631
15.6577
16.1795
16.4885
16.6085
16.5915
16.4907
16.3423
16.1661
15.9809
15.807
15.6642
15.5705
15.5422
15.5922
15.7286
15.9531
16.2579
16.626
17.0419
17.5044
18.0184
18.5836
19.1974
19.8568
20.5558
21.2742
21.9372
25.3905
16.572
31.3769
55.7497
86.2927
118.9
151.409
191.713
260.673
399.043
669.409
1207.8
776.474
462.422
271.955
158.351
99.6435
79.8799
72.3594
59.6268
45.757
33.4552
24.0371
17.5793
13.4393
10.9104
9.49079
8.85911
8.79402
9.12625
9.71239
10.4212
11.1353
11.7615
12.239
12.5447
12.6924
12.7209
12.6724
12.5804
12.4709
12.3656
12.2842
12.243
12.2552
12.3302
12.4742
12.6883
12.969
13.3076
13.6918
14.1113
14.5626
15.0449
15.5562
16.094
16.6551
17.2343
17.8159
18.3453
29.8562
20.0457
38.2961
69.6866
111.465
159.86
211.641
275.494
377.13
569.401
947.655
1314.57
729.079
410.194
226.345
126.254
83.263
74.5964
65.9126
52.3131
38.5282
26.9425
18.4314
12.7975
9.31843
7.28799
6.21642
5.79169
5.80835
6.12125
6.61675
7.19696
7.77661
8.28791
8.6874
8.95974
9.11571
9.18248
9.19151
9.17115
9.14462
9.13073
9.14448
9.19705
9.29603
9.44574
9.64749
9.89943
10.1968
10.5323
10.8979
11.2869
11.6952
12.1205
12.561
13.0149
13.4807
13.9559
14.4315
14.8656
35.8964
23.4757
45.4053
84.9486
141.206
211.567
293.771
398.868
561.729
844.971
1356.02
1296.65
679.356
353.116
180.135
98.3827
72.675
69.6485
58.7896
44.8059
31.5445
20.9553
13.5223
8.80551
6.02003
4.47857
3.71756
3.44759
3.49132
3.73671
4.10395
4.5277
4.95228
5.33356
5.64348
5.87273
6.02854
6.12865
6.19434
6.24555
6.29876
6.3669
6.45938
6.58245
6.73979
6.93269
7.16045
7.42073
7.70957
8.02211
8.35327
8.69869
9.05535
9.42135
9.79548
10.1774
10.5678
10.9674
11.3718
11.7445
38.8945
26.5869
52.1871
100.935
175.298
275.651
403.812
578.628
860.952
1344.49
2185.45
1303.57
612.139
287.256
135.822
76.9361
67.8977
63.8675
51.4182
37.3856
25.0112
15.6428
9.38478
5.61126
3.50797
2.42005
1.91992
1.75412
1.78607
1.94187
2.17456
2.44687
2.72667
2.98849
3.21594
3.4035
3.55483
3.67952
3.78939
3.89573
4.00783
4.13278
4.27548
4.439
4.62487
4.83318
5.06309
5.31269
5.57958
5.86079
6.15347
6.45504
6.76373
7.07847
7.39914
7.72666
8.06345
8.41231
8.77068
9.10246
35.5317
29.0085
58.6726
117.571
214.048
354.904
552.586
843.192
1345.16
2272.82
3147.09
1223.71
508.207
216.046
97.8617
63.2002
65.1453
57.7653
44.0385
30.3316
19.1129
11.096
6.0393
3.18679
1.72785
1.04754
0.756395
0.658582
0.665055
0.736854
0.853491
0.999537
1.16073
1.325
1.48236
1.62936
1.76656
1.89724
2.02615
2.15792
2.2965
2.44493
2.60541
2.77927
2.96705
3.16873
3.38365
3.61073
3.8486
4.09574
4.35069
4.6122
4.87949
5.15235
5.43143
5.71848
6.01662
6.32934
6.65371
6.95265
36.26
31.2353
65.3178
135.679
259.619
454.816
750.948
1224.04
1989.45
3466.57
3018.74
1003.32
378.981
149.687
69.9322
57.0331
62.1075
51.3154
36.7936
23.8391
13.9766
7.35841
3.47087
1.50747
0.636212
0.287318
0.158965
0.116712
0.111581
0.128618
0.164103
0.21694
0.285481
0.366783
0.457744
0.555761
0.659634
0.768488
0.883322
1.0052
1.13514
1.27401
1.42245
1.58086
1.74934
1.92763
2.11531
2.31169
2.51602
2.72762
2.94588
3.17036
3.40098
3.6381
3.8827
4.13675
4.40329
4.68512
4.9781
5.24495
46.2699
34.9007
73.1929
155.681
313.893
571.295
817.386
1199.33
1944.78
3545.31
1932.7
678.201
251.22
97.594
52.785
57.3055
58.0193
44.547
29.9186
18.0709
9.67135
4.42808
1.69813
0.52307
0.120885
0.0225807
0.00487647
0.00178883
0.00128478
0.00161588
0.00292817
0.00630923
0.0138993
0.0286168
0.0532173
0.0893624
0.137493
0.197418
0.268906
0.35128
0.444373
0.548131
0.66237
0.786752
0.920862
1.06418
1.21608
1.37596
1.54336
1.71795
1.89957
2.08822
2.28422
2.48815
2.7011
2.92472
3.16131
3.41242
3.67239
3.90537
58.1626
40.7892
83.419
177.11
367.656
539.462
728.231
1049.49
1625.55
2222.92
1006.65
404.49
154.551
63.1617
44.6684
58.351
53.2022
37.7499
23.6277
13.1308
6.20823
2.3522
0.639941
0.0892186
0.00381708
0.000166782
6.59683e-05
5.57833e-05
5.36501e-05
5.35418e-05
5.54645e-05
6.22228e-05
8.54776e-05
0.000175894
0.000567186
0.00210169
0.00678409
0.017651
0.037692
0.0689753
0.112558
0.168845
0.237491
0.31808
0.409852
0.511953
0.623524
0.743836
0.872423
1.00909
1.15384
1.30692
1.46877
1.64007
1.82175
2.01504
2.2212
2.44014
2.66479
2.86244
70.0444
47.0722
95.8467
202.141
349.512
471.679
637.05
908.539
1266.33
1182.97
558.511
236.685
93.1042
43.3525
43.1611
58.725
46.9834
31.0632
18.0514
9.04307
3.63232
1.04222
0.139164
0.00271603
8.25166e-05
5.38494e-05
5.08477e-05
4.92779e-05
4.82118e-05
4.75801e-05
4.73496e-05
4.75079e-05
4.81075e-05
4.94385e-05
5.2674e-05
6.30999e-05
0.000104208
0.000284926
0.00106481
0.00381263
0.0111322
0.0262134
0.0516704
0.0889257
0.138198
0.198861
0.270071
0.351048
0.441318
0.540647
0.649114
0.767063
0.894998
1.03358
1.18361
1.34587
1.52059
1.70608
1.89398
2.05574
79.945
51.9676
106.569
208.647
306.671
410.242
566.417
778.611
1010.72
682.097
326.437
140.529
56.8486
33.5092
46.4058
55.4209
40.6082
24.9084
13.2776
5.80269
1.89761
0.328744
0.00874882
8.80823e-05
5.30417e-05
4.99376e-05
4.81295e-05
4.67168e-05
4.56715e-05
4.49761e-05
4.45857e-05
4.44646e-05
4.45899e-05
4.48917e-05
4.53348e-05
4.607e-05
4.73736e-05
5.0207e-05
5.97364e-05
0.000100124
0.000289364
0.00114313
0.00422195
0.0123638
0.0285284
0.0544611
0.0905069
0.136411
0.191942
0.256881
0.331341
0.415806
0.510786
0.616957
0.735062
0.865583
1.008
1.15929
1.31
1.43576
82.6693
54.1014
108.418
190.202
264.413
362.355
505.6
667.952
789.076
424.417
199.981
84.4056
36.2976
30.0913
51.9953
50.2375
33.8451
19.3495
9.27945
3.46922
0.817722
0.0515284
0.000190991
5.35411e-05
4.97466e-05
4.78041e-05
4.61986e-05
4.49293e-05
4.39428e-05
4.32249e-05
4.27618e-05
4.25303e-05
4.2479e-05
4.25423e-05
4.27601e-05
4.3185e-05
4.3714e-05
4.43333e-05
4.53351e-05
4.72513e-05
5.24219e-05
7.33533e-05
0.000175315
0.00068671
0.00278475
0.00881441
0.0211496
0.0411106
0.0692303
0.105779
0.151115
0.2058
0.270466
0.345858
0.432726
0.531506
0.64109
0.757708
0.871108
0.959161
78.4607
54.61
103.006
159.955
224.899
318.659
442.54
611.336
550.043
272.562
123.439
50.7044
25.4764
30.9544
53.5592
44.1987
27.5452
14.5096
6.12689
1.8581
0.247689
0.00230989
5.80204e-05
4.97989e-05
4.77956e-05
4.61335e-05
4.47305e-05
4.35979e-05
4.26697e-05
4.19544e-05
4.14609e-05
4.11581e-05
4.10038e-05
4.0988e-05
4.11287e-05
4.13728e-05
4.16842e-05
4.21596e-05
4.28401e-05
4.36573e-05
4.48971e-05
4.76093e-05
5.5722e-05
8.84699e-05
0.00024148
0.000936277
0.00338636
0.00943114
0.0205855
0.037791
0.0617428
0.0931316
0.132738
0.181383
0.239775
0.308157
0.385382
0.46717
0.542413
0.58548
72.8949
52.2535
90.82
132.273
191.116
281.644
407.66
577.126
358.65
172.843
74.915
30.8053
20.8572
34.9397
50.8379
37.2809
21.6737
10.3505
3.78249
0.828269
0.0380713
0.000111101
5.03469e-05
4.79603e-05
4.62187e-05
4.47485e-05
4.35252e-05
4.25142e-05
4.16682e-05
4.09898e-05
4.04826e-05
4.01349e-05
3.99418e-05
3.98978e-05
3.99645e-05
4.01034e-05
4.03505e-05
4.07356e-05
4.12158e-05
4.18216e-05
4.26804e-05
4.39183e-05
4.6215e-05
5.24685e-05
7.43925e-05
0.00016318
0.000528431
0.00181731
0.00521304
0.0119418
0.0229247
0.0389054
0.0606034
0.0887419
0.123893
0.166095
0.21397
0.262918
0.30111
0.299872
64.5848
48.6655
76.7481
111.177
166.791
263.254
416.111
458.412
233.115
108.085
44.4948
19.9252
20.2783
41.2621
45.6581
30.6799
16.5035
6.98837
2.10214
0.266154
0.0019594
5.36075e-05
4.80402e-05
4.62933e-05
4.48542e-05
4.35962e-05
4.25092e-05
4.16029e-05
4.08424e-05
4.02175e-05
3.97293e-05
3.93787e-05
3.91635e-05
3.90736e-05
3.90877e-05
3.91985e-05
3.94089e-05
3.96978e-05
4.00729e-05
4.05881e-05
4.12584e-05
4.21101e-05
4.33504e-05
4.55835e-05
5.11047e-05
6.88323e-05
0.000133748
0.000375291
0.00117859
0.00329655
0.00761174
0.0148388
0.0255225
0.040099
0.0588172
0.0813913
0.106245
0.128901
0.1389
0.114953
59.7359
41.6036
65.477
97.1805
154.557
270.543
438.527
313.245
152.567
66.2038
26.0983
14.8887
22.4632
45.0719
39.5078
24.2639
11.9864
4.41639
0.984427
0.0465272
0.000111738
4.86156e-05
4.65647e-05
4.50486e-05
4.37623e-05
4.26249e-05
4.16481e-05
4.0831e-05
4.01437e-05
3.95757e-05
3.91336e-05
3.88082e-05
3.85861e-05
3.8468e-05
3.84483e-05
3.85228e-05
3.86826e-05
3.89186e-05
3.92462e-05
3.96795e-05
4.02213e-05
4.09104e-05
4.18145e-05
4.30804e-05
4.52253e-05
5.00564e-05
6.4145e-05
0.000111183
0.000271363
0.000770994
0.00206688
0.00474379
0.00927893
0.0159287
0.0246672
0.0349916
0.04543
0.0526394
0.050208
0.0296813
50.1521
35.8238
56.4275
89.7369
159.567
318.983
424.222
217.175
98.2363
38.8608
15.6972
13.5985
26.9793
43.817
32.5261
18.5235
8.17398
2.52339
0.342023
0.00297042
5.25712e-05
4.67532e-05
4.51667e-05
4.38661e-05
4.27514e-05
4.17523e-05
4.08895e-05
4.01686e-05
3.95582e-05
3.90509e-05
3.86572e-05
3.8362e-05
3.81531e-05
3.8032e-05
3.79897e-05
3.80246e-05
3.81397e-05
3.83356e-05
3.86158e-05
3.89791e-05
3.94361e-05
4.00131e-05
4.07421e-05
4.1685e-05
4.29691e-05
4.49804e-05
4.90053e-05
5.92948e-05
8.9732e-05
0.000182979
0.000450895
0.00111894
0.00249188
0.0048039
0.00804657
0.0118211
0.015159
0.0163545
0.0132918
0.00556965
33.9833
35.0996
57.1449
95.3759
196.214
425.08
323.752
147.104
59.1497
21.3754
10.6692
14.8546
33.3303
38.9085
25.9534
13.5197
5.1972
1.22691
0.0684856
0.00014041
4.72793e-05
4.53694e-05
4.39778e-05
4.28158e-05
4.18235e-05
4.09471e-05
4.01992e-05
3.95791e-05
3.90554e-05
3.8619e-05
3.82722e-05
3.80036e-05
3.78124e-05
3.76989e-05
3.76482e-05
3.76629e-05
3.77507e-05
3.79096e-05
3.81387e-05
3.84445e-05
3.8834e-05
3.9315e-05
3.99152e-05
4.06748e-05
4.16425e-05
4.2921e-05
4.47816e-05
4.79993e-05
5.48338e-05
7.16954e-05
0.000115734
0.000225648
0.000470498
0.000930481
0.00162494
0.00241047
0.00291973
0.00266133
0.00150679
0.000364847
35.9922
35.4818
67.5555
120.26
279.313
491.797
221.177
88.4658
31.2297
11.4718
9.20873
18.1002
37.9144
32.7094
19.703
9.25942
2.99018
0.451547
0.00523315
5.31125e-05
4.55293e-05
4.4088e-05
4.28959e-05
4.18902e-05
4.10118e-05
4.02416e-05
3.95933e-05
3.90553e-05
3.8605e-05
3.82335e-05
3.7934e-05
3.76973e-05
3.75267e-05
3.74214e-05
3.73716e-05
3.73837e-05
3.74597e-05
3.75929e-05
3.77854e-05
3.80457e-05
3.83753e-05
3.87783e-05
3.92745e-05
3.98895e-05
4.06555e-05
4.16237e-05
4.28806e-05
4.45924e-05
4.71452e-05
5.15119e-05
5.98557e-05
7.68272e-05
0.000110001
0.000166812
0.000245016
0.000318029
0.000335346
0.000266952
0.000161662
9.29417e-05
64.1339
39.4211
82.0821
166.923
396.066
310.981
123.707
43.7924
14.4036
7.17707
10.0954
23.4016
35.5952
26.0846
14.2864
5.8016
1.46734
0.0988594
0.000197822
4.632e-05
4.43848e-05
4.3082e-05
4.19996e-05
4.11006e-05
4.03242e-05
3.9651e-05
3.90879e-05
3.86157e-05
3.82176e-05
3.78907e-05
3.76296e-05
3.74258e-05
3.72792e-05
3.71873e-05
3.71454e-05
3.71579e-05
3.72252e-05
3.73438e-05
3.7514e-05
3.77392e-05
3.80222e-05
3.83658e-05
3.87814e-05
3.92842e-05
3.98929e-05
4.06431e-05
4.15876e-05
4.27932e-05
4.43547e-05
4.64402e-05
4.94336e-05
5.38938e-05
6.0569e-05
7.01197e-05
8.178e-05
9.22131e-05
9.64894e-05
9.18282e-05
7.98948e-05
6.44695e-05
88.742
54.764
103.821
250.661
382.19
155.575
55.7159
17.7867
6.82455
6.32608
12.7075
30.168
31.1235
19.9811
9.74841
3.27276
0.546148
0.00833649
5.50033e-05
4.47177e-05
4.33413e-05
4.2202e-05
4.12471e-05
4.04368e-05
3.97391e-05
3.914e-05
3.86474e-05
3.82383e-05
3.78922e-05
3.76076e-05
3.73796e-05
3.72031e-05
3.7078e-05
3.70018e-05
3.697e-05
3.6983e-05
3.70426e-05
3.71475e-05
3.72971e-05
3.74939e-05
3.77394e-05
3.80347e-05
3.83885e-05
3.88089e-05
3.93034e-05
3.98912e-05
4.06067e-05
4.14946e-05
4.26041e-05
4.40003e-05
4.5762e-05
4.80367e-05
5.103e-05
5.48253e-05
5.93227e-05
6.40186e-05
6.77811e-05
6.8933e-05
6.57035e-05
5.76989e-05
88.2071
69.2769
152.298
368.533
167.535
61.0743
19.499
6.72748
4.61937
7.40297
16.9528
31.9112
25.0188
14.3459
6.0486
1.56479
0.120799
0.000265394
4.55916e-05
4.36103e-05
4.23855e-05
4.13633e-05
4.05219e-05
3.98113e-05
3.92051e-05
3.86842e-05
3.82578e-05
3.79043e-05
3.76076e-05
3.73679e-05
3.71782e-05
3.7031e-05
3.69259e-05
3.68636e-05
3.68401e-05
3.68545e-05
3.69091e-05
3.70017e-05
3.71321e-05
3.73031e-05
3.75145e-05
3.77667e-05
3.80662e-05
3.84184e-05
3.88274e-05
3.93019e-05
3.98572e-05
4.05173e-05
4.13136e-05
4.22855e-05
4.3488e-05
4.49743e-05
4.67783e-05
4.89703e-05
5.15731e-05
5.44117e-05
5.69365e-05
5.80853e-05
5.66421e-05
5.23391e-05
82.2329
88.3934
233.4
143.856
53.3214
17.34
5.97913
3.59725
4.90394
9.83352
22.914
28.1774
19.1783
9.5859
3.25924
0.562587
0.0101038
5.64865e-05
4.39571e-05
4.26291e-05
4.1541e-05
4.06318e-05
3.98797e-05
3.92528e-05
3.8729e-05
3.82865e-05
3.79295e-05
3.7632e-05
3.73806e-05
3.71798e-05
3.7024e-05
3.69042e-05
3.6819e-05
3.67699e-05
3.67525e-05
3.67673e-05
3.68173e-05
3.69001e-05
3.7015e-05
3.71638e-05
3.7346e-05
3.75612e-05
3.78126e-05
3.81033e-05
3.84367e-05
3.88195e-05
3.92592e-05
3.97641e-05
4.03461e-05
4.10275e-05
4.18394e-05
4.28119e-05
4.39895e-05
4.53903e-05
4.70011e-05
4.87564e-05
5.04242e-05
5.14593e-05
5.1087e-05
4.90249e-05
141.277
251.537
109.119
37.3662
12.322
4.62942
2.81403
3.51832
6.49022
13.6795
27.1193
22.7462
13.3691
5.73583
1.47882
0.121932
0.000327381
4.56334e-05
4.31103e-05
4.18684e-05
4.08536e-05
4.00294e-05
3.93541e-05
3.87993e-05
3.83408e-05
3.79593e-05
3.76568e-05
3.74087e-05
3.72022e-05
3.70386e-05
3.69116e-05
3.68135e-05
3.67453e-05
3.67088e-05
3.66991e-05
3.67159e-05
3.67615e-05
3.68346e-05
3.69351e-05
3.70642e-05
3.72214e-05
3.74063e-05
3.76192e-05
3.78602e-05
3.81297e-05
3.84315e-05
3.87713e-05
3.91546e-05
3.95858e-05
4.00712e-05
4.06227e-05
4.12616e-05
4.20001e-05
4.28517e-05
4.38245e-05
4.48921e-05
4.59584e-05
4.67877e-05
4.70212e-05
4.65162e-05
42.0474
62.817
20.5836
7.30953
3.30199
2.23872
2.65121
4.67925
9.24622
19.323
24.1035
16.8173
8.62591
2.97929
0.522049
0.0133497
9.50385e-05
4.43811e-05
4.24479e-05
4.13019e-05
4.03549e-05
3.95817e-05
3.89538e-05
3.84456e-05
3.80308e-05
3.76911e-05
3.74227e-05
3.72063e-05
3.70307e-05
3.68955e-05
3.67953e-05
3.67212e-05
3.66723e-05
3.66506e-05
3.66523e-05
3.66757e-05
3.67223e-05
3.67915e-05
3.68829e-05
3.69963e-05
3.71318e-05
3.72894e-05
3.7469e-05
3.76697e-05
3.78903e-05
3.81297e-05
3.83888e-05
3.86703e-05
3.8978e-05
3.93162e-05
3.96892e-05
4.00997e-05
4.05562e-05
4.10676e-05
4.16346e-05
4.2249e-05
4.28838e-05
4.34739e-05
4.39724e-05
4.45244e-05
4.9373e-05
6.42913e-05
8.40056e-05
0.000112079
0.000153984
0.000218511
0.000319413
0.000477874
0.000725521
0.00110928
0.00169992
0.00260951
0.00403181
0.00634438
0.0103865
0.0182535
0.0356517
0.0792554
0.206602
0.884567
4.8533e-05
6.12947e-05
7.80863e-05
0.000102206
0.000138796
0.00019641
0.000289061
0.00043952
0.000683805
0.00107846
0.00171299
0.00273396
0.00439943
0.00721768
0.0123403
0.0227745
0.0473128
0.112989
0.305502
1.1987
4.7712e-05
5.83442e-05
7.22731e-05
9.24238e-05
0.000123383
0.000172981
0.000254555
0.000390812
0.000619568
0.00100338
0.00164598
0.00272281
0.00454679
0.00772998
0.0136338
0.0257375
0.0538441
0.125327
0.311604
0.780067
4.69384e-05
5.55525e-05
6.68041e-05
8.31948e-05
0.000108629
0.000149879
0.000218808
0.00033638
0.000539021
0.000889764
0.00149756
0.00255229
0.00439557
0.00768307
0.0138072
0.0260962
0.0531665
0.116554
0.260475
0.54989
4.62343e-05
5.30059e-05
6.18567e-05
7.48625e-05
9.52156e-05
0.000128481
0.000184567
0.00028143
0.000451246
0.000751642
0.00128565
0.00223749
0.00394115
0.00702443
0.012748
0.0238757
0.0468568
0.0960638
0.197008
0.38524
4.56144e-05
5.07592e-05
5.75343e-05
6.7624e-05
8.35579e-05
0.000109716
0.000153928
0.000230554
0.000365775
0.000607473
0.00104318
0.00183231
0.00326572
0.00588115
0.0107045
0.0197941
0.0374447
0.0722519
0.138475
0.253123
4.50868e-05
4.88392e-05
5.3875e-05
6.15418e-05
7.38064e-05
9.40104e-05
0.000128074
0.000186836
0.00029011
0.000474356
0.0008067
0.00141011
0.00250896
0.00451224
0.00816905
0.0148713
0.0272348
0.0499898
0.0904804
0.156809
4.46541e-05
4.72497e-05
5.08661e-05
5.65774e-05
6.59077e-05
8.1366e-05
0.0001073
0.000151551
0.000228291
0.00036336
0.000603868
0.00103514
0.00181065
0.00320428
0.0056996
0.0101411
0.0179807
0.0316057
0.054472
0.0903523
4.43153e-05
4.59777e-05
4.84573e-05
5.26208e-05
5.96716e-05
7.14965e-05
9.12499e-05
0.000124477
0.000180968
0.000278168
0.00044709
0.000742288
0.00125859
0.00215846
0.00371444
0.00637175
0.0108351
0.0181658
0.0297987
0.0472652
4.40672e-05
4.49969e-05
4.65693e-05
4.95216e-05
5.48443e-05
6.39781e-05
7.92304e-05
0.000104525
0.000146564
0.000216884
0.000335278
0.000535225
0.000872265
0.00143583
0.00236352
0.00385541
0.00618984
0.0097438
0.0149931
0.0224109
4.3908e-05
4.42603e-05
4.50931e-05
4.71257e-05
5.11943e-05
5.8407e-05
7.05e-05
9.03334e-05
0.000122591
0.000174961
0.000260061
0.000398426
0.000623125
0.000985324
0.00155528
0.00241288
0.00363636
0.00531373
0.00758208
0.0106117
4.4039e-05
4.37629e-05
4.4125e-05
4.57188e-05
4.92162e-05
5.54811e-05
6.58666e-05
8.2515e-05
0.000108716
0.000149544
0.000212996
0.000311811
0.000467691
0.000724663
0.00115731
0.00189375
0.00325115
0.00590057
0.0114911
0.0234885
0.000490393
8.7365e-05
0.000137927
0.000192386
0.000248199
0.000309606
0.000390319
0.000516426
0.000733759
0.00117463
0.00218432
0.00426454
0.00800392
0.0143679
0.025647
0.044982
0.0753939
0.121713
0.179652
0.259713
0.0370493
0.0150819
0.0171429
0.0188476
0.0216662
0.0261726
0.0330393
0.0427948
0.0563336
0.0749093
0.0996297
0.130099
0.146141
0.166791
0.23048
0.328211
0.480107
0.690774
0.757785
1.19038
0.00415716
0.00736863
0.0149457
0.0268923
0.04408
0.0650512
0.0913449