/*--------------------------------*- C++ -*----------------------------------*\
| =========                 |                                                 |
| \\      /  F ield         | OpenFOAM: The Open Source CFD Toolbox           |
|  \\    /   O peration     | Version:  v1912                                 |
|   \\  /    A nd           | Website:  www.openfoam.com                      |
|    \\/     M anipulation  |                                                 |
\*---------------------------------------------------------------------------*/
FoamFile
{
    version     2.0;
    format      ascii;
    class       volScalarField;
    location    "42";
    object      k;
}
// * * * * * * * * * * * * * * * * * * * * * * * * * * * * * * * * * * * * * //

dimensions      [0 2 -2 0 0 0 0];


internalField   nonuniform List<scalar> 
20320
(
0.00413928
0.00425411
0.00433108
0.00440652
0.00447991
0.0045507
0.00461824
0.00468169
0.0047401
0.00479237
0.00483729
0.00487339
0.0048991
0.00491266
0.00491187
0.00489349
0.00485068
0.00476783
0.00460258
0.00417586
0.00415076
0.00414919
0.00419439
0.00429132
0.00446026
0.00472123
0.00509266
0.00559132
0.00623177
0.00702591
0.00798446
0.00911629
0.0104276
0.0119219
0.0135904
0.0154047
0.0172527
0.0188544
0.0195184
0.0175453
0.00417738
0.00421761
0.0043039
0.00444322
0.00466121
0.00498939
0.00546749
0.00614458
0.00707868
0.00833268
0.0099654
0.0120211
0.0145192
0.0174438
0.02073
0.0242366
0.0276832
0.0305011
0.0313829
0.0274926
0.00421512
0.00431988
0.00447442
0.00468055
0.00496428
0.00535839
0.00590607
0.0066656
0.00771529
0.00915698
0.0111128
0.013708
0.0170383
0.021127
0.0258841
0.0310625
0.0361801
0.0403234
0.0415539
0.0359042
0.0042614
0.00445071
0.00469395
0.00498737
0.00535636
0.00583366
0.00646311
0.00730486
0.00844264
0.00999315
0.0121142
0.0150008
0.0188526
0.0237992
0.029795
0.0365169
0.0432694
0.0487802
0.0504957
0.0434716
0.00431458
0.00460758
0.00496009
0.00536296
0.00584021
0.00642378
0.00715709
0.00810021
0.00933758
0.0109898
0.013229
0.01629
0.020458
0.0259948
0.0329766
0.0410828
0.0494186
0.0563045
0.0585421
0.0504262
0.00437266
0.00478532
0.00526532
0.00579838
0.0064063
0.00711937
0.00797976
0.00904652
0.0104034
0.0121714
0.0145274
0.0177259
0.0221082
0.0280535
0.0357968
0.0451056
0.0549458
0.0632022
0.0659712
0.056955
0.00443332
0.00497767
0.00560012
0.00628195
0.00704211
0.00790844
0.00892085
0.0101364
0.0116372
0.0135431
0.0160324
0.0193688
0.023928
0.0301794
0.0385177
0.0488546
0.0600905
0.0696781
0.0729601
0.0632162
0.00449388
0.00517696
0.00595217
0.00679774
0.00772964
0.00877278
0.00996402
0.0113575
0.0130322
0.0151062
0.017757
0.0212528
0.0259905
0.0325065
0.0413389
0.0525735
0.0651162
0.0760239
0.0798414
0.0693843
0.00455142
0.00537414
0.00630624
0.00732526
0.00844483
0.00968717
0.0110858
0.0126909
0.0145775
0.0168598
0.0197136
0.0234086
0.0283555
0.0351409
0.0444265
0.0564806
0.0702671
0.0824838
0.0868324
0.0756543
0.00460286
0.00555908
0.00664465
0.0078398
0.00915761
0.010619
0.0122544
0.0141101
0.0162558
0.0188003
0.0219156
0.0258713
0.0310872
0.0381888
0.0479445
0.0608033
0.0758241
0.0893762
0.0942582
0.082246
0.00464525
0.00572119
0.00694823
0.00831361
0.00983296
0.0115285
0.01343
0.0155798
0.0180422
0.0209191
0.024377
0.0286832
0.0342639
0.0417767
0.052084
0.0658105
0.0821347
0.0971138
0.102546
0.0894133
0.00467603
0.00585044
0.0071981
0.0087182
0.0104332
0.0123712
0.0145645
0.017055
0.0199021
0.0232008
0.0271103
0.0318944
0.0379844
0.0460673
0.057093
0.0718585
0.089677
0.106283
0.112301
0.0975897
0.00469335
0.00593846
0.00737767
0.00902699
0.010921
0.0130993
0.0156034
0.0184798
0.0217874
0.0256162
0.0301195
0.0355577
0.0423688
0.0512717
0.0633076
0.0794512
0.0991625
0.1178
0.124481
0.107385
0.00469632
0.00597965
0.00747476
0.0092185
0.0112629
0.0136664
0.0164877
0.0197875
0.0236325
0.0281155
0.0333891
0.0397165
0.0475506
0.0576557
0.071186
0.089326
0.11171
0.133224
0.140894
0.120082
0.00468513
0.00597203
0.00748342
0.00927941
0.011434
0.0140315
0.0171584
0.020902
0.0253522
0.0306187
0.0368688
0.0443845
0.0536558
0.0655295
0.0813351
0.102563
0.129109
0.155216
0.164673
0.138126
0.00466108
0.00591755
0.00740493
0.00920665
0.0114213
0.014165
0.0175622
0.021743
0.0268406
0.0330069
0.0404516
0.0495093
0.0607551
0.0751986
0.0944928
0.120694
0.154302
0.188858
0.202664
0.166898
0.00462634
0.00582184
0.0072477
0.00900818
0.0112264
0.0140531
0.017659
0.0222329
0.0279761
0.0351167
0.0439504
0.0549221
0.0687771
0.0868371
0.111382
0.145656
0.191859
0.243788
0.270644
0.22115
0.00458366
0.00569336
0.00702604
0.00870207
0.0108659
0.0137017
0.01743
0.0223099
0.0286351
0.0367484
0.047088
0.0602892
0.0773931
0.100266
0.132323
0.179247
0.247812
0.337192
0.406971
0.349203
0.00453599
0.00554215
0.00675804
0.008314
0.0103699
0.0131374
0.0168837
0.021942
0.0287137
0.0376904
0.0495102
0.0650879
0.0859046
0.114644
0.156513
0.2215
0.326496
0.491125
0.693546
0.750231
0.56068
0.734854
0.873656
0.894647
0.8096
0.84484
1.1977
1.96027
3.11281
5.23985
11.0148
15.1785
21.4914
28.5505
36.7421
50.9827
92.9525
137.155
150.054
131.008
97.8067
72.835
60.5046
53.0349
46.428
38.802
31.9221
22.9254
17.0372
14.8171
13.5052
12.4316
11.5176
10.7298
10.0218
9.38872
8.84916
8.4085
7.99728
7.55538
7.16132
6.8644
6.6615
6.41588
6.18182
6.01241
5.80915
5.64884
5.57703
5.51913
5.38704
5.22754
5.1779
5.30321
5.44517
5.37692
5.22811
5.14786
5.05809
4.99437
0.867178
1.96904
2.35773
2.47905
2.43257
2.6771
3.80616
6.19167
10.0186
14.6377
26.0252
39.8997
55.3112
76.2683
108.657
174.502
363.257
536.729
603.74
331.631
196.811
139.064
108.651
91.4586
79.924
68.3377
56.5953
44.8206
39.0918
35.585
32.5215
29.7799
27.4045
25.3451
23.5171
21.9052
20.523
19.3241
18.217
17.1714
16.2456
15.5092
14.8882
14.3011
13.7751
13.3278
12.8987
12.5723
12.3595
12.1245
11.8447
11.5975
11.5355
11.6414
11.6617
11.5373
11.3373
11.1448
10.9568
10.8381
1.12839
2.63315
3.13347
3.34919
3.42625
3.83959
5.41313
8.65606
13.7625
21.5509
31.0191
46.6213
67.075
96.9834
147.385
258.382
528.995
672.14
383.844
244.104
171.916
132.954
109.155
93.1168
81.2395
71.3306
62.387
54.8369
49.2049
44.6722
40.7631
37.375
34.4604
31.9386
29.7275
27.7884
26.1022
24.6233
23.2852
22.0626
20.9906
20.0937
19.3286
18.6464
18.0539
17.5411
17.0924
16.746
16.4798
16.2227
15.9749
15.7959
15.7429
15.7595
15.7264
15.5953
15.4028
15.1906
14.9862
14.8613
1.29793
3.24535
3.89745
4.22777
4.46211
5.04441
6.97505
10.8722
16.6422
25.0859
35.4801
51.6452
75.2919
111.907
177.429
327.4
690.277
418.111
261.374
184.084
142.599
117.522
100.709
88.5515
79.1419
71.3743
64.6175
58.5975
53.3683
48.8033
44.8033
41.3213
38.3054
35.6833
33.387
31.3747
29.6156
28.0676
26.6841
25.4476
24.3732
23.4663
22.6981
22.038
21.4813
21.0123
20.6234
20.3284
20.1018
19.902
19.7375
19.645
19.6241
19.6254
19.5758
19.4371
19.2417
19.0212
18.8007
18.6577
1.51225
3.84935
4.72377
5.24159
5.67906
6.47201
8.6396
12.9838
19.2823
27.8451
39.4223
56.6487
82.3643
123.401
198.14
373.279
462.492
280.849
191.935
145.869
119.386
102.302
90.1962
81.0854
73.8908
67.9437
62.8017
58.1226
53.7625
49.7495
46.132
42.9283
40.1215
37.6666
35.516
33.6317
31.9829
30.5369
29.2626
28.1463
27.1903
26.3905
25.7275
25.1825
24.7455
24.3957
24.1211
23.9278
23.7985
23.704
23.6512
23.6571
23.6919
23.7138
23.6685
23.5247
23.3274
23.1015
22.8642
22.7013
1.80815
4.51127
5.65778
6.45303
7.15999
8.22443
10.5771
15.1535
22.0034
31.1902
43.9303
62.3084
89.7366
133.64
213.653
398.53
301.181
203.477
150.945
120.839
102.095
89.3665
80.0718
72.9736
67.3734
62.7992
58.8952
55.3656
51.9865
48.7587
45.7785
43.101
40.7364
38.6638
36.8519
35.2691
33.8896
32.6922
31.6585
30.7768
30.0405
29.4394
28.9602
28.5928
28.3279
28.1398
28.0095
27.9437
27.9354
27.963
28.0373
28.1541
28.2564
28.3146
28.2773
28.1275
27.9437
27.7169
27.4686
27.3047
2.08645
5.24537
6.7311
7.90303
8.97421
10.3577
12.9136
17.6046
24.9786
35.1763
49.2406
69.1128
98.5556
145.444
228.165
329.133
223.447
161.749
125.82
103.581
88.9382
78.6872
71.1241
65.3557
60.8602
57.284
54.3552
51.7964
49.3742
47.0203
44.8254
42.8435
41.0893
39.5587
38.2344
37.0886
36.1006
35.261
34.5631
33.9965
33.5462
33.1966
32.9394
32.7732
32.6916
32.666
32.6796
32.7431
32.8459
32.9752
33.1882
33.431
33.5906
33.713
33.668
33.4788
33.2441
32.9641
32.6952
32.5908
2.25938
6.05749
7.96749
9.6313
11.1773
12.937
15.7256
20.579
28.4323
39.7439
55.3784
77.2586
109.442
160.571
249.799
260.349
182.799
137.106
108.972
90.8055
78.5959
70.0298
63.7095
58.8658
55.1138
52.2657
50.1741
48.6004
47.1972
45.8595
44.6099
43.4525
42.3975
41.4727
40.692
40.0457
39.5111
39.0857
38.7704
38.5505
38.397
38.295
38.2486
38.2653
38.331
38.413
38.5281
38.7071
38.8868
39.0311
39.2984
39.5088
39.5236
39.2482
38.6448
37.952
37.3992
36.9172
36.6347
36.6565
2.57901
6.98841
9.40419
11.6884
13.8295
16.0302
19.0881
24.1851
32.5752
45.0524
62.5172
86.9954
122.878
180.073
284.976
218.198
157.515
120.256
96.4193
80.8068
70.4775
63.4346
58.1008
53.7873
50.5182
48.119
46.5178
45.5582
44.9939
44.5975
44.1856
43.7218
43.2258
42.7813
42.472
42.3175
42.285
42.3434
42.4653
42.607
42.7206
42.8041
42.9027
43.043
43.1882
43.2917
43.4114
43.5933
43.7159
43.6169
43.4096
43.0611
42.4692
41.8793
41.144
40.4029
39.9817
39.6515
39.5618
39.8139
3.03356
8.06698
11.0911
14.1386
17.0083
19.7282
23.1052
28.4985
37.5237
51.3053
70.9245
98.5845
139.437
205.565
268.813
189.163
139.094
107.174
86.3165
72.862
64.4571
58.8566
53.9189
50.0356
47.071
44.9081
43.5002
42.7228
42.3815
42.2699
42.2649
42.2224
42.1282
42.0777
42.1445
42.3111
42.551
42.8549
43.2085
43.5527
43.8215
44.0138
44.187
44.368
44.5199
44.6072
44.6784
44.7533
44.7202
44.5027
44.3222
43.9227
43.2321
42.6818
42.1567
41.7251
41.569
41.5476
41.7761
42.3081
3.29651
9.26473
13.0732
17.0605
20.8198
24.1695
27.9378
33.6862
43.4352
58.7127
80.8541
112.435
159.836
238.232
234.108
166.496
124.041
96.0933
77.8728
66.7398
60.5014
55.2131
50.8455
47.1642
44.2742
42.1557
40.7976
40.0773
39.8022
39.8301
40.0864
40.3784
40.6124
40.8414
41.1128
41.4049
41.7067
42.0454
42.4333
42.8152
43.1211
43.3429
43.5242
43.6856
43.7991
43.8477
43.863
43.8508
43.755
43.5921
43.5068
43.249
42.8002
42.4956
42.3002
42.2481
42.4105
42.7312
43.2892
44.0717
3.46141
10.5315
15.3804
20.537
25.3938
29.5317
33.7897
39.9757
50.5556
67.5694
92.7045
129.126
184.837
277.712
202.211
147.505
110.857
86.2835
70.8468
62.3793
57.3567
52.6429
48.1949
44.401
41.4078
39.2345
37.8536
37.1518
36.9418
37.094
37.5409
38.0975
38.6097
39.0667
39.4793
39.8269
40.1164
40.403
40.7232
41.0423
41.3029
41.4915
41.634
41.7438
41.8072
41.8225
41.813
41.7885
41.7421
41.7224
41.7809
41.7493
41.6403
41.6548
41.8006
42.0934
42.5561
43.1765
43.999
44.9505
3.55587
11.8248
18.0281
24.6478
30.8823
36.0316
40.9192
47.654
59.2154
78.2894
106.992
149.284
215.944
244.052
177.228
131.052
98.898
77.5432
65.2823
59.6212
55.2701
50.1366
45.289
41.1953
38.0154
35.7511
34.3361
33.6518
33.5248
33.8181
34.4336
35.2026
35.949
36.6047
37.1435
37.544
37.8266
38.0589
38.2925
38.5175
38.6984
38.8243
38.9126
38.9725
39.004
39.017
39.0337
39.0718
39.1489
39.3036
39.5359
39.748
39.9574
40.2706
40.7049
41.2667
41.9636
42.7981
43.7832
44.8056
3.75942
13.1301
21.0274
29.4595
37.4408
43.9472
49.6849
57.1221
69.8687
91.4268
124.486
174.002
252.879
213.267
157.044
116.506
87.9048
69.9703
61.3187
57.8652
53.0903
47.2891
41.8463
37.383
34.0126
31.67
30.2422
29.5956
29.5656
30.002
30.7709
31.7029
32.6348
33.451
34.1
34.5599
34.8579
35.0627
35.2312
35.3748
35.4812
35.5529
35.6017
35.6395
35.677
35.7305
35.8223
35.9727
36.2018
36.5273
36.9298
37.3547
37.8128
38.3556
38.996
39.7368
40.5806
41.53
42.5738
43.5818
4.3851
14.8179
24.439
35.0241
45.1989
53.5661
60.5628
68.9604
83.121
107.642
146.074
204.875
261.114
190.451
140.185
103.201
77.8475
63.8054
59.0894
56.003
50.3863
43.878
37.8841
33.0875
29.5677
27.1871
25.7824
25.1973
25.2649
25.821
26.7056
27.7461
28.7869
29.7109
30.4388
30.9513
31.2773
31.4799
31.6155
31.7104
31.7777
31.8265
31.8714
31.9285
32.014
32.1461
32.3443
32.6246
32.9989
33.4682
34.0093
34.5907
35.2152
35.9046
36.6656
37.4989
38.405
39.3816
40.4034
41.3421
5.2623
17.1609
28.3972
41.3828
54.2442
65.165
74.1074
83.9763
99.91
127.876
172.601
243.32
237.841
172.678
125.216
90.6998
68.9166
59.3407
57.6504
53.4819
47.0034
39.909
33.5279
28.5167
24.9248
22.561
21.2174
20.7104
20.86
21.4904
22.4301
23.51
24.5812
25.5336
26.2979
26.8429
27.1964
27.4129
27.5481
27.6408
27.7116
27.7789
27.8618
27.9784
28.1456
28.3789
28.6918
29.093
29.5846
30.1583
30.7937
31.4707
32.1864
32.9481
33.7578
34.615
35.5188
36.463
37.4172
38.266
6.18824
19.8557
32.8549
48.517
64.6092
79.003
90.9621
103.293
121.775
153.879
205.537
286.541
219.866
157.377
110.913
78.8837
61.4748
56.8654
55.543
50.2392
43.0002
35.499
28.9307
23.8619
20.2985
18.0126
16.7624
16.336
16.5381
17.186
18.1101
19.1541
20.1844
21.1006
21.8423
22.3905
22.7652
23.0119
23.1798
23.307
23.4218
23.5475
23.7041
23.9088
24.1751
24.5134
24.9304
25.4279
26.0014
26.6396
27.3261
28.047
28.7972
29.5772
30.3865
31.2244
32.0893
32.9742
33.8502
34.6159
6.91978
22.5875
37.5349
56.1884
76.2221
95.2106
111.736
128.29
151.081
188.808
250.164
300.423
207.811
142.673
96.6585
68.0519
55.9442
55.379
52.8743
46.4535
38.5662
30.8244
24.2527
19.28
15.849
13.7006
12.5665
12.2103
12.425
13.0313
13.8731
14.8145
15.7432
16.5757
17.2634
17.7927
18.1812
18.4652
18.685
18.8761
19.0667
19.279
19.5307
19.8348
20.2003
20.6322
21.132
21.6968
22.3194
22.9893
23.6941
24.4239
25.1735
25.9408
26.7249
27.5254
28.3414
29.1678
29.9792
30.6831
7.85149
25.1455
42.1357
64.1144
88.9071
113.786
136.98
160.618
191.424
237.859
307.795
294.654
195.266
127.061
82.4517
58.8026
52.6524
53.7705
49.4993
42.1489
33.839
26.0498
19.6416
14.9005
11.6966
9.73937
8.73568
8.43015
8.61527
9.12736
9.83391
10.625
11.4123
12.1318
12.7465
13.2474
13.6482
13.9761
14.2624
14.5353
14.8179
15.1277
15.4775
15.8756
16.3268
16.8322
17.39
17.9957
18.6424
19.3216
20.0247
20.7447
21.4773
22.2206
22.9738
23.7375
24.5127
25.2961
26.0656
26.7307
8.31345
27.3211
46.4093
72.0419
102.487
134.797
167.177
201.941
247.688
313.33
404.435
292.775
179.995
109.748
68.8715
51.7596
51.5301
51.3616
45.5661
37.4532
28.9539
21.3179
15.2264
10.8351
7.94581
6.23236
5.37353
5.10074
5.22097
5.59986
6.1373
6.75277
7.38157
7.97755
8.51401
8.98439
9.3974
9.77092
10.1257
10.4808
10.8518
11.2501
11.6834
12.1563
12.6704
13.2249
13.8171
14.4424
15.0956
15.7705
16.4617
17.1646
17.8763
18.5956
19.3227
20.0593
20.8076
21.5659
22.3124
22.9541
7.85596
28.9201
50.3577
79.9418
116.998
158.63
203.385
254.545
324.477
429.598
505.218
279.002
158.48
91.0591
56.9303
47.2779
50.8507
48.3628
41.1982
32.5415
24.067
16.7605
11.1208
7.18967
4.71183
3.31736
2.63211
2.39095
2.43048
2.65633
3.00715
3.43522
3.90014
4.37183
4.82781
5.26195
5.67705
6.08148
6.48616
6.90119
7.33485
7.79324
8.28031
8.79798
9.34623
9.92368
10.5276
11.1545
11.8006
12.4621
13.1357
13.8187
14.5099
15.2088
15.9165
16.6351
17.3674
18.1116
18.844
19.4675
7.99541
30.2069
54.2127
88.1283
133.001
186.395
246.723
319.646
412.023
554.616
495.558
246.234
131.57
72.6858
47.5958
45.3502
49.5703
44.7784
36.5026
27.5738
19.3269
12.5001
7.43097
4.11208
2.18685
1.19547
0.750502
0.587999
0.573756
0.655522
0.814886
1.04136
1.32261
1.64368
1.99168
2.35739
2.73733
3.12921
3.53656
3.9629
4.41129
4.88405
5.38241
5.90658
6.45565
7.02767
7.62024
8.23057
8.85602
9.49441
10.1441
10.8038
11.4733
12.1529
12.8438
13.5481
14.2678
14.9993
15.716
16.3177
9.4428
32.4811
58.6201
96.8553
150.996
216.989
265.706
325.271
420.546
578.59
382.741
195.904
102.785
56.6579
41.2954
45.7851
47.3894
40.6821
31.6548
22.7116
14.8646
8.64173
4.34804
1.80417
0.569041
0.140713
0.0396048
0.0189848
0.0155262
0.018486
0.0292979
0.0557482
0.111141
0.209876
0.360671
0.563696
0.81375
1.10514
1.43404
1.79643
2.19104
2.61733
3.07422
3.55983
4.07175
4.60709
5.16277
5.73596
6.32461
6.92734
7.54333
8.17233
8.81457
9.47072
10.1418
10.8288
11.5316
12.2439
12.9355
13.5065
11.0382
36.3772
64.1986
106.117
168.559
215.255
255.633
312.228
396.121
456.12
268.758
146.458
77.2074
44.2958
37.8894
46.1374
44.5934
36.2683
26.8313
18.0971
10.7842
5.38789
2.03077
0.420679
0.0304511
0.00614781
0.00527159
0.00510946
0.0050408
0.00501564
0.00503003
0.00510366
0.00534723
0.00630797
0.0104391
0.0255987
0.0673074
0.15342
0.295061
0.494684
0.749835
1.05692
1.41053
1.80628
2.23882
2.70278
3.19317
3.70597
4.23857
4.78953
5.35821
5.9447
6.54933
7.17258
7.81477
8.47547
9.15173
9.83295
10.4859
11.0147
12.5423
40.4843
70.7298
116.434
166.893
203.123
242.878
297.221
354.948
323.561
193.41
107.231
56.8794
35.7297
36.984
46.0245
40.8805
31.6452
22.1682
13.8296
7.25338
2.869
0.580454
0.0222565
0.00538941
0.00505797
0.00492897
0.00483192
0.00476416
0.00472503
0.00471231
0.00472317
0.00475386
0.00480004
0.00485984
0.0049845
0.00545441
0.00752656
0.016109
0.0438587
0.110242
0.232728
0.419545
0.669951
0.97745
1.33276
1.72733
2.15432
2.60939
3.08974
3.59422
4.12263
4.67497
5.25121
5.85077
6.47146
7.10703
7.74229
8.34042
8.81344
13.7451
43.6796
76.4293
120.325
156.9
190.064
231.348
277.577
314.246
234.909
140.438
77.4197
41.66
30.5334
38.1941
44.0651
36.895
27.0725
17.7813
9.99627
4.41685
1.13064
0.0533548
0.0053715
0.00501845
0.00485752
0.00473991
0.00464691
0.00457847
0.00453397
0.0045107
0.00450632
0.00451918
0.00454413
0.0045773
0.00462353
0.00468291
0.00475176
0.00489783
0.00544847
0.00789747
0.018332
0.0528119
0.134882
0.281099
0.492993
0.76195
1.07803
1.43391
1.82416
2.24594
2.6985
3.1809
3.6924
4.2316
4.79462
5.37202
5.94373
6.46856
6.86738
14.1131
45.2293
78.1894
115.142
145.028
178.177
218.313
254.309
268.377
174.087
101.929
54.8361
30.986
28.1764
40.5976
41.1244
32.4935
22.6199
13.7138
6.79019
2.27228
0.233206
0.0059563
0.00500153
0.00483189
0.0047048
0.00459805
0.00451339
0.0044478
0.00440074
0.00437152
0.00435872
0.0043589
0.00436755
0.00438735
0.00442178
0.00446341
0.00450944
0.00457229
0.00465769
0.00479273
0.00519412
0.0069131
0.0148063
0.0439781
0.118086
0.251454
0.442669
0.684188
0.969011
1.29268
1.65287
2.04783
2.47607
2.93538
3.42075
3.91935
4.40678
4.83564
5.12722
13.6792
45.7819
76.5191
104.521
132.077
165.104
200.581
236.181
210.368
128.417
72.3765
38.0244
24.2975
28.1401
41.1174
37.6335
28.1153
18.3937
10.0984
4.19283
0.851849
0.0175546
0.00500198
0.0048214
0.00469264
0.00458175
0.00448761
0.00441141
0.00434907
0.00430145
0.00426942
0.00425102
0.00424339
0.00424587
0.00425971
0.00428127
0.00430807
0.00434669
0.00439951
0.0044596
0.00453659
0.00465873
0.00490316
0.00568034
0.00889558
0.0218671
0.0615885
0.145746
0.279733
0.460289
0.682837
0.944001
1.2416
1.57365
1.93696
2.32503
2.72354
3.10342
3.40746
3.5253
13.0777
44.6395
71.3646
93.5117
119.342
151.617
186.138
218.78
155.205
91.977
49.6166
26.2817
20.9569
29.9383
39.6945
33.4932
23.7456
14.407
7.01898
2.20693
0.169435
0.00527185
0.00482826
0.00469299
0.00457694
0.00447808
0.0043954
0.00432693
0.00426972
0.00422413
0.00419064
0.00416859
0.00415771
0.0041577
0.00416589
0.00417958
0.00420133
0.00423324
0.00427234
0.0043205
0.00438504
0.00446782
0.00458597
0.00481426
0.00543295
0.00763513
0.0158017
0.0410373
0.0979025
0.193988
0.328947
0.499951
0.704291
0.939413
1.20146
1.48282
1.76736
2.02202
2.17894
2.09049
12.1179
42.5484
64.5174
83.9487
108.434
141.349
179.417
180.6
112.161
63.7217
32.8327
19.0372
20.2145
33.047
36.9506
29.2759
19.5542
10.8004
4.46219
0.867088
0.0149245
0.0048323
0.00468755
0.00457234
0.00447545
0.00439029
0.00431643
0.00425474
0.00420307
0.00416085
0.00412832
0.00410567
0.00409284
0.0040892
0.00409328
0.00410457
0.00412327
0.00414795
0.00417921
0.00422085
0.00427371
0.0043384
0.00442365
0.00454695
0.00476779
0.00531069
0.00703437
0.0128731
0.0302125
0.0698373
0.138954
0.238312
0.36538
0.516551
0.686845
0.867491
1.04144
1.17443
1.19824
0.978628
11.5495
38.1834
58.0094
76.2605
100.504
136.566
173.602
133.879
79.5596
42.4629
21.3845
15.4491
21.3463
34.9872
33.5563
24.8813
15.541
7.66056
2.44989
0.193306
0.00512313
0.00470131
0.00458139
0.00447945
0.00439235
0.00431498
0.00424831
0.0041925
0.00414567
0.00410719
0.00407765
0.00405651
0.00404291
0.00403694
0.00403828
0.00404661
0.00406136
0.00408189
0.00410934
0.00414473
0.00418828
0.00424258
0.00431137
0.00440026
0.00452558
0.00473564
0.00519796
0.00650039
0.0105114
0.0218287
0.0477132
0.0940353
0.161773
0.247802
0.346173
0.447421
0.535388
0.581339
0.535337
0.327296
10.3224
33.957
51.6509
70.1475
96.8007
140.171
157.776
98.2035
54.5358
26.9786
14.4961
14.5149
23.9368
34.4819
29.4584
20.5885
11.7744
4.99526
1.03387
0.0192435
0.00471324
0.00458445
0.00447892
0.00439073
0.00431481
0.00424655
0.00418746
0.00413812
0.00409648
0.0040621
0.00403582
0.00401664
0.00400377
0.00399736
0.00399679
0.004002
0.00401323
0.00403055
0.00405423
0.00408421
0.00412128
0.00416732
0.00422449
0.00429637
0.0043884
0.00451337
0.00470756
0.0050803
0.00597442
0.00839192
0.0146866
0.0287498
0.0541995
0.0916016
0.13729
0.183425
0.217574
0.221917
0.176226
0.0774589
7.99861
32.0702
49.3599
68.063
100.83
152.236
122.662
69.5271
34.9833
16.441
11.2056
15.4075
27.482
32.005
25.2487
16.4584
8.42773
2.84236
0.262445
0.00515077
0.00459281
0.00448447
0.00439014
0.00431087
0.00424294
0.00418282
0.00413147
0.00408901
0.00405332
0.00402381
0.00400074
0.00398334
0.00397159
0.00396554
0.00396417
0.00396769
0.00397669
0.00399104
0.00401072
0.00403621
0.00406803
0.00410677
0.00415441
0.00421371
0.0042876
0.00438107
0.00450436
0.00468092
0.00497023
0.00552973
0.0067656
0.00951094
0.0150334
0.0243483
0.0368508
0.049232
0.0555667
0.0493563
0.029786
0.0105331
8.32696
30.1864
50.9489
71.6887
114.087
152.397
87.6569
44.6651
20.2481
10.3715
10.4567
17.6023
30.0771
28.5951
20.8803
12.537
5.5538
1.26936
0.0289412
0.00461705
0.00448654
0.00439007
0.00430853
0.00423949
0.00417908
0.00412607
0.00408149
0.00404465
0.00401402
0.00398901
0.0039692
0.00395396
0.00394355
0.00393797
0.00393652
0.00393968
0.00394761
0.00395987
0.00397662
0.0039985
0.00402564
0.00405836
0.00409809
0.00414667
0.00420633
0.00428039
0.00437371
0.00449356
0.00465297
0.00488034
0.00522924
0.00581336
0.00679785
0.00830168
0.0101851
0.0117904
0.0120726
0.0105274
0.00819497
0.0064009
12.2925
31.6049
53.7015
80.3224
130.057
105.353
54.16
24.5864
10.928
7.92188
11.3625
20.9462
29.1218
24.5875
16.6628
8.92064
3.20326
0.352973
0.0053613
0.00450684
0.00440315
0.00431401
0.00423951
0.00417748
0.00412387
0.00407742
0.00403865
0.00400633
0.00397929
0.00395737
0.0039402
0.00392722
0.00391844
0.0039137
0.00391268
0.00391573
0.00392287
0.00393388
0.0039488
0.00396787
0.00399133
0.00401939
0.00405291
0.00409297
0.00414094
0.00419929
0.00427161
0.00436204
0.00447543
0.00461864
0.00480648
0.00505478
0.00538123
0.00580123
0.00628202
0.0067117
0.00692461
0.0067878
0.00626616
0.00541918
15.354
37.2754
57.438
93.6191
114.837
60.5254
27.788
11.7034
6.72587
7.78787
13.3961
24.9036
26.7583
20.4748
12.6803
5.82386
1.45656
0.0416118
0.00456121
0.0044175
0.00432505
0.00424643
0.00418032
0.00412417
0.00407583
0.00403439
0.00400046
0.0039725
0.00394906
0.00393006
0.00391518
0.00390408
0.00389675
0.00389304
0.00389264
0.0038956
0.00390203
0.00391189
0.00392513
0.00394193
0.00396242
0.0039867
0.00401539
0.00404912
0.00408842
0.00413467
0.00419031
0.0042584
0.00434216
0.00444551
0.00457251
0.00473041
0.00492856
0.00516749
0.00543778
0.00570832
0.00591038
0.00593789
0.00567564
0.00508946
15.364
39.8944
66.1581
104.343
59.5798
27.7897
11.5713
5.94412
5.82059
8.94718
16.35
26.1245
23.1615
16.238
8.96988
3.313
0.414023
0.0056319
0.00443654
0.00433717
0.00425258
0.00418155
0.00412297
0.00407351
0.00403138
0.00399528
0.00396592
0.00394181
0.0039218
0.00390593
0.00389372
0.00388463
0.00387866
0.00387587
0.00387596
0.0038789
0.00388484
0.00389366
0.00390534
0.00392009
0.00393789
0.00395881
0.0039833
0.00401177
0.00404451
0.00408217
0.00412586
0.00417725
0.00423853
0.00431233
0.00440225
0.00451147
0.00464141
0.00479519
0.00497148
0.00515408
0.00530019
0.00533284
0.00516714
0.00478311
14.7245
39.5131
69.926
48.3359
22.6744
9.62042
5.01247
4.60575
6.49469
10.9661
20.1031
24.21
19.2845
12.182
5.68962
1.47734
0.0486183
0.00450841
0.00435288
0.00426341
0.00418754
0.00412396
0.00407132
0.0040275
0.00399101
0.00396031
0.00393577
0.00391555
0.00389869
0.00388553
0.00387568
0.00386849
0.00386387
0.00386194
0.00386237
0.00386523
0.00387072
0.0038787
0.00388909
0.00390206
0.00391756
0.00393558
0.00395635
0.0039801
0.00400708
0.00403777
0.00407273
0.00411253
0.00415803
0.00421077
0.00427286
0.00434629
0.00443384
0.00453618
0.00465107
0.00477112
0.00487471
0.00491518
0.00482826
0.00458609
21.2175
56.2327
30.1876
13.7952
6.4428
3.99059
3.80986
5.06105
7.99132
13.7844
22.6915
21.0194
14.9817
8.39204
3.12167
0.417944
0.00581642
0.00439495
0.00429072
0.00420441
0.00413322
0.00407526
0.00402777
0.00398884
0.00395681
0.00393033
0.00390957
0.00389278
0.00387906
0.00386849
0.00386064
0.00385493
0.00385146
0.00385035
0.00385125
0.00385414
0.0038592
0.00386635
0.00387556
0.00388695
0.00390047
0.00391609
0.00393386
0.00395378
0.00397588
0.00400044
0.00402786
0.00405854
0.00409279
0.00413106
0.00417417
0.00422357
0.00428004
0.00434431
0.00441642
0.00449309
0.00456374
0.00460291
0.00456918
0.00443386
9.50243
14.469
7.19404
4.34622
3.43686
3.40548
4.20106
6.25586
10.198
17.4755
21.1576
17.0416
10.8995
5.14496
1.36569
0.0612967
0.00455737
0.00433575
0.00423883
0.00415864
0.00409191
0.00403732
0.003993
0.00395721
0.00392816
0.00390454
0.00388612
0.00387152
0.00385992
0.00385131
0.0038453
0.00384124
0.00383908
0.00383894
0.00384057
0.00384384
0.00384886
0.0038556
0.00386402
0.00387412
0.00388591
0.0038994
0.00391456
0.00393135
0.00394968
0.00396947
0.00399079
0.00401383
0.00403886
0.00406617
0.00409607
0.00412874
0.00416475
0.00420465
0.00424831
0.00429454
0.00433921
0.00437063
0.00436755
0.00431116
0.00448618
0.00537854
0.00646308
0.0078735
0.00977746
0.0124046
0.0160586
0.0211388
0.0281549
0.0377633
0.0508419
0.0686541
0.0932307
0.128265
0.181213
0.26789
0.421037
0.700814
1.19437
2.1263
0.00443528
0.00521017
0.00615587
0.00740406
0.00912223
0.0115464
0.0150012
0.0199341
0.0269458
0.036848
0.0507639
0.0703281
0.0981456
0.138896
0.202074
0.308601
0.504627
0.87836
1.5414
2.7985
0.00438494
0.00504077
0.00584506
0.00692224
0.00843182
0.0106038
0.0137651
0.0183839
0.0251166
0.034889
0.0490264
0.0694845
0.0993429
0.143967
0.213871
0.331567
0.544676
0.935131
1.58538
2.37337
0.00433699
0.00487697
0.00554353
0.00645004
0.00774219
0.00963317
0.0124332
0.0165999
0.0227959
0.0319894
0.0456092
0.0657951
0.0958781
0.141423
0.212664
0.329997
0.533397
0.885912
1.43325
2.08814
0.00429289
0.00472436
0.00526229
0.00600675
0.00708585
0.00868847
0.0110934
0.0147196
0.0201866
0.0284204
0.0408205
0.0595132
0.0877844
0.130911
0.197916
0.305228
0.482334
0.772384
1.20587
1.75757
0.00425369
0.00458705
0.00500931
0.00560654
0.00648802
0.00781456
0.00982496
0.012881
0.0175218
0.0245613
0.0352433
0.0514751
0.0761956
0.113993
0.172225
0.263088
0.406483
0.629938
0.956186
1.37742
0.00422005
0.00446763
0.0047893
0.0052578
0.00596446
0.00704207
0.00868716
0.0111969
0.0150132
0.0207997
0.0295659
0.0428531
0.0630228
0.0936917
0.140397
0.211618
0.320007
0.482199
0.713242
1.0134
0.00419228
0.00436721
0.00460403
0.00496359
0.00552173
0.00638618
0.00771392
0.00974
0.0128101
0.0174352
0.0243758
0.0347653
0.0503014
0.0735241
0.108187
0.159717
0.235646
0.345383
0.497832
0.695868
0.00417041
0.00428582
0.00445264
0.00472222
0.00515846
0.0058484
0.00691526
0.00854036
0.010986
0.0146317
0.0200242
0.0279448
0.0395075
0.0562979
0.0805372
0.115248
0.164367
0.232603
0.324532
0.442466
0.00415432
0.00422237
0.00433193
0.00452846
0.00486773
0.00542055
0.00628345
0.00759505
0.00955138
0.0124293
0.0166157
0.0226409
0.0312175
0.0432778
0.0599816
0.0826867
0.112934
0.152476
0.203102
0.265807
0.00414394
0.00417429
0.00423619
0.00437553
0.0046416
0.0050915
0.00580206
0.00688093
0.00847501
0.0107841
0.0140792
0.0187248
0.0252054
0.034129
0.0461118
0.061557
0.0805741
0.103275
0.130063
0.160474
0.00414403
0.004139
0.00416307
0.00426111
0.00447201
0.00483909
0.00542035
0.00629268
0.0075524
0.00932053
0.0117525
0.0150503
0.0195104
0.0255962
0.0336164
0.043275
0.0543328
0.0684591
0.091278
0.133325
0.0090852
0.00460571
0.00501351
0.00541567
0.00582522
0.00629818
0.00694439
0.00794051
0.00956409
0.0125025
0.0183232
0.0290021
0.0467024
0.0750619
0.120358
0.189329
0.285939
0.415596
0.564931
0.750325
0.0884384
0.0494795
0.0638089
0.0768131
0.0928679
0.113629
0.140646
0.174826
0.217752
0.271467
0.337303
0.413391
0.461247
0.523481
0.676093
0.893349
1.18759
1.5331
1.65536
2.24585
0.022969
0.0415596
0.0705263
0.11163
0.16461
0.223155
0.290213
0.367265
0.456002
0.555468
0.654484
0.732321
0.838423
0.927574
0.9109
0.886482
0.882194
0.871437
0.881969
1.15362
0.0109793
0.00990843
0.00744881
0.00974387
0.0139407
0.0196776
0.0272309
0.0367558
0.0484254
0.0624153
0.0791208
0.102509
0.159446
0.257582
0.293769
0.280131
0.236779
0.181136
0.137211
0.140631
0.00700842
0.00815772
0.00460949
0.00469626
0.00515278
0.00585093
0.00675143
0.00780306
0.00896033
0.0102027
0.0116119
0.0136863
0.0184943
0.0279186
0.0352942
0.035538
0.0294466
0.0210864
0.0143754
0.0107972
0.00635956
0.00851799
0.00422275
0.00400338
0.0040115
0.00411537
0.0042834
0.00448271
0.00468874
0.00488691
0.00507927
0.00529915
0.00562235
0.00607559
0.00647045
0.00660012
0.00643151
0.00611184
0.00581206
0.00565082
0.00640069
0.00894796
0.00425936
0.00388718
0.0038115
0.00381848
0.00386591
0.00392891
0.00399572
0.00406275
0.00413321
0.00421856
0.0043363
0.00449677
0.00468241
0.00486181
0.00500254
0.00509102
0.00514077
0.0051787
0.00676825
0.00886888
0.0043552
0.00390551
0.00381076
0.00380335
0.00383025
0.00386969
0.00391423
0.00396298
0.00401912
0.00408943
0.00418232
0.00430201
0.00444143
0.00458345
0.00470884
0.00480627
0.00487673
0.00492735
0.00733488
0.00825195
0.00440195
0.00395884
0.00386586
0.00385685
0.00387615
0.00390589
0.00394117
0.00398166
0.00402936
0.00408769
0.00416026
0.00424813
0.00434726
0.00444868
0.00454217
0.0046205
0.00468141
0.00472606
0.00793308
0.00730033
0.00439254
0.00401773
0.00393815
0.00392875
0.00394099
0.00396181
0.00398792
0.004019
0.00405593
0.00410024
0.0041533
0.00421509
0.00428317
0.00435273
0.00441817
0.00447494