/*--------------------------------*- C++ -*----------------------------------*\
| =========                 |                                                 |
| \\      /  F ield         | OpenFOAM: The Open Source CFD Toolbox           |
|  \\    /   O peration     | Version:  v1912                                 |
|   \\  /    A nd           | Website:  www.openfoam.com                      |
|    \\/     M anipulation  |                                                 |
\*---------------------------------------------------------------------------*/
FoamFile
{
    version     2.0;
    format      ascii;
    class       volScalarField;
    location    "42";
    object      nut;
}
// * * * * * * * * * * * * * * * * * * * * * * * * * * * * * * * * * * * * * //

dimensions      [0 2 -1 0 0 0 0];


internalField   nonuniform List<scalar> 
20320
(
0.0347187
0.0075985
0.00766693
0.00773342
0.00779755
0.00785892
0.00791702
0.00797122
0.00802079
0.0080649
0.0081026
0.00813279
0.0081542
0.00816548
0.00816482
0.00814953
0.00811381
0.00804421
0.00790356
0.00752819
0.0352306
0.0352731
0.0354459
0.0356807
0.0359595
0.0362482
0.0365089
0.036718
0.0368712
0.0369782
0.0370568
0.0371204
0.0371695
0.0371954
0.0371651
0.0370213
0.0366044
0.0355663
0.0330451
0.0242585
0.0353539
0.0356366
0.0361365
0.0368817
0.0379728
0.03951
0.0415798
0.0442301
0.0474371
0.0510763
0.0549111
0.0586201
0.0618496
0.0642672
0.0655942
0.0656093
0.0641035
0.0607143
0.0541794
0.0357854
0.0355262
0.0361108
0.0369214
0.0379602
0.0393291
0.0411427
0.0435307
0.0466353
0.0505949
0.0555047
0.0613447
0.0678876
0.0746331
0.0808242
0.0855608
0.0879635
0.0872953
0.082868
0.072874
0.0446592
0.035734
0.036704
0.0379029
0.0393047
0.0410026
0.0431052
0.045742
0.0490678
0.0532644
0.058531
0.0650421
0.0728454
0.0816893
0.0908444
0.0990481
0.104681
0.106117
0.101901
0.0892733
0.0517744
0.0359678
0.0373958
0.0390511
0.0408828
0.0429733
0.0454221
0.0483519
0.0519147
0.0562986
0.0617331
0.0684805
0.0767746
0.0866571
0.0976868
0.108631
0.117407
0.121466
0.118256
0.10363
0.0575655
0.0362171
0.0381546
0.0403154
0.0426278
0.0451616
0.0480064
0.0512761
0.0551161
0.059712
0.0653007
0.0721788
0.0806791
0.091056
0.103189
0.116097
0.127555
0.134272
0.132481
0.116302
0.0623891
0.0364707
0.038947
0.0416422
0.0444695
0.0474864
0.0507712
0.0544276
0.0585919
0.0634432
0.0692177
0.076225
0.0848485
0.0954785
0.10826
0.122534
0.136154
0.145316
0.145071
0.127632
0.0665557
0.036717
0.0397377
0.0429744
0.0463332
0.0498604
0.0536233
0.0577137
0.0622566
0.0674208
0.0734363
0.0806155
0.0893676
0.100168
0.113363
0.128605
0.143951
0.155288
0.156589
0.138074
0.0702955
0.0369445
0.0404908
0.0442537
0.0481417
0.0521929
0.056465
0.0610374
0.0660211
0.0715707
0.0779043
0.0853295
0.0942667
0.105244
0.118758
0.134736
0.151489
0.164744
0.167511
0.148001
0.0738575
0.0371427
0.0411714
0.0454229
0.0498184
0.0543923
0.0591962
0.0642979
0.0697925
0.0758157
0.0825679
0.0903442
0.0995654
0.110792
0.12463
0.141241
0.159207
0.174189
0.178339
0.157852
0.0774571
0.0373021
0.0417479
0.0464291
0.0512906
0.0563698
0.0617172
0.0673917
0.0734723
0.0800728
0.0873691
0.0956359
0.105284
0.116891
0.131143
0.148401
0.16751
0.184128
0.189616
0.168134
0.0813227
0.0374156
0.042194
0.0472269
0.0524941
0.0580434
0.0639316
0.0702144
0.0769574
0.0842509
0.0922417
0.101176
0.111445
0.123628
0.138473
0.15651
0.176835
0.195134
0.202
0.179472
0.0857832
0.0374787
0.0424904
0.0477817
0.0533764
0.0593415
0.0657495
0.0726615
0.0801362
0.0882439
0.0971004
0.106917
0.118058
0.131094
0.146816
0.165906
0.187702
0.207929
0.216376
0.192742
0.0912718
0.0374894
0.0426256
0.048071
0.0539
0.0602072
0.0670914
0.0746306
0.0828889
0.0919255
0.10183
0.112779
0.125103
0.13936
0.156377
0.176982
0.200764
0.223496
0.234057
0.20937
0.0985317
0.0374487
0.0425973
0.0480868
0.0540456
0.0606029
0.0678935
0.0760269
0.0850894
0.095146
0.106274
0.118624
0.132499
0.148446
0.167337
0.190167
0.216826
0.243171
0.256978
0.23155
0.108954
0.0373605
0.0424119
0.0478355
0.0538133
0.060513
0.0681136
0.0767701
0.0866113
0.0977331
0.110226
0.124237
0.14006
0.158254
0.179771
0.205841
0.236798
0.268762
0.288221
0.26332
0.125188
0.0372312
0.0420844
0.0473381
0.0532235
0.0599474
0.0677369
0.0768033
0.0873389
0.0995003
0.113427
0.1293
0.147445
0.168479
0.193504
0.224132
0.26145
0.30236
0.332262
0.311878
0.153258
0.0370693
0.041637
0.0466281
0.0523156
0.0589423
0.0667814
0.0761053
0.0871856
0.100269
0.115585
0.133402
0.154134
0.178523
0.20793
0.24457
0.290812
0.345444
0.3941
0.388199
0.206653
0.0368843
0.0410975
0.0457493
0.0511454
0.0575581
0.0652999
0.0747003
0.0861146
0.0998998
0.116416
0.136071
0.15943
0.187442
0.221832
0.265642
0.323133
0.396503
0.474186
0.49895
0.302563
0.0376975
0.0250005
0.0272581
0.0275906
0.0262567
0.0268498
0.032018
0.0409238
0.0514846
0.066798
0.0969396
0.113659
0.135338
0.15595
0.177181
0.211084
0.289324
0.35036
0.365365
0.335753
0.289338
0.247385
0.224924
0.211293
0.199053
0.183334
0.167204
0.144021
0.12139
0.112216
0.107076
0.102773
0.098937
0.0955106
0.0923312
0.0893674
0.0867336
0.0845191
0.0824994
0.0802194
0.0780707
0.0763683
0.0752179
0.0739037
0.0725031
0.0715084
0.0703304
0.0692866
0.0688001
0.0684998
0.0677884
0.0667382
0.0662531
0.0669228
0.0679545
0.0678082
0.0667645
0.0662329
0.0656583
0.0651795
0.0470943
0.429322
0.524258
0.544212
0.521635
0.54574
0.663484
0.771978
0.846145
0.828807
1.17626
1.66378
2.03612
2.34146
2.59574
2.9406
3.73158
4.19405
4.10604
2.99295
2.40207
2.11157
1.92723
1.76011
1.58924
1.40097
1.12045
0.964576
1.04829
1.13614
1.16435
1.15801
1.13976
1.11707
1.08937
1.06025
1.03606
1.01644
0.994573
0.967902
0.94299
0.931976
0.927132
0.918783
0.91117
0.909036
0.90166
0.902335
0.916612
0.923796
0.920223
0.910052
0.920605
0.958731
0.979742
0.976999
0.964983
0.953826
0.934345
0.912423
0.053973
0.647765
0.869373
0.935959
0.924993
0.927205
1.04255
1.2316
1.41823
1.60145
1.94725
2.59392
3.09475
3.44234
3.65892
4.02912
4.9298
5.28961
4.16203
3.5332
3.19568
3.00156
2.84983
2.69637
2.5264
2.33318
2.08693
1.92027
1.89809
1.914
1.91418
1.89699
1.87108
1.84082
1.80709
1.77278
1.74211
1.71537
1.6884
1.65989
1.63611
1.62393
1.62037
1.61929
1.62197
1.62894
1.63766
1.65471
1.67978
1.70081
1.71543
1.73155
1.76337
1.80576
1.83476
1.84147
1.83336
1.81627
1.78994
1.76281
0.0581452
0.781523
1.0826
1.18264
1.19133
1.19207
1.30794
1.55408
1.84266
2.13766
2.5813
3.17894
3.70421
4.08265
4.31358
4.7316
5.76057
4.78503
4.1414
3.83476
3.66889
3.55229
3.43541
3.30092
3.14649
2.97438
2.78005
2.61649
2.53146
2.48936
2.45641
2.42265
2.38807
2.35334
2.31863
2.28552
2.25633
2.23138
2.20873
2.18829
2.17422
2.17064
2.17659
2.18875
2.20662
2.22914
2.25535
2.28794
2.32513
2.36
2.39206
2.42712
2.46862
2.51122
2.54174
2.55302
2.54975
2.53573
2.51224
2.48841
0.0630559
0.883777
1.23823
1.3596
1.38626
1.40515
1.53514
1.81687
2.17503
2.5543
3.0268
3.58215
4.12116
4.58183
4.95244
5.31286
5.41436
4.58477
4.23937
4.09535
4.00935
3.92569
3.82306
3.69918
3.55819
3.40569
3.24655
3.09787
2.99162
2.91993
2.86618
2.8217
2.78349
2.75011
2.72072
2.69562
2.67578
2.66136
2.65157
2.6467
2.6491
2.6609
2.68184
2.71016
2.74456
2.78273
2.82323
2.86745
2.91404
2.95878
3.00193
3.04664
3.0919
3.13357
3.1638
3.17761
3.17958
3.17211
3.15605
3.14015
0.0692913
0.977978
1.37066
1.51075
1.5578
1.60431
1.75268
2.0502
2.44239
2.87154
3.3503
3.88045
4.43018
4.98106
5.52792
6.24019
5.37051
4.76903
4.5015
4.36088
4.25838
4.15931
4.05085
3.9323
3.80639
3.67639
3.54668
3.4235
3.3212
3.24363
3.18579
3.14254
3.11042
3.08705
3.0709
3.06129
3.05811
3.06125
3.07029
3.08531
3.10702
3.136
3.17203
3.21432
3.26146
3.31051
3.35969
3.41012
3.46142
3.51122
3.56054
3.61025
3.65689
3.69802
3.72827
3.74466
3.75315
3.75361
3.74722
3.74254
0.0747981
1.06625
1.49594
1.65822
1.73198
1.80945
1.97536
2.27433
2.67529
3.12552
3.60839
4.12435
4.67242
5.26957
5.96188
6.45782
5.5672
5.04052
4.73022
4.52585
4.37547
4.25143
4.13787
4.02882
3.92303
3.82105
3.72506
3.63749
3.55967
3.4981
3.4541
3.42558
3.40963
3.40411
3.40748
3.41841
3.43575
3.45891
3.48746
3.52117
3.55957
3.60226
3.64925
3.70043
3.75462
3.80907
3.86243
3.91587
3.96911
4.02116
4.07542
4.12974
4.17796
4.2213
4.25275
4.27173
4.28538
4.29286
4.2957
4.30347
0.0782325
1.1544
1.62164
1.81283
1.92083
2.03036
2.21083
2.50315
2.89662
3.34963
3.83411
4.3424
4.8821
5.48928
6.25028
6.2675
5.58009
5.09627
4.75369
4.51182
4.34342
4.21984
4.11747
4.02609
3.94457
3.87439
3.81766
3.77405
3.73843
3.71196
3.6977
3.69486
3.70169
3.71765
3.74229
3.77429
3.81135
3.85242
3.89732
3.9457
3.99639
4.04883
4.10355
4.16098
4.21979
4.27733
4.33368
4.39058
4.44614
4.49904
4.55712
4.61455
4.66186
4.69805
4.72015
4.73124
4.74329
4.7521
4.76241
4.78026
0.0839833
1.2483
1.75217
1.97962
2.12836
2.27033
2.46238
2.74425
3.11983
3.56355
4.04449
4.54695
5.07773
5.68919
6.45725
6.00906
5.40684
4.94633
4.59986
4.3636
4.21741
4.12218
4.04149
3.96823
3.91032
3.86805
3.84417
3.83753
3.84328
3.8569
3.87679
3.90331
3.93526
3.97373
4.02001
4.07274
4.12889
4.187
4.24707
4.30861
4.36988
4.43035
4.49167
4.55489
4.61808
4.67814
4.73654
4.79573
4.85219
4.90111
4.95021
4.99768
5.03222
5.06222
5.08215
5.09377
5.11301
5.12901
5.14834
5.17434
0.0915559
1.34367
1.88989
2.16053
2.35476
2.52911
2.73007
2.9988
3.35068
3.77615
4.24756
4.74268
5.27021
5.88943
6.42213
5.72127
5.16008
4.706
4.37445
4.17592
4.07864
4.01893
3.95197
3.89584
3.85501
3.83197
3.82969
3.84697
3.87902
3.92019
3.96758
4.01946
4.07478
4.13508
4.20143
4.27126
4.34163
4.41156
4.48171
4.55171
4.61967
4.68525
4.75053
4.81658
4.88147
4.94277
5.00199
5.06083
5.11592
5.16454
5.21706
5.26403
5.29592
5.32778
5.35437
5.37624
5.40379
5.43021
5.46065
5.49464
0.0959277
1.43925
2.03556
2.35596
2.59877
2.80508
3.01263
3.26564
3.5896
3.99006
4.44594
4.93377
5.4659
6.1234
6.0769
5.44269
4.8898
4.44388
4.15166
4.01765
3.98063
3.93197
3.87975
3.82937
3.79323
3.77787
3.78752
3.82022
3.87052
3.93344
4.00526
4.08075
4.15708
4.23502
4.31507
4.39492
4.47249
4.54783
4.62222
4.6955
4.76607
4.83382
4.9006
4.96725
5.03241
5.09461
5.155
5.21452
5.27117
5.32508
5.38347
5.43551
5.47452
5.51305
5.54901
5.58307
5.62065
5.65921
5.70217
5.74502
0.0988059
1.53774
2.18878
2.56544
2.85848
3.09583
3.3077
3.54236
3.83495
4.20526
4.64073
5.12279
5.67197
6.32662
5.78328
5.15948
4.60516
4.18801
3.96835
3.9184
3.91776
3.88001
3.81952
3.76027
3.71786
3.70157
3.71601
3.75907
3.82408
3.90519
3.99776
4.09395
4.18825
4.2796
4.36798
4.45206
4.53118
4.60666
4.68051
4.75306
4.82326
4.89111
4.95796
5.02456
5.09017
5.15408
5.2171
5.27974
5.34127
5.40299
5.46795
5.52719
5.57663
5.62445
5.67112
5.71772
5.7671
5.81908
5.87536
5.92785
0.100676
1.63098
2.34841
2.78809
3.13215
3.39847
3.6118
3.82528
4.08427
4.42144
4.83421
5.31194
5.88391
6.12172
5.48012
4.85322
4.31018
3.95693
3.84371
3.88016
3.89344
3.83517
3.75098
3.67096
3.6142
3.59137
3.60653
3.65691
3.7345
3.83122
3.94022
4.05247
4.16047
4.26149
4.35485
4.44007
4.51781
4.59057
4.66123
4.73085
4.79908
4.86606
4.93275
4.99985
5.06701
5.13397
5.20123
5.26907
5.33743
5.40748
5.47944
5.54685
5.60744
5.6662
5.72475
5.78436
5.84679
5.91271
5.98214
6.04414
0.104105
1.70855
2.51378
3.02299
3.41864
3.71112
3.92194
4.11083
4.33546
4.63933
5.02927
5.50455
6.0918
5.80617
5.1578
4.52174
4.01783
3.77169
3.78572
3.88161
3.87185
3.77715
3.65625
3.54716
3.47064
3.43747
3.45075
3.50625
3.59397
3.70301
3.82387
3.94702
4.0642
4.17148
4.26768
4.35282
4.4285
4.4981
4.56521
4.63169
4.69793
4.7643
4.83168
4.90052
4.97071
5.04212
5.11498
5.18944
5.26563
5.34411
5.42376
5.50022
5.57234
5.64316
5.71439
5.78728
5.86308
5.9425
6.02401
6.09461
0.113057
1.81093
2.6892
3.26982
3.71743
4.03397
4.23835
4.39792
4.58781
4.86104
5.2308
5.70442
6.12744
5.49247
4.8095
4.17655
3.75163
3.65322
3.79079
3.88461
3.83038
3.68912
3.52479
3.38136
3.28131
3.23489
3.2438
3.30151
3.39544
3.51201
3.63965
3.76852
3.89088
4.0019
4.0998
4.18486
4.25932
4.32707
4.39209
4.45685
4.52249
4.58981
4.65946
4.73175
4.80657
4.88384
4.96358
5.04584
5.13072
5.21812
5.30648
5.39296
5.47699
5.56036
5.64446
5.73036
5.81905
5.91088
6.00306
6.08113
0.124524
1.9705
2.88422
3.5291
4.02887
4.36971
4.56627
4.69167
4.84461
5.09116
5.44477
5.93581
5.85396
5.16379
4.44191
3.83898
3.54086
3.61279
3.82391
3.86507
3.75469
3.56155
3.35137
3.17087
3.04431
2.98164
2.98269
3.03806
3.13246
3.2505
3.37969
3.51015
3.63437
3.74746
3.84699
3.93299
4.00806
4.07629
4.14178
4.20754
4.27523
4.34581
4.41988
4.4976
4.5789
4.66363
4.75172
4.84314
4.93774
5.03491
5.13309
5.2304
5.32648
5.42234
5.51899
5.61731
5.71808
5.82121
5.92287
6.00741
0.135739
2.14111
3.09623
3.80004
4.35369
4.72442
4.91825
5.00875
5.11993
5.34051
5.67975
6.11815
5.60312
4.82042
4.07107
3.53667
3.4134
3.64335
3.83713
3.80966
3.63686
3.39009
3.13384
2.91508
2.75927
2.67642
2.66448
2.7111
2.79915
2.91272
3.03918
3.16848
3.29283
3.40697
3.50828
3.59677
3.67486
3.74656
3.81597
3.88615
3.95902
4.03568
4.11666
4.20214
4.292
4.38608
4.48425
4.58627
4.69166
4.79951
4.9084
5.01703
5.12511
5.23318
5.34194
5.45214
5.56435
5.67803
5.78838
5.87854
0.144342
2.29065
3.31099
4.07743
4.69101
5.10357
5.30917
5.37673
5.44717
5.63465
5.94347
6.17908
5.33098
4.46622
3.71493
3.30125
3.38299
3.70012
3.81736
3.71253
3.47439
3.1739
2.87213
2.61417
2.42607
2.318
2.28631
2.3168
2.39212
2.49677
2.61784
2.74454
2.86838
2.98361
3.08749
3.18005
3.26362
3.34189
3.41856
3.49659
3.57789
3.66358
3.7542
3.84989
3.95056
4.05601
4.16592
4.27979
4.39689
4.51615
4.63637
4.75663
4.87665
4.99674
5.1174
5.23923
5.36259
5.48643
5.60492
5.69977
0.154559
2.42407
3.51913
4.3551
5.03805
5.50777
5.74844
5.82105
5.87094
6.02617
6.28781
6.02621
5.05122
4.11484
3.3966
3.16313
3.43316
3.7361
3.75094
3.56845
3.26704
2.91446
2.5677
2.26928
2.04533
1.90619
1.84747
1.85523
1.91334
2.00652
2.12076
2.24399
2.36693
2.48355
2.59104
2.68944
2.78086
2.86847
2.95551
3.04454
3.13732
3.23488
3.33774
3.44601
3.55956
3.67808
3.80101
3.92766
4.0571
4.18831
4.32033
4.45248
4.58455
4.71671
4.84933
4.98284
5.1173
5.25105
5.37708
5.47555
0.159925
2.5268
3.7144
4.62775
5.39267
5.93254
6.22896
6.34295
6.41317
6.57191
6.73594
5.91803
4.76338
3.7737
3.14306
3.13397
3.51973
3.7174
3.6342
3.37689
3.01663
2.61465
2.22337
1.88299
1.61981
1.44452
1.35356
1.3349
1.37356
1.45338
1.55893
1.67724
1.79849
1.91659
2.02863
2.13449
2.23583
2.33519
2.43512
2.53773
2.64446
2.75621
2.87341
2.99611
3.12409
3.25681
3.39357
3.5335
3.67569
3.81924
3.96344
4.10779
4.25217
4.39665
4.54149
4.68686
4.83244
4.97579
5.10859
5.20962
0.156324
2.59487
3.88991
4.89206
5.75555
6.38124
6.7372
6.91583
7.04428
7.30806
7.29947
5.72507
4.44784
3.45416
2.98069
3.18302
3.57235
3.64417
3.4687
3.14212
2.72746
2.27851
1.843
1.45985
1.15642
0.945488
0.824331
0.781222
0.799413
0.861834
0.953572
1.06256
1.17943
1.29824
1.4151
1.52939
1.64195
1.75444
1.86872
1.98634
2.10843
2.23569
2.36842
2.50656
2.64966
2.79706
2.94792
3.10133
3.25647
3.41264
3.56933
3.72624
3.88327
4.04044
4.19781
4.35526
4.5119
4.6644
4.80313
4.90582
0.158671
2.62912
4.0496
5.15183
6.13217
6.87502
7.29543
7.51253
7.67984
7.98597
7.32159
5.43879
4.11093
3.17656
2.91542
3.24544
3.56075
3.51667
3.25925
2.87041
2.40528
1.9111
1.43184
1.00953
0.676519
0.44767
0.318892
0.266612
0.265527
0.300689
0.364183
0.449889
0.551477
0.662934
0.779934
0.899949
1.02234
1.14677
1.27434
1.4061
1.54286
1.68512
1.83298
1.98619
2.14412
2.3059
2.47062
2.63738
2.80547
2.97437
3.14377
3.3135
3.48348
3.65365
3.82381
3.9934
4.16085
4.32179
4.46541
4.56896
0.173438
2.72063
4.22539
5.42319
6.5372
7.41753
7.77352
7.93954
8.18466
8.49826
6.82163
5.09296
3.78483
2.96033
2.90761
3.29226
3.48363
3.34372
3.01425
2.56897
2.05619
1.51785
1.00198
0.560064
0.241077
0.078917
0.0289489
0.0181336
0.0168866
0.0190336
0.0263827
0.0443331
0.0799827
0.138532
0.219995
0.32002
0.433455
0.556784
0.688281
0.826821
0.972284
1.1248
1.28414
1.44965
1.62036
1.79508
1.97263
2.15202
2.33261
2.51399
2.69597
2.87844
3.06131
3.24438
3.42711
3.6084
3.7858
3.95383
4.10073
4.20402
0.188537
2.91982
4.4466
5.72227
6.95514
7.73017
8.07622
8.36003
8.68756
8.42323
6.45784
4.77268
3.47127
2.79585
2.89253
3.28323
3.36398
3.13602
2.74225
2.24476
1.68597
1.11072
0.579996
0.178521
0.0218634
0.0203955
0.0379131
0.04212
0.0426256
0.0422866
0.0410552
0.0376753
0.0301056
0.0203597
0.0172918
0.0280613
0.0601004
0.120016
0.207882
0.319305
0.449571
0.595442
0.753985
0.923157
1.10066
1.2842
1.47175
1.66177
1.85334
2.04597
2.23943
2.43363
2.62834
2.82314
3.01708
3.20838
3.3936
3.56612
3.71354
3.8146
0.202127
3.13366
4.69754
6.03602
7.17225
7.87254
8.33384
8.75103
8.95415
7.96495
6.02792
4.37232
3.12739
2.65025
2.85219
3.24637
3.20134
2.90143
2.45014
1.90346
1.30358
0.710797
0.217896
0.0164142
0.0316799
0.0427577
0.0430015
0.0426413
0.0423703
0.0422305
0.0422078
0.0422614
0.0422788
0.0419438
0.0403543
0.0354371
0.0256945
0.0178938
0.0219335
0.0454078
0.0982556
0.185959
0.30659
0.454256
0.622198
0.803886
0.99429
1.18986
1.38857
1.58918
1.79115
1.99416
2.19775
2.40113
2.60291
2.80056
2.98956
3.16215
3.30553
3.40067
0.212689
3.3042
4.93321
6.24509
7.22466
7.92504
8.50427
8.90614
8.7933
7.28105
5.43764
3.83865
2.74766
2.50397
2.82919
3.15324
3.01692
2.64823
2.14314
1.54985
0.925256
0.349969
0.0292846
0.0294811
0.0427332
0.042525
0.0420119
0.0416004
0.0413083
0.0411356
0.0410709
0.0411029
0.0412216
0.0413978
0.0415939
0.041761
0.0416617
0.040475
0.0361419
0.0266842
0.0193988
0.0264586
0.0594557
0.132434
0.249277
0.401641
0.577317
0.766749
0.964091
1.16583
1.37014
1.57614
1.7828
1.98886
2.19244
2.39024
2.57665
2.74263
2.87465
2.95627
0.216842
3.40309
5.075
6.27331
7.1592
7.88522
8.48387
8.7141
8.2151
6.42663
4.67574
3.20631
2.38065
2.3745
2.85285
3.02979
2.80762
2.37988
1.82404
1.19612
0.568277
0.0949892
0.0167179
0.0420494
0.0422389
0.0416736
0.0411871
0.0408054
0.0405178
0.0403237
0.0402209
0.0402034
0.0402552
0.040355
0.0405143
0.0407478
0.0410162
0.0412817
0.0415027
0.0413209
0.0394362
0.0331014
0.024534
0.0287316
0.0625071
0.142379
0.269065
0.428989
0.608551
0.798915
0.995213
1.19474
1.39546
1.5954
1.79208
1.98142
2.15651
2.30666
2.41589
2.46669
0.21464
3.45428
5.11586
6.14681
6.98091
7.69897
8.18221
8.21205
7.24112
5.44531
3.8193
2.56639
2.08559
2.30235
2.84093
2.88391
2.58275
2.09858
1.498
0.851507
0.26367
0.0120069
0.0388101
0.0420116
0.0414658
0.0409533
0.04052
0.0401728
0.0398947
0.0396912
0.0395677
0.0395159
0.0395225
0.0395839
0.0397061
0.0398725
0.0400715
0.0403332
0.0406631
0.0409994
0.0412557
0.0410286
0.0388301
0.0328243
0.0294923
0.0459642
0.100811
0.202709
0.342113
0.504563
0.679658
0.861172
1.04523
1.22875
1.40826
1.57879
1.73228
1.85544
1.92652
1.9104
0.211159
3.43214
5.04693
5.94979
6.70707
7.34576
7.64914
7.4643
6.04484
4.40503
2.95752
2.018
1.89513
2.30875
2.78944
2.70813
2.34141
1.80479
1.17223
0.529234
0.067866
0.022514
0.0416727
0.0413295
0.040792
0.0403317
0.0399484
0.039634
0.0393763
0.039178
0.0390423
0.0389671
0.0389515
0.0389941
0.0390826
0.0392038
0.0393701
0.0395926
0.0398576
0.0401707
0.0405473
0.040906
0.0409565
0.0397559
0.0357096
0.0321521
0.0425268
0.0834012
0.165478
0.283609
0.424806
0.578212
0.736631
0.895009
1.04862
1.19141
1.31384
1.39957
1.41908
1.31161
0.204629
3.34802
4.88123
5.70498
6.3446
6.83049
6.96241
6.40359
4.85684
3.38105
2.18045
1.63699
1.81358
2.38207
2.69134
2.51426
2.08521
1.50228
0.852464
0.254235
0.010231
0.0392034
0.0411651
0.0406445
0.0401895
0.0397907
0.0394464
0.039162
0.0389282
0.0387429
0.0386081
0.0385257
0.0384956
0.0385155
0.0385785
0.0386819
0.0388268
0.0390071
0.0392265
0.0395041
0.0398418
0.0402267
0.0406268
0.0408202
0.0400329
0.0368766
0.0332969
0.039741
0.0697035
0.133155
0.228297
0.344458
0.47077
0.598875
0.721865
0.832136
0.918756
0.963041
0.930304
0.749822
0.200971
3.154
4.62541
5.38595
5.88194
6.2043
6.1852
5.1497
3.73394
2.4512
1.57699
1.44275
1.82564
2.4443
2.56512
2.29629
1.81348
1.1959
0.548722
0.0722813
0.0211404
0.0409171
0.0405676
0.0400876
0.0396767
0.0393131
0.0390014
0.0387436
0.0385314
0.0383622
0.0382395
0.0381614
0.038124
0.0381284
0.0381731
0.0382568
0.0383769
0.0385309
0.0387248
0.0389645
0.0392516
0.0395975
0.040008
0.0404501
0.0407577
0.0403219
0.0379093
0.0342046
0.0366448
0.055622
0.0991298
0.167764
0.253839
0.346956
0.43723
0.514886
0.567853
0.577818
0.513716
0.32482
0.191211
2.89687
4.25508
4.9351
5.28512
5.5436
5.28115
3.99656
2.7248
1.68565
1.20482
1.39437
1.91137
2.4422
2.40121
2.05954
1.52646
0.889968
0.281266
0.01122
0.0380307
0.040458
0.0399733
0.0395537
0.0391936
0.0388717
0.038595
0.0383673
0.0381792
0.0380287
0.0379205
0.0378501
0.0378139
0.0378128
0.0378443
0.0379081
0.0380061
0.0381389
0.0383084
0.0385148
0.0387627
0.0390621
0.0394228
0.0398534
0.0403367
0.0407589
0.0406997
0.0391746
0.0358003
0.034639
0.0430538
0.066482
0.106098
0.157201
0.210818
0.256156
0.28105
0.27101
0.210281
0.096952
0.169436
2.6372
3.83719
4.37146
4.66327
4.9069
4.18263
2.95751
1.86214
1.13812
1.0592
1.43829
2.03938
2.36937
2.21068
1.80321
1.22997
0.592634
0.0905149
0.0170055
0.040154
0.0398936
0.0394426
0.0390631
0.0387396
0.0384555
0.0382151
0.03802
0.0378601
0.0377326
0.0376391
0.0375761
0.0375436
0.0375421
0.0375667
0.0376188
0.0377017
0.0378152
0.0379596
0.0381378
0.038353
0.0386087
0.0389155
0.0392868
0.0397315
0.0402469
0.0407764
0.0410837
0.0405459
0.0383848
0.0355954
0.0360793
0.0432315
0.0573417
0.0752141
0.0904973
0.0951766
0.0823814
0.0529924
0.0273683
0.173383
2.31132
3.45821
3.84611
4.19397
4.25019
3.12662
2.02957
1.18153
0.843906
1.06864
1.54063
2.14738
2.24985
1.99153
1.52773
0.92838
0.321152
0.014405
0.0361223
0.03979
0.0393428
0.0389479
0.0386151
0.0383262
0.0380751
0.0378668
0.0376985
0.0375627
0.0374566
0.0373783
0.0373247
0.0372974
0.0372965
0.0373186
0.0373664
0.037441
0.0375404
0.0376658
0.0378209
0.0380068
0.0382257
0.0384854
0.0387956
0.0391678
0.0396158
0.0401496
0.0407534
0.04133
0.0416136
0.0411163
0.0395897
0.0378086
0.0371832
0.0381044
0.03934
0.0391155
0.0373641
0.0373877
0.0396748
0.212048
2.28045
3.16204
3.47857
3.84366
3.2122
2.13405
1.24232
0.746196
0.786959
1.15097
1.68736
2.14431
2.08587
1.74911
1.23449
0.629355
0.113425
0.013077
0.0394655
0.0393129
0.0388784
0.0385149
0.038214
0.0379566
0.0377362
0.0375555
0.0374087
0.0372898
0.0371982
0.0371322
0.0370887
0.0370682
0.03707
0.0370925
0.0371378
0.0372061
0.0372964
0.0374093
0.0375461
0.0377085
0.0378982
0.0381199
0.0383798
0.0386851
0.0390488
0.0394878
0.0400172
0.0406418
0.0413405
0.0420605
0.0426687
0.0430284
0.0431958
0.0434304
0.0439658
0.0447254
0.0451569
0.0442311
0.0409973
0.239087
2.28345
2.85992
3.14692
3.10547
2.11923
1.24732
0.693066
0.596576
0.86287
1.27098
1.85021
2.07048
1.88827
1.48447
0.932717
0.349615
0.0186935
0.0340419
0.039275
0.0388439
0.0384553
0.0381301
0.0378563
0.0376233
0.0374263
0.0372686
0.0371425
0.0370407
0.0369628
0.0369073
0.0368723
0.036858
0.0368636
0.0368877
0.0369307
0.0369933
0.0370754
0.0371771
0.0372993
0.0374429
0.0376087
0.0378005
0.0380217
0.0382756
0.0385698
0.0389168
0.0393318
0.0398294
0.0404232
0.0411194
0.0419244
0.0428407
0.0438349
0.0448605
0.0458092
0.0463836
0.046034
0.0441249
0.0404034
0.240851
2.06766
2.58652
2.65884
1.90694
1.13803
0.618011
0.472678
0.660076
0.973215
1.41917
1.92484
1.92979
1.65416
1.19718
0.631292
0.127711
0.0107563
0.038855
0.0388211
0.0383998
0.0380454
0.0377549
0.0375123
0.0373085
0.0371368
0.0370009
0.0368931
0.0368076
0.0367445
0.0367014
0.0366756
0.0366671
0.0366761
0.0367013
0.0367425
0.0368007
0.0368754
0.0369666
0.0370756
0.0372025
0.0373476
0.0375136
0.0377029
0.0379172
0.0381604
0.0384383
0.0387599
0.0391362
0.0395799
0.0401072
0.04073
0.0414475
0.0422591
0.0431311
0.0439393
0.0444053
0.0440649
0.0424231
0.0393401
0.237289
1.58966
1.88546
1.46169
0.867783
0.480376
0.378189
0.530727
0.77413
1.10063
1.58733
1.87211
1.74522
1.3933
0.893907
0.349154
0.0210551
0.032385
0.0387943
0.0383752
0.0379912
0.0376708
0.0374077
0.0371915
0.0370144
0.0368685
0.0367557
0.0366666
0.036596
0.0365457
0.0365136
0.0364964
0.0364935
0.0365056
0.0365312
0.0365705
0.0366248
0.0366932
0.0367757
0.0368731
0.0369853
0.0371125
0.037256
0.0374169
0.037597
0.0377987
0.0380252
0.0382798
0.038567
0.0388946
0.0392731
0.0397115
0.0402212
0.0407999
0.0414228
0.0420196
0.0424131
0.042253
0.041069
0.038611
0.286787
1.13141
0.751619
0.458373
0.303186
0.309592
0.464227
0.655222
0.885565
1.25012
1.70881
1.74814
1.51099
1.10505
0.593065
0.128931
0.00930037
0.0380949
0.0384345
0.0379985
0.0376348
0.03734
0.0371007
0.0369073
0.0367512
0.0366254
0.0365306
0.0364578
0.0364021
0.0363639
0.036341
0.0363303
0.0363321
0.0363472
0.0363739
0.0364119
0.0364623
0.0365248
0.0365993
0.0366864
0.036786
0.0368981
0.037023
0.0371607
0.0373118
0.0374775
0.0376601
0.0378617
0.038084
0.0383295
0.0386023
0.0389095
0.0392543
0.0396384
0.0400559
0.0404727
0.0407867
0.0407545
0.03996
0.0380367
0.193274
0.299947
0.226291
0.232582
0.321951
0.46623
0.599122
0.752733
1.01229
1.42242
1.67146
1.55421
1.23951
0.799638
0.321541
0.0253305
0.0196685
0.0381217
0.0380959
0.0376856
0.0373421
0.0370624
0.0368375
0.0366585
0.0365161
0.0364036
0.0363195
0.0362567
0.0362108
0.0361815
0.0361668
0.0361634
0.0361707
0.0361896
0.0362186
0.0362572
0.0363059
0.0363645
0.0364331
0.0365116
0.0366002
0.0366988
0.0368076
0.0369262
0.0370543
0.0371916
0.0373384
0.0374958
0.0376651
0.0378479
0.0380457
0.0382593
0.0384914
0.0387439
0.0390141
0.039288
0.0395157
0.0395458
0.0390426
0.0375693
0.0366864
0.0404966
0.0447521
0.04978
0.0558752
0.0633779
0.0726617
0.0841567
0.0983331
0.115702
0.136854
0.162561
0.194026
0.233385
0.284547
0.353843
0.44751
0.557724
0.621418
0.460004
0.0364793
0.0398588
0.0436764
0.0482734
0.0539593
0.0610904
0.0700661
0.0813687
0.0955633
0.113309
0.135393
0.16282
0.197055
0.240561
0.297811
0.376347
0.484401
0.61454
0.69994
0.588008
0.0362696
0.0391957
0.0425445
0.0466608
0.0518598
0.0585019
0.0669918
0.0778309
0.0916379
0.109182
0.131425
0.159588
0.195349
0.241317
0.301947
0.38443
0.495885
0.627976
0.725951
0.649892
0.0360654
0.0385335
0.0414011
0.0450061
0.0496621
0.0557238
0.0635837
0.0737265
0.0867664
0.10351
0.125015
0.152651
0.18822
0.234286
0.294798
0.375564
0.481622
0.606031
0.709778
0.71365
0.0358737
0.037897
0.0402908
0.0433768
0.047459
0.0528798
0.0600093
0.0692895
0.0812744
0.0967143
0.116648
0.142465
0.175977
0.219574
0.276543
0.351185
0.446854
0.558919
0.664296
0.721669
0.0357003
0.0373075
0.0392529
0.0418342
0.0453399
0.0500936
0.05644
0.064769
0.0755416
0.0893754
0.107161
0.130148
0.160001
0.198855
0.249384
0.314708
0.397134
0.494297
0.594234
0.674599
0.0355491
0.0367813
0.0383177
0.0404279
0.04338
0.0474753
0.0530317
0.0603919
0.0699238
0.082083
0.097524
0.117208
0.142477
0.175086
0.217162
0.271017
0.338406
0.418613
0.506014
0.589434
0.0354227
0.0363289
0.037505
0.0391915
0.0416349
0.045111
0.0499106
0.0563382
0.0646928
0.0752941
0.0885559
0.105084
0.125767
0.151835
0.184819
0.226392
0.277943
0.339687
0.409481
0.482345
0.0353221
0.0359552
0.0368229
0.0381398
0.0401342
0.0430558
0.0471659
0.0527359
0.0600229
0.0692664
0.0807159
0.0946827
0.111614
0.132155
0.15716
0.187608
0.224409
0.268052
0.318098
0.372788
0.0352474
0.0356593
0.0362665
0.0372691
0.0388833
0.0413331
0.0448485
0.0496688
0.0560206
0.0641075
0.0741101
0.0861971
0.100552
0.1174
0.137
0.159604
0.185443
0.214743
0.247616
0.283738
0.0351987
0.0354318
0.0358165
0.0365634
0.0378754
0.0399457
0.0429753
0.0471724
0.052731
0.059823
0.0686005
0.0792009
0.0917602
0.106393
0.123044
0.141339
0.160681
0.180648
0.200799
0.218407
0.0350955
0.0352312
0.0353497
0.0357432
0.0365713
0.0379862
0.040145
0.0431898
0.0472191
0.0522823
0.0583628
0.0653792
0.0732513
0.0813686
0.0878811
0.0890009
0.0817204
0.0714844
0.0652551
0.06811
0.0151484
0.0218524
0.0164013
0.0137206
0.0123046
0.0115309
0.0111196
0.0109883
0.0112196
0.0119766
0.0138334
0.0177512
0.0245255
0.035293
0.050834
0.0717194
0.0976006
0.127716
0.159883
0.195095
0.0189996
0.0146095
0.0213757
0.0281747
0.0358254
0.0443988
0.053885
0.064278
0.075753
0.0885403
0.102777
0.11822
0.13102
0.147868
0.178493
0.218842
0.264385
0.306231
0.325449
0.381346
0.0114216
0.0210959
0.0299522
0.0417036
0.0553238
0.0688969
0.0829838
0.0977176
0.113177
0.129193
0.145062
0.160649
0.185115
0.20965
0.22166
0.231254
0.236451
0.230116
0.229503
0.260911
0.0110469
0.0138525
0.0151428
0.0155692
0.0171944
0.0199718
0.023565
0.0277612
0.0324137
0.0374855
0.0433606
0.0524044
0.0741
0.103484
0.118506
0.119985
0.110088
0.0915068
0.0732673
0.0664924
0.00991954
0.0120962
0.0189367
0.0249699
0.0239896
0.0226037
0.0219126
0.0216884
0.0216674
0.0217132
0.0218858
0.0225772
0.024556
0.0284656
0.0325493
0.0331402
0.0299031
0.0249038
0.0208955
0.0185317
0.0104392
0.0122293
0.018191
0.0297636
0.032243
0.0314282
0.0302847
0.0292904
0.028473
0.0278053
0.0272509
0.0267258
0.0259408
0.0247305
0.0240816
0.024594
0.0263598
0.029362
0.0331042
0.0366037
0.0112061
0.0126855
0.0179787
0.0306024
0.034437
0.0347605
0.0346575
0.0345616
0.0344996
0.0344913
0.0345711
0.0347824
0.0351635
0.0357406
0.0365606
0.0376376
0.0388202
0.0398737
0.0406558
0.0411856
0.012153
0.0130503
0.0189153
0.0314612
0.0348026
0.0351433
0.0352488
0.0353924
0.0355638
0.0357625
0.0360075
0.0363324
0.0367744
0.0373473
0.0380123
0.0386851
0.0392725
0.0397173
0.0400208
0.0402174
0.0126003
0.0135164
0.0213952
0.0328659
0.0350411
0.0351879
0.0352722
0.0354036
0.0355628
0.0357471
0.0359658
0.0362354
0.0365718
0.0369774
0.0374288
0.0378808
0.038285
0.0386098
0.0388482
0.0390088
0.0110674
0.0143959
0.0255001
0.0343102
0.0352272
0.0352298
0.0352747
0.0353636
0.0354786
0.0356166
0.0357816
0.0359806
0.0362193
0.0364964
0.0367985
0.037102
0.0373804
0.0376139
0.0377934
0.0379189
0.0114024
0.0166733
0.0307624
0.03521
0.0352989
0.0352481
0.0352632
0.0353123
0.0353825
0.0354708
0.0355779
0.0357063
0.0358575
0.0360297
0.0362154
0.0364022
0.0365761
0.0367253
0.0368432
0.0369279
0.0149036
0.0237561
0.0347577
0.0353681
0.0352555
0.035218
0.0352191
0.0352386
0.0352698
0.0353107
0.0353611
0.0354215
0.0354921
0.0355719
0.0356577
0.0357444
0.0358258
0.0358968
0.035954
0.0359962
0.0614027
0.0794133
0.0889019
0.0975819
0.105385
0.110606
0.113527
0.114589
0.114158
0.113159
0.112148
0.110837
0.10957
0.108754
0.109074
0.271108
0.310147
0.482994
0.647032
0.742319
0.784487
0.801499
0.802138
0.791434
0.772563
0.74785
0.719635
0.689774
0.659327