/*--------------------------------*- C++ -*----------------------------------*\
| =========                 |                                                 |
| \\      /  F ield         | OpenFOAM: The Open Source CFD Toolbox           |
|  \\    /   O peration     | Version:  v1912                                 |
|   \\  /    A nd           | Website:  www.openfoam.com                      |
|    \\/     M anipulation  |                                                 |
\*---------------------------------------------------------------------------*/
FoamFile
{
    version     2.0;
    format      ascii;
    class       volScalarField;
    location    "42";
    object      p;
}
// * * * * * * * * * * * * * * * * * * * * * * * * * * * * * * * * * * * * * //

dimensions      [1 -1 -2 0 0 0 0];


internalField   nonuniform List<scalar> 
20320
(
419427
429681
429708
429760
429831
429919
430021
430135
430259
430390
430523
430656
430787
430911
431027
431130
431220
431294
431350
431381
399505
409417
409452
409506
409578
409667
409770
409885
410009
410140
410274
410407
410538
410662
410777
410879
410967
411037
411087
411119
380180
389781
389816
389871
389944
390033
390136
390252
390376
390506
390640
390773
390902
391025
391139
391240
391326
391394
391443
391475
361455
370757
370792
370846
370918
371007
371109
371224
371347
371476
371609
371740
371868
371989
372100
372200
372285
372353
372403
372438
343317
352327
352362
352415
352486
352573
352674
352787
352908
353036
353166
353296
353421
353540
353649
353746
353829
353896
353948
353986
325753
334478
334511
334563
334632
334717
334816
334926
335045
335170
335297
335424
335547
335662
335768
335862
335943
336009
336060
336101
308750
317195
317227
317277
317343
317425
317520
317627
317741
317862
317985
318108
318226
318338
318440
318530
318607
318671
318721
318764
292295
300467
300497
300544
300607
300685
300775
300876
300985
301099
301216
301332
301445
301550
301646
301731
301803
301863
301911
301955
276377
284280
284309
284352
284411
284483
284566
284659
284760
284865
284973
285080
285183
285280
285367
285444
285508
285562
285607
285650
260983
268625
268650
268690
268742
268806
268881
268964
269054
269147
269242
269335
269425
269508
269582
269646
269699
269743
269782
269822
246105
253489
253511
253544
253589
253644
253707
253777
253851
253928
254005
254080
254150
254212
254267
254311
254347
254377
254406
254441
231732
238863
238880
238907
238943
238986
239035
239088
239143
239198
239251
239299
239341
239374
239399
239415
239424
239431
239444
239468
217852
224736
224748
224767
224792
224821
224852
224885
224916
224943
224964
224977
224980
224971
224952
224924
224892
224863
224850
224853
204457
211097
211103
211113
211126
211138
211150
211158
211159
211152
211132
211098
211048
210981
210898
210804
210707
210620
210562
210526
191537
197938
197939
197939
197937
197932
197921
197900
197867
197818
197748
197655
197535
197387
197213
197019
196819
196637
196502
196396
179082
185249
185243
185233
185217
185192
185156
185104
185032
184935
184806
184639
184430
184174
183872
183530
183168
182823
182549
182314
167080
173019
173007
172986
172955
172910
172848
172763
172649
172499
172303
172052
171734
171340
170863
170306
169688
169062
168524
168030
155523
161238
161220
161189
161143
161078
160990
160872
160715
160510
160243
159898
159455
158895
158195
157339
156327
155211
154142
153091
144397
149896
149871
149830
149770
149687
149574
149424
149227
148968
148630
148189
147616
146872
145910
144671
143098
141161
138978
136537
133690
138979
138949
138899
138826
138726
138591
138413
138178
137871
137468
136939
136242
135319
134086
132423
130152
127010
122641
116415
132850
136040
136423
136698
136893
136999
136483
135190
133199
131348
128158
127753
128823
133206
132154
128907
129145
131053
136441
152446
165076
161443
140865
111475
82491.8
59506.4
49087.5
48847.4
38245
37350.7
35553.5
34410.9
33616.7
33217.3
32675.5
32476.4
32640.6
32831.9
32824
32352.8
32285.6
33063.8
33395.9
32099.1
31615.9
31798.5
31744
31705.2
31928.5
31354.3
29515.3
28726.5
28288.4
28971.4
28877.1
25543
25214.9
25324.7
25244.1
24950.2
127347
130598
131078
131508
131872
132177
131887
131011
129711
127969
127147
126474
126185
127701
126646
126602
127766
129700
133719
144430
160091
151126
129895
105223
79982.5
59529
49223.5
48318.3
38753.1
33555.1
31076
29645.3
28694.1
28056.6
27785.5
27756.6
27656.5
27613.5
27580
27902.8
28352.3
28250.9
28217.9
28198.6
28543.9
27988.8
27930
27989.2
27028.2
26420
25898
25471.1
25373.4
24020.3
22872.6
22874.6
23372.1
22178.4
21603.6
21367.3
122147
125080
125595
126234
126722
127107
127414
127167
126553
126442
127015
126875
125910
124395
123928
125320
126786
128648
130112
132633
132333
124243
108437
88694.3
68612
52380.2
42952.2
38544.4
33361
28809.5
26228.2
24686.6
23694.2
23035.4
22700.2
22592.7
22519.1
22438.3
22439.4
22738.3
23111.8
23157
23044.9
23043.1
23217.9
22993.7
23010.8
22996.4
22156
21516.9
21426.5
21512.2
21262.2
19182.2
18012.2
17658
17489.2
16855.8
16385
16105.9
117612
120438
120955
121155
121835
122718
123099
123596
124304
126023
126399
125582
123155
121471
122443
122981
125993
125960
118991
115926
112436
103835
89986
73446.4
56960.6
43348.2
34695.8
30181.6
26352.3
22948.3
20741.1
19341.6
18424.3
17809.2
17452.6
17305.9
17239.7
17209.7
17261.1
17505.4
17805.2
17906.4
17865.1
17854.8
17918
17799.8
17705.4
17519.3
16923
16473.8
16341.1
16018.2
15389.5
13988.1
12925
12291.4
11873.8
11398.9
10984.2
10630
111672
115084
115604
116196
116686
118111
118711
119107
119902
124756
123875
121093
119151
118048
120148
116871
120841
115024
107334
100790
93941.3
84075
71108.2
56903.6
43437.3
32477.2
25208.5
21204.7
18490.5
16210.3
14650.5
13610.7
12883.1
12358.2
12012.3
11862.2
11813.7
11822.9
11908.3
12142
12428
12551.7
12542.5
12528.1
12557.7
12485.5
12308.8
12021.2
11564.8
11144.5
10832.8
10427
9747.83
8589.49
7711.7
6804.02
6186.71
5885.86
5469.26
4914.11
105526
109158
110007
110762
111782
112780
113665
114135
115007
117886
118327
116447
115102
113932
112869
109304
116095
104705
94917.6
85640.2
75934.1
64487.8
51675.4
39175.6
28333.3
19974.6
14488.5
11545.3
9911.73
8662.27
7938.73
7469.29
7047.26
6671.19
6358.45
6246.79
6236
6295.99
6404.68
6653.3
6977.89
7104.05
7093.05
7066.89
7105.23
7087.12
6818.53
6417.5
6078.72
5673.09
5160.95
4713.36
4095.9
3042.48
2621.9
1414.38
916.252
945.412
718.351
271.357
99688
103194
104235
105001
106022
107343
108408
109997
110951
112306
113022
112034
110911
109638
98151.6
101510
106547
93499.3
81861.1
70307.2
58067.4
44833.7
31555.7
19946.3
11183.2
5780.63
2712.94
1288.19
1007.83
858.438
1044.65
1237.46
1223.69
1130.6
950.655
915.442
924.104
982.526
1080.49
1315.94
1690.96
1843.67
1780.33
1700.57
1861.12
2006.93
1622.33
1124.15
1077.36
907.002
586.209
455.562
344.058
0.0973518
1.62863
19.5678
12.8244
11.846
13.7815
17.3341
94089.3
97215.2
98286.3
99049.7
100062
101488
102803
104685
106044
107114
107846
107289
106527
104791
86658
91196.6
95067.6
81675
68571.6
54908.7
40364
24974.8
9408.72
1422.59
131.366
-16.7202
-35.7288
-47.3734
-47.0739
-45.5416
-36.3323
-29.3895
-24.6836
-20.5261
-17.5626
-16.0843
-14.6677
-12.9085
-10.6529
-9.60887
-9.81827
-9.4338
-7.95798
-6.61247
-7.09227
-8.35418
-9.53331
-9.41716
-8.86108
-9.07121
7.04057
-1.01543
-1.6414
4.47486
2.37959
5.22057
5.88133
6.04988
7.87048
11.0351
87715.9
91802.2
92153.6
93056.6
94251.3
95509.6
97115.9
98775.2
100485
101886
102827
103552
102706
99258.2
90835.6
89499.6
82704.2
69516
55157.6
39617.1
22610.2
3726.2
30.8999
7.80808
-4.04067
-18.2835
-28.1217
-34.6715
-38.1667
-39.6915
-36.808
-33.9403
-31.0454
-27.9804
-25.0973
-23.088
-21.5279
-20.099
-18.4456
-16.8321
-15.5918
-14.4524
-13.1441
-11.9071
-11.1699
-11.0743
-10.9368
-10.6399
-10.4006
-9.4749
-5.81304
-8.08437
-8.35724
-4.59328
-3.97441
-1.93956
-0.610807
0.158414
2.00244
4.92166
80935.6
85334.9
85828
86778.1
88112.4
89660.1
91475.6
93118.9
94686.2
96540.9
98290.6
99074.9
98622.8
90443.6
89019.7
80848.7
70858
57289.7
41760.8
24436.9
3857.18
44.741
4.68942
-6.3454
-19.1077
-30.5475
-39.1515
-44.6439
-46.9756
-46.8618
-44.9272
-41.7682
-38.4641
-35.1873
-32.2357
-29.9934
-28.2274
-26.6201
-24.919
-23.2732
-21.9116
-20.7068
-19.4544
-18.2975
-17.5929
-17.3957
-17.3253
-17.1356
-16.8041
-15.9493
-13.5356
-13.8646
-13.7592
-11.5846
-10.4321
-8.86982
-7.38843
-6.17782
-4.25976
-1.42196
74768.8
78618.7
79279.9
80372
81633.3
83284.9
85083
86675.7
88463.7
90918.8
92895.6
93931.2
94610.6
84693.6
84083.8
72907.1
59998.8
45305.8
28618
7821.92
22.2287
-1.15731
-10.368
-22.7848
-33.1984
-41.9599
-48.6978
-53.0058
-54.8828
-54.6141
-52.5372
-49.4162
-45.9888
-42.6091
-39.5742
-37.1284
-35.1662
-33.423
-31.6735
-29.9494
-28.4284
-27.1003
-25.8547
-24.7396
-23.9723
-23.6195
-23.4546
-23.273
-22.9549
-22.2065
-20.6936
-20.2597
-19.8403
-18.4237
-17.1879
-15.7841
-14.3185
-12.8793
-10.9051
-8.13037
68038.9
72017.8
72825.5
73714.7
74973.9
76651.5
78391
80663.4
82714.3
84707.3
86884.3
89035.7
89096
94641.3
77052.5
64404.6
49822.7
33801.9
15101
226.603
-8.56692
-16.242
-28.3707
-38.1019
-46.1766
-52.936
-58.1154
-61.4055
-62.7418
-62.2615
-60.193
-57.1167
-53.6265
-50.1737
-47.0459
-44.4223
-42.2619
-40.3619
-38.5311
-36.7503
-35.129
-33.7109
-32.4454
-31.3492
-30.5424
-30.0872
-29.8536
-29.6559
-29.3417
-28.6957
-27.6215
-26.9487
-26.3483
-25.2631
-24.1042
-22.8147
-21.4116
-19.8974
-17.9286
-15.2575
61206
65320.1
66183
66866.3
68122.7
69821.7
71883.8
74284.2
76417.5
78264.6
80975.6
83801.1
85098.5
82880.9
70992.4
56091
40127.8
22744.9
2478.83
-8.45317
-24.4131
-34.631
-44.0561
-51.674
-57.9138
-63.0667
-66.9873
-69.4304
-70.3093
-69.6822
-67.6971
-64.7152
-61.2619
-57.8133
-54.6252
-51.8566
-49.5127
-47.4503
-45.5201
-43.6828
-41.9965
-40.5093
-39.212
-38.1148
-37.2838
-36.7546
-36.4536
-36.2233
-35.899
-35.3307
-34.5036
-33.7984
-33.1332
-32.2252
-31.1751
-29.9994
-28.694
-27.2037
-25.3066
-22.7996
56253.8
58894.1
59470.3
59873.9
61058.3
62737.6
64738.5
67157.4
69326.9
71708.3
74305.6
76712
86319.1
75872.7
63286.5
47830.6
30813.2
11353.6
80.3339
-32.6434
-40.466
-49.8514
-57.4837
-63.4606
-68.2966
-72.2521
-75.1996
-76.9827
-77.5318
-76.8309
-74.9423
-72.1171
-68.8242
-65.4562
-62.258
-59.393
-56.8964
-54.6834
-52.649
-50.752
-49.0168
-47.4802
-46.1522
-45.0425
-44.1892
-43.6096
-43.2473
-42.9691
-42.6255
-42.12
-41.4488
-40.7854
-40.1339
-39.3413
-38.4165
-37.3683
-36.1764
-34.7709
-33.0002
-30.7075
50930.5
53293.6
53093
52751
54442.2
55583.3
57109.7
59159.7
61756
64085.6
66920.8
69264.6
82790.9
69889.4
55584
39588.9
21676.8
1774.15
-38.1837
-44.9924
-54.7453
-62.6371
-68.8833
-73.6383
-77.4765
-80.5345
-82.7532
-84.0607
-84.3833
-83.6575
-81.9009
-79.3225
-76.265
-73.0365
-69.8872
-66.9806
-64.3734
-62.0382
-59.91
-57.9562
-56.1844
-54.6143
-53.258
-52.1313
-51.2626
-50.6478
-50.2263
-49.8897
-49.536
-49.084
-48.5151
-47.9193
-47.3186
-46.6273
-45.8287
-44.9151
-43.8505
-42.5685
-40.9587
-38.91
44684.2
47896.2
46630.6
47352.9
47900.8
48308
49334.7
51208.1
53338.1
55850.7
60110.6
56018.1
74461.1
61389.6
47748.5
31402.7
12199.3
65.0565
-49.2407
-58.6977
-67.065
-73.6908
-78.6907
-82.5348
-85.6265
-88.0224
-89.7314
-90.7143
-90.8956
-90.2035
-88.6391
-86.3408
-83.5448
-80.506
-77.4609
-74.5672
-71.9042
-69.4908
-67.2952
-65.2965
-63.4979
-61.905
-60.5336
-59.4002
-58.5146
-57.8591
-57.3845
-57.0068
-56.6451
-56.2274
-55.7377
-55.2189
-54.6849
-54.0924
-53.4168
-52.6351
-51.7035
-50.5631
-49.1332
-47.3337
37943
41728.9
40131.6
42395.7
41048
41099.5
42158.3
42844
44402.6
46588.5
47695.4
68495
58041.7
53403.6
39790.5
23292.1
3209.04
-58.248
-63.5851
-71.3428
-78.1282
-83.4227
-87.3468
-90.4806
-92.9982
-94.9277
-96.2927
-97.0633
-97.1768
-96.5624
-95.2014
-93.1751
-90.6514
-87.8401
-84.9446
-82.1171
-79.4587
-77.0164
-74.7878
-72.7677
-70.9573
-69.3577
-67.9842
-66.8458
-65.9422
-65.2535
-64.7375
-64.326
-63.9525
-63.5598
-63.135
-62.6912
-62.2289
-61.7304
-61.1696
-60.513
-59.7169
-58.7268
-57.4794
-55.9152
31205.3
34743.6
34122.2
35539
34268.6
33838.6
34201.6
35005.1
35136.7
37007.2
44598.3
59167.7
57505.2
45240.9
31917.7
14987.8
166.659
-66.9001
-75.8029
-82.7468
-88.1644
-92.1825
-95.2837
-97.8493
-99.9064
-101.484
-102.602
-103.232
-103.32
-102.795
-101.627
-99.8578
-97.607
-95.0422
-92.3302
-89.6194
-87.0221
-84.6014
-82.3806
-80.3665
-78.563
-76.9719
-75.6053
-74.4659
-73.5501
-72.8364
-72.2852
-71.8427
-71.4575
-71.0848
-70.7103
-70.331
-69.9401
-69.5297
-69.0728
-68.5358
-67.8716
-67.0302
-65.9573
-64.6041
24844.9
28966.3
28638.7
29278.4
27676.7
26904.3
26093.4
25796.5
25467.8
23343.5
30307.9
45033.1
46365.2
37320.1
24362.3
6830.91
-24.1842
-81.651
-87.717
-93.2969
-97.4015
-100.422
-102.885
-104.942
-106.601
-107.889
-108.811
-109.338
-109.415
-108.974
-107.977
-106.443
-104.452
-102.136
-99.6326
-97.0807
-94.5938
-92.2422
-90.068
-88.0892
-86.313
-84.7452
-83.3946
-82.261
-81.3381
-80.6041
-80.0237
-79.5545
-79.1571
-78.7981
-78.4587
-78.1296
-77.8041
-77.4737
-77.1116
-76.6844
-76.145
-75.4456
-74.5326
-73.3675
20581.2
23671.9
23758.7
23495.6
21923.4
21010.8
19108.4
16768.7
14987
13381
37473
52426.9
40225.1
30031.6
17338.3
993.214
-97.7368
-93.0513
-99.1147
-103.254
-106.209
-108.477
-110.375
-111.964
-113.273
-114.308
-115.059
-115.494
-115.555
-115.176
-114.317
-112.988
-111.235
-109.16
-106.881
-104.519
-102.182
-99.9415
-97.8492
-95.9323
-94.2046
-92.6744
-91.3474
-90.2256
-89.3
-88.5496
-87.9445
-87.4521
-87.0418
-86.6883
-86.369
-86.0767
-85.8057
-85.5439
-85.266
-84.9374
-84.5137
-83.9458
-83.1806
-82.1858
17971.9
19831.5
19369.9
18148.3
16655.8
14885
10118.4
6652.51
5894.69
6957.77
26320
38211.4
32522.4
23259.6
10672.6
22.4968
-97.9385
-105.528
-109.843
-112.766
-114.845
-116.501
-117.883
-119.061
-120.061
-120.87
-121.465
-121.803
-121.827
-121.479
-120.721
-119.556
-118.013
-116.169
-114.119
-111.967
-109.807
-107.71
-105.728
-103.896
-102.234
-100.753
-99.4576
-98.3524
-97.4272
-96.6632
-96.0386
-95.5263
-95.1006
-94.7428
-94.4334
-94.1668
-93.9373
-93.7304
-93.5245
-93.2827
-92.9635
-92.5168
-91.8902
-91.052
15278.9
16018.9
14415.4
12740.1
9578.25
5216.54
4731.37
4888.98
5137.82
5975.37
7129.22
34384.3
25335.1
17032.2
4874.1
-67.9056
-113.983
-116.965
-120.068
-121.995
-123.413
-124.541
-125.48
-126.309
-127.04
-127.652
-128.107
-128.343
-128.309
-127.959
-127.263
-126.223
-124.859
-123.225
-121.398
-119.461
-117.491
-115.556
-113.703
-111.974
-110.392
-108.968
-107.713
-106.628
-105.706
-104.934
-104.293
-103.762
-103.32
-102.952
-102.646
-102.395
-102.194
-102.028
-101.879
-101.711
-101.485
-101.151
-100.655
-99.9631
10293.2
11694.8
10117.2
7506.93
4741.25
4600.44
4678.28
4796.41
4969.2
5257.26
6193.18
19662.4
17945.2
11328.5
863.545
-136.202
-124.33
-127.953
-129.807
-131.032
-131.931
-132.615
-133.192
-133.73
-134.237
-134.685
-135.007
-135.145
-135.055
-134.696
-134.042
-133.095
-131.871
-130.413
-128.782
-127.045
-125.263
-123.494
-121.781
-120.165
-118.67
-117.312
-116.102
-115.042
-114.128
-113.353
-112.698
-112.15
-111.693
-111.313
-111.005
-110.762
-110.577
-110.439
-110.332
-110.223
-110.076
-109.843
-109.472
-108.92
6062.05
7869.57
6820.62
4653.57
4485.23
4553.26
4620.29
4706.67
4825.27
5035.25
4836.99
10504.7
11139.5
6306.1
37.9766
-129.53
-136.034
-138.139
-139.199
-139.907
-140.392
-140.727
-141.016
-141.317
-141.644
-141.939
-142.138
-142.191
-142.055
-141.694
-141.086
-140.226
-139.126
-137.818
-136.351
-134.78
-133.159
-131.539
-129.962
-128.46
-127.057
-125.769
-124.611
-123.581
-122.681
-121.908
-121.245
-120.683
-120.212
-119.82
-119.506
-119.263
-119.084
-118.962
-118.881
-118.816
-118.733
-118.588
-118.334
-117.923
4653.33
4786.41
4421.11
4366
4433.32
4493.69
4551.63
4619.22
4685.28
5005.28
2366.95
5623.96
6184.17
2525.93
-124.333
-145.57
-147.058
-147.858
-148.323
-148.643
-148.812
-148.884
-148.946
-149.074
-149.251
-149.413
-149.505
-149.482
-149.304
-148.938
-148.366
-147.581
-146.589
-145.417
-144.1
-142.682
-141.206
-139.718
-138.256
-136.855
-135.538
-134.324
-133.221
-132.231
-131.353
-130.587
-129.924
-129.353
-128.871
-128.468
-128.144
-127.895
-127.715
-127.596
-127.527
-127.488
-127.45
-127.379
-127.235
-126.973
4383.49
4325.61
4308.15
4316.16
4368.05
4426.08
4484.85
4543.54
4583.87
4363.06
1415.62
3032.35
2988.22
320.804
-141.915
-156.314
-156.765
-157.142
-157.226
-157.275
-157.215
-157.096
-156.998
-156.994
-157.045
-157.095
-157.095
-157.006
-156.79
-156.417
-155.873
-155.147
-154.247
-153.189
-152.001
-150.718
-149.378
-148.016
-146.666
-145.359
-144.122
-142.973
-141.92
-140.971
-140.126
-139.376
-138.721
-138.15
-137.659
-137.247
-136.912
-136.654
-136.465
-136.34
-136.269
-136.239
-136.227
-136.207
-136.161
-136.067
4328.69
4302.04
4280.28
4288.02
4320.47
4364.26
4421.65
4444.66
4499.2
3188.18
803.833
1695.31
1048.2
-95.8284
-178.996
-165.932
-166.378
-166.101
-165.971
-165.846
-165.637
-165.37
-165.176
-165.068
-165.015
-164.972
-164.896
-164.749
-164.499
-164.119
-163.597
-162.921
-162.096
-161.134
-160.057
-158.893
-157.672
-156.426
-155.181
-153.966
-152.808
-151.723
-150.719
-149.808
-148.991
-148.262
-147.621
-147.055
-146.564
-146.147
-145.804
-145.535
-145.333
-145.192
-145.109
-145.072
-145.062
-145.068
-145.091
-145.193
4268.87
4235.84
4232.87
4254.1
4275.93
4306.14
4347.83
4393
4565.58
539.701
753.183
983.25
-98.1919
-163.387
-169.503
-175.617
-175.137
-174.812
-174.618
-174.406
-174.093
-173.745
-173.48
-173.291
-173.156
-173.036
-172.897
-172.702
-172.422
-172.036
-171.53
-170.897
-170.135
-169.256
-168.275
-167.215
-166.1
-164.958
-163.81
-162.681
-161.598
-160.576
-159.623
-158.75
-157.96
-157.252
-156.623
-156.065
-155.579
-155.162
-154.812
-154.533
-154.315
-154.157
-154.052
-153.995
-153.969
-153.965
-153.992
-154.158
4229.77
4188.65
4208.14
4222.02
4236.69
4255.79
4289.64
4342.18
4063.3
228.649
791.286
521.12
-542.119
-178.047
-187.15
-184.39
-183.757
-183.403
-183.229
-182.986
-182.593
-182.212
-181.901
-181.657
-181.46
-181.281
-181.089
-180.854
-180.55
-180.159
-179.668
-179.07
-178.363
-177.555
-176.659
-175.689
-174.668
-173.618
-172.559
-171.511
-170.5
-169.538
-168.636
-167.803
-167.042
-166.354
-165.738
-165.19
-164.708
-164.291
-163.937
-163.647
-163.416
-163.238
-163.109
-163.024
-162.967
-162.926
-162.891
-162.843
4157.7
4162.6
4179.31
4192.53
4203.49
4220.3
4267.84
4357.27
2173.3
619.468
826.899
98.3309
-478.279
-209.291
-193.272
-192.92
-192.271
-191.995
-191.867
-191.6
-191.187
-190.785
-190.443
-190.163
-189.922
-189.698
-189.465
-189.198
-188.877
-188.483
-188.005
-187.438
-186.778
-186.031
-185.208
-184.318
-183.381
-182.415
-181.436
-180.465
-179.521
-178.616
-177.765
-176.972
-176.241
-175.576
-174.975
-174.438
-173.962
-173.544
-173.187
-172.888
-172.643
-172.446
-172.293
-172.178
-172.088
-172.006
-171.91
-171.754
4118.77
4139.59
4163.11
4167.74
4174.33
4184.29
4231.87
4068.81
706.022
971.535
763.634
-323.746
-135.292
-201.298
-202.343
-201.529
-200.878
-200.683
-200.576
-200.265
-199.863
-199.464
-199.11
-198.807
-198.538
-198.284
-198.021
-197.731
-197.397
-197.001
-196.537
-195.997
-195.378
-194.686
-193.927
-193.107
-192.245
-191.355
-190.45
-189.548
-188.667
-187.818
-187.015
-186.262
-185.564
-184.923
-184.339
-183.815
-183.345
-182.929
-182.571
-182.265
-182.009
-181.796
-181.622
-181.482
-181.365
-181.256
-181.143
-181.015
4063.38
4076.7
4148.05
4144.75
4133.21
4147.17
4217.93
3033.14
932.474
1140.3
554.842
-570.157
-206.641
-211.294
-210.875
-210.002
-209.571
-209.48
-209.364
-209.039
-208.648
-208.26
-207.907
-207.595
-207.31
-207.036
-206.753
-206.449
-206.106
-205.712
-205.262
-204.746
-204.164
-203.521
-202.819
-202.061
-201.266
-200.447
-199.609
-198.77
-197.947
-197.152
-196.395
-195.682
-195.016
-194.401
-193.836
-193.324
-192.863
-192.453
-192.094
-191.785
-191.522
-191.298
-191.111
-190.956
-190.823
-190.711
-190.618
-190.561
4013.36
4010.24
4010.18
4081.16
4059.48
4111.86
4055.75
1210.41
1332.59
1124.24
185.235
-491.599
-228.428
-219.051
-219.013
-218.583
-218.376
-218.384
-218.223
-217.909
-217.543
-217.176
-216.837
-216.528
-216.237
-215.952
-215.659
-215.347
-215.002
-214.612
-214.176
-213.684
-213.136
-212.536
-211.884
-211.184
-210.449
-209.691
-208.915
-208.134
-207.366
-206.622
-205.909
-205.233
-204.6
-204.011
-203.468
-202.971
-202.519
-202.116
-201.76
-201.45
-201.184
-200.955
-200.762
-200.599
-200.463
-200.353
-200.263
-200.2
3926.17
3944.25
3921.04
3949.67
4000.33
4090.23
3096.95
1339.06
1501.9
935.589
-270.761
-125.478
-227.438
-227.932
-227.615
-227.313
-227.32
-227.378
-227.195
-226.9
-226.563
-226.224
-225.906
-225.609
-225.322
-225.035
-224.739
-224.426
-224.081
-223.7
-223.279
-222.81
-222.294
-221.733
-221.126
-220.479
-219.799
-219.094
-218.375
-217.647
-216.932
-216.236
-215.564
-214.926
-214.324
-213.761
-213.239
-212.758
-212.32
-211.925
-211.574
-211.265
-210.997
-210.766
-210.57
-210.405
-210.267
-210.157
-210.071
-210.012
3795.96
3812.63
3842.81
3879.01
3924.17
3824.21
1595.28
1711.83
1444.06
574.42
-501.786
-223.158
-238.804
-236.796
-236.332
-236.237
-236.406
-236.447
-236.277
-236.016
-235.717
-235.414
-235.124
-234.846
-234.569
-234.287
-233.995
-233.683
-233.344
-232.976
-232.57
-232.124
-231.639
-231.113
-230.546
-229.947
-229.317
-228.662
-227.992
-227.316
-226.65
-225.998
-225.366
-224.765
-224.194
-223.656
-223.155
-222.691
-222.267
-221.882
-221.537
-221.233
-220.966
-220.736
-220.539
-220.372
-220.236
-220.129
-220.047
-219.994
3727.24
3742.73
3786.41
3835.34
3894.24
2564.7
1841.2
1811.28
1196.85
73.3299
-301.394
-258.087
-245.065
-245.453
-245.293
-245.386
-245.635
-245.65
-245.503
-245.277
-245.018
-244.756
-244.499
-244.245
-243.984
-243.712
-243.426
-243.121
-242.792
-242.437
-242.049
-241.625
-241.169
-240.676
-240.148
-239.591
-239.005
-238.396
-237.773
-237.145
-236.524
-235.913
-235.321
-234.754
-234.213
-233.701
-233.22
-232.774
-232.364
-231.99
-231.654
-231.356
-231.094
-230.867
-230.671
-230.506
-230.372
-230.266
-230.188
-230.142
3701.14
3715.02
3744.21
3797.72
3351.16
1998.85
2054.43
1646.68
805.32
-443.43
-164.834
-253.611
-255.035
-254.729
-254.577
-254.782
-255.006
-255.009
-254.883
-254.695
-254.481
-254.263
-254.041
-253.812
-253.57
-253.311
-253.036
-252.741
-252.425
-252.085
-251.715
-251.314
-250.884
-250.422
-249.931
-249.411
-248.865
-248.3
-247.721
-247.137
-246.558
-245.986
-245.431
-244.897
-244.385
-243.898
-243.438
-243.01
-242.615
-242.253
-241.928
-241.637
-241.381
-241.158
-240.966
-240.805
-240.673
-240.57
-240.495
-240.452
3668.74
3684.87
3710.73
3516
2308.28
2280.87
1942.95
1321.72
289.383
-418.208
-273.87
-265.173
-264.559
-264.179
-264.14
-264.404
-264.557
-264.543
-264.44
-264.29
-264.123
-263.947
-263.761
-263.557
-263.335
-263.091
-262.83
-262.55
-262.248
-261.923
-261.572
-261.196
-260.79
-260.356
-259.898
-259.413
-258.905
-258.379
-257.841
-257.299
-256.758
-256.224
-255.704
-255.201
-254.717
-254.254
-253.815
-253.406
-253.027
-252.679
-252.365
-252.083
-251.834
-251.616
-251.428
-251.271
-251.143
-251.043
-250.97
-250.929
3632.75
3660.38
3570.81
2637.34
2482.86
2184.08
1703.27
894.167
-295.377
-118.103
-270.945
-274.291
-274.061
-273.837
-273.944
-274.189
-274.281
-274.258
-274.181
-274.072
-273.951
-273.816
-273.661
-273.483
-273.281
-273.056
-272.812
-272.548
-272.263
-271.954
-271.622
-271.267
-270.884
-270.478
-270.05
-269.598
-269.125
-268.636
-268.135
-267.631
-267.127
-266.629
-266.142
-265.669
-265.212
-264.773
-264.356
-263.966
-263.603
-263.269
-262.966
-262.695
-262.455
-262.242
-262.059
-261.907
-261.781
-261.685
-261.615
-261.576
1256.2
3178.51
3242.1
2862.06
2518.43
2146.67
1499.36
417.144
-339.683
-289.397
-282.131
-283.222
-283.478
-283.623
-283.903
-284.11
-284.169
-284.159
-284.117
-284.055
-283.978
-283.878
-283.75
-283.595
-283.413
-283.209
-282.984
-282.737
-282.469
-282.178
-281.865
-281.53
-281.171
-280.791
-280.39
-279.967
-279.528
-279.074
-278.609
-278.14
-277.669
-277.206
-276.75
-276.306
-275.876
-275.46
-275.066
-274.695
-274.347
-274.027
-273.737
-273.477
-273.245
-273.039
-272.863
-272.714
-272.592
-272.498
-272.432
-272.394
123393
128476
128441
128384
128300
128185
128031
127829
127564
127216
126760
126159
125361
124289
122828
120793
117863
113415
106005
92297.4
113217
118285
118247
118183
118090
117963
117795
117573
117284
116907
116412
115761
114894
113727
112128
109881
106605
101549
93180.8
78206
103069
108122
108080
108011
107911
107775
107595
107359
107054
106657
106139
105461
104565
103365
101736
99481.8
96283.3
91608.4
84581.6
73714.9
92951.2
97987.7
97943.1
97870.3
97765.4
97622.9
97434.9
97190.8
96875.8
96469.8
95945.1
95263.8
94372.9
93197.8
91632
89522.6
86646.6
82675.5
77136
69450.3
82864.6
87884.6
87838.3
87763
87654.8
87508.6
87316.6
87068.8
86751.3
86345.6
85826.7
85160.9
84302.9
83191.2
81743
79847.4
77357.2
74079.9
69781.1
64278
72810.3
77813.6
77766.6
77690
77580.4
77432.9
77240.2
76992.9
76678.6
76280.7
75777.3
75139.9
74331.2
73302.8
71993
70324.4
68203.1
65520.4
62165.3
58071.3
62788.6
67775.6
67728.4
67651.8
67542.5
67395.8
67205.1
66961.9
66655
66270.1
65788.4
65186.3
64434
63494.2
62321.9
60863.8
59060.7
56851
54180.7
51024.7
52799.4
57770.4
57723.9
57648.4
57540.8
57396.7
57210.2
56973.6
56677.1
56308.2
55851.4
55287.1
54591.5
53736.4
52688.6
51411.7
49868.1
48022.9
45848.8
43337
42841.9
47797.9
47752.8
47679.5
47574.9
47434.7
47253.9
47025.6
46741.3
46390.1
45959
45431.9
44789.6
44010.1
43068.7
41940.2
40601.4
39033.2
37222.5
35165
32914.7
37857
37814.5
37744.6
37643.9
37508.8
37334.7
37115.7
36844.3
36511.1
36105.2
35613.2
35019.1
34304.6
33450
32437.6
31255.4
29896.8
28357.4
26631.8
23014.5
27946.4
27908.5
27843.2
27747.2
27617.8
27451
27241.6
26983.1
26667.4
26285.6
25826.5
25275.9
24616.6
23829.7
22902.1
21833.3
20635.3
19311.6
17848.5
13132
18064.8
18035.8
17975.6
17884
17760.6
17601.5
17401.6
17155.3
16856.3
16497.4
16070
15562.4
14954.9
14221.7
13354.7
12374.6
11315.2
10190.2
8972.24
3225.32
8214.08
8196.57
8140.62
8054.32
7937.56
7786.45
7595.64
7360.58
7076.58
6738.02
6341.41
5885.05
5337.94
4628.63
3776.97
2900.74
2127.54
1484.38
978.439
-429.709
213.67
209.312
181.631
138.3
83.7164
20.3602
-49.9476
-124.555
-201.347
-277.908
-351.13
-417.952
-427.687
-426.627
-426.753
-426.444
-425.088
-421.358
-421.977
-439.168
-433.945
-433.987
-433.986
-433.97
-433.952
-433.936
-433.926
-433.924
-433.934
-433.967
-433.986
-433.88
-434.375
-434.549
-434.562
-434.429
-434.167
-433.851
-433.56
-448.819
-443.795
-443.81
-443.811
-443.806
-443.8
-443.797
-443.798
-443.802
-443.807
-443.811
-443.797
-443.776
-443.793
-443.814
-443.815
-443.793
-443.751
-443.697
-443.653
-458.601
-453.663
-453.655
-453.652
-453.647
-453.642
-453.639
-453.638
-453.638
-453.636
-453.631
-453.618
-453.596
-453.577
-453.568
-453.563
-453.557
-453.547
-453.529
-453.507
-468.417
-463.499
-463.492
-463.487
-463.483
-463.479
-463.475
-463.473
-463.47
-463.464
-463.456
-463.445
-463.431
-463.417
-463.406
-463.399
-463.392
-463.383
-463.371
-463.357
-478.24
-473.325
-473.322
-473.319
-473.315
-473.312
-473.309
-473.306
-473.302
-473.296
-473.287
-473.278
-473.268
-473.259
-473.251
-473.243
-473.236
-473.228
-473.219
-473.21
-488.064
-483.151
-483.149
-483.148
-483.146
-483.143
-483.141
-483.138
-483.135
-483.13
-483.123
-483.115
-483.108
-483.102
-483.097
-483.092
-483.086
-483.08
-483.074
-483.069
-497.89
-492.975
-492.975
-492.975
-492.975
-492.974
-492.973
-492.971
-492.968
-492.964
-492.959
-492.954
-492.95
-492.947
-492.946
-492.944
-492.941
-492.938
-492.936
-492.934
-507.712
-502.799
-502.799
-502.801
-502.802
-502.803
-502.803
-502.802
-502.801
-502.799
-502.796
-502.793
-502.792
-502.793
-502.795
-502.797
-502.798
-502.799
-502.801
-502.804
-517.522
-512.618
-512.622
-512.625
-512.628
-512.631
-512.632
-512.633
-512.634
-512.634
-512.633
-512.634
-512.636
-512.639
-512.644
-512.65
-512.656
-512.661
-512.668
-512.676
-527.313
-522.434
-522.444
-522.449
-522.454
-522.457
-522.46
-522.463
-522.465
-522.468
-522.471
-522.475
-522.48
-522.486
-522.494
-522.503
-522.513
-522.523
-522.535
-522.548
39513.9
38665.7
38074.8
38590.5
42047.3
47703.8
54608.8
61588.1
67493.3
71416.5
72752.4
71191
66371.1
57283.4
40588.3
48461.5
32858.7
28405.5
28544.2
31454.1
36437.4
42734.1
49211.6
54731.5
58379.8
59568.5
58000.2
53428
45446.6
33762
57840.3
38948.2
28181.7
24439.1
25253.9
29014
34327.7
39916.2
44622.9
47609.4
48414.3
46873.4
42971.6
36810.7
28835.8
59781.1
47594.9
37504.2
31229.8
28769.7
29317.5
31830.7
34951.2
37607
39100
39059.7
37363.9
34050.2
29305.9
23550.1
57500.7
49489.9
42117.3
36460.6
32910.2
31313.2
31185.8
31738.6
32244.1
32186.4
31242.8
29265.7
26255.2
22355
17867.3
53154.5
47395.3
41822.5
37043.2
33373.4
30846.1
29239.8
28172.5
27221.2
26031.9
24358.6
22072.7
19160.5
15711.1
11900
47320.3
42969.3
38594.5
34545.5
31046.5
28178.6
25850.1
23879.6
22032.9
20091.6
17892.2
15336.7
12387.2
9076.68
5548.17
40432.8
37012.8
33475.2
30017.9
26800.5
23884.2
21252.3
18824.5
16481.1
14087.7
11511.5
8665
5561.95
2393.95
267.838
32808.1
30024.5
27086
24110.2
21190.2
18384.2
15704.6
13109.8
10502.9
7773.79
4885.33
2042.22
133.733
-387.214
-369.852
24663.6
22328.1
19838.7
17265
14658.3
12050.5
9415.85
6708.01
3916.51
1477.88
-156.105
-390.053
-380.423
-383.942
-383.225
16188.5
14215.3
12093
9815.83
7420.67
4897.43
2462.93
767.914
-399.752
-391.547
-390.919
-394.162
-393.376
-393.148
-393.08
7539
5738.86
3845.44
2067.23
758.563
-357.275
-416.631
-398.061
-403.276
-404.51
-403.463
-403.401
-403.298
-403.195
-403.123
316.377
-312.542
-428.153
-414.027
-410.536
-413.361
-415.184
-413.81
-413.579
-413.565
-413.467
-413.38
-413.294
-413.212
-413.143
-422.352
-423.782
-425.003
-424.591
-423.664
-423.649
-423.701
-423.624
-423.553
-423.486
-423.412
-423.334
-423.263
-423.199
-423.144
-433.518
-433.703
-433.762
-433.748
-433.666
-433.625
-433.576
-433.521
-433.459
-433.399
-433.34
-433.282
-433.226
-433.175
-433.13
-443.635
-443.625
-443.596
-443.567
-443.53
-443.494
-443.454
-443.413
-443.366
-443.317
-443.27
-443.226
-443.184
-443.144
-443.109
-453.488
-453.47
-453.45
-453.428
-453.401
-453.372
-453.342
-453.309
-453.274
-453.237
-453.201
-453.169
-453.138
-453.11
-453.083
-463.342
-463.327
-463.312
-463.295
-463.277
-463.256
-463.235
-463.211
-463.185