/*--------------------------------*- C++ -*----------------------------------*\
| =========                 |                                                 |
| \\      /  F ield         | OpenFOAM: The Open Source CFD Toolbox           |
|  \\    /   O peration     | Version:  v1912                                 |
|   \\  /    A nd           | Website:  www.openfoam.com                      |
|    \\/     M anipulation  |                                                 |
\*---------------------------------------------------------------------------*/
FoamFile
{
    version     2.0;
    format      ascii;
    class       volScalarField;
    location    "42";
    object      p_rgh;
}
// * * * * * * * * * * * * * * * * * * * * * * * * * * * * * * * * * * * * * //

dimensions      [1 -1 -2 0 0 0 0];


internalField   nonuniform List<scalar> 
20320
(
434695
434771
434797
434849
434920
435008
435110
435225
435349
435479
435612
435746
435876
436000
436116
436219
436309
436384
436439
436471
434582
434681
434715
434769
434841
434930
435034
435149
435273
435404
435537
435671
435801
435926
436040
436143
436230
436300
436351
436382
434358
434496
434532
434586
434659
434748
434852
434967
435091
435222
435355
435488
435617
435740
435854
435955
436041
436109
436159
436190
434049
434227
434262
434316
434388
434477
434579
434694
434817
434947
435079
435210
435338
435459
435571
435670
435755
435823
435873
435908
433667
433881
433915
433968
434039
434126
434227
434340
434461
434589
434719
434849
434974
435093
435202
435299
435382
435450
435501
435539
433223
433466
433499
433551
433620
433705
433804
433914
434033
434158
434285
434412
434535
434650
434756
434850
434931
434997
435048
435089
432726
432994
433026
433076
433143
433224
433320
433426
433541
433661
433784
433907
434025
434137
434239
434329
434406
434470
434520
434563
432187
432474
432504
432552
432615
432692
432782
432883
432992
433106
433223
433340
433452
433558
433654
433738
433810
433870
433918
433962
431614
431916
431944
431987
432046
432118
432201
432294
432395
432501
432608
432715
432819
432915
433002
433079
433143
433197
433242
433285
431016
431328
431353
431392
431445
431509
431584
431667
431756
431850
431944
432038
432128
432211
432285
432348
432402
432446
432485
432525
430403
430720
430742
430776
430820
430875
430938
431008
431083
431160
431237
431311
431381
431444
431498
431543
431578
431608
431638
431672
429784
430101
430119
430146
430181
430224
430273
430326
430382
430437
430489
430538
430579
430613
430638
430653
430663
430670
430683
430706
429166
429480
429492
429511
429536
429565
429596
429629
429660
429687
429708
429721
429724
429715
429696
429668
429636
429607
429594
429597
428558
428863
428870
428880
428892
428905
428917
428924
428926
428918
428899
428865
428815
428748
428665
428571
428474
428387
428329
428293
427966
428260
428261
428261
428259
428254
428243
428222
428189
428140
428070
427977
427857
427709
427535
427341
427142
426959
426824
426718
427398
427677
427671
427661
427644
427620
427583
427532
427460
427362
427233
427067
426858
426602
426299
425958
425596
425251
424977
424742
426858
427119
427107
427086
427055
427010
426948
426863
426749
426599
426403
426151
425833
425439
424963
424405
423787
423161
422623
422130
426351
426592
426573
426542
426496
426432
426343
426225
426069
425864
425596
425251
424809
424249
423549
422692
421681
420565
419495
418444
425879
426100
426075
426034
425974
425891
425778
425628
425431
425172
424834
424393
423820
423076
422114
420875
419302
417365
415182
412741
425445
425645
425615
425565
425492
425392
425257
425079
424844
424537
424134
423605
422908
421985
420752
419089
416818
413676
409307
403081
136672
137311
137691
137916
138124
138273
137758
136464
134470
131845
129077
128718
129785
133854
132803
129589
129827
131308
136630
152562
165163
161523
140899
111476
82493
59507.6
49088.8
48848.7
39518
38624.9
36827.7
35685
34890.8
34471.7
33806.2
33619.4
33914.6
34106
33636.9
33033.4
33050.9
34338
34669.9
32470
31986.8
32169.8
32115.6
32663.9
33202.4
32628.2
29723
28875.5
28563.8
30245.5
30151.2
25585.1
25254.4
25372.4
25292.2
24991.8
136332
136990
137469
137900
138262
138569
138278
137379
135850
131187
127256
126584
127626
133379
131930
128603
127814
129707
133726
145703
164758
157097
136286
111615
86374.1
65808.1
53428.1
53433.6
45144.8
39946.6
37467.6
36036.9
35085.7
34448.2
34177.1
34148.2
34048.1
34005.2
33971.6
34294.3
34742.3
34638.2
34607.1
34577.2
34915.7
34374.1
34315
31910.8
32008.7
32810.9
32288.9
31760.5
28736.6
30364.5
29264.2
29266.2
29763.7
28570
27995.2
27758.9
132663
136311
137026
137812
138194
138306
139015
135336
133042
126640
127214
127073
137372
135996
135529
126672
126798
128660
139267
144234
143934
135844
120038
100295
80212.9
63981.1
54553.1
50145.3
44961.9
40410.4
37829.1
36287.5
35295.1
34636.3
34301.1
34193.7
34120
34039.2
34040.4
34339.2
34712.7
34757.9
34645.8
34644
34818.2
34576
34601.7
34597.3
33756.9
32442.1
29707.1
32332.5
32862.4
30783.1
29613.1
29258.9
29090.2
28456.7
27985.9
27706.8
135635
132528
133111
137080
138524
135187
137810
140299
138869
126312
129905
141928
140058
138374
139347
124058
126010
138248
135895
132830
129340
120739
106890
90350
73864.2
60251.8
51599.4
47085.2
43255.9
39851.9
37644.7
36245.2
35327.9
34712.8
34356.1
34209.5
34143.3
34113.3
34164.7
34409
34708.8
34810
34768.7
34758.4
34821.7
34703.4
34609
34422.9
33826.6
33377.4
33244.7
32921.7
32293.1
30891.7
29828.6
29195
28777.4
28302.4
27887.8
27533.6
136709
137385
137866
135935
135705
139755
140985
141408
142190
126935
146177
143319
140201
140144
141862
116893
120939
137325
129636
123092
116243
106376
93409.5
79204.9
65738.6
54778.5
47509.8
43506
40791.8
38511.6
36951.8
35912
35184.4
34659.5
34313.6
34163.5
34115
34124.1
34209.6
34443.3
34729.3
34853
34843.8
34829.4
34859.1
34786.9
34610.1
34322.5
33866.1
33445.8
33134.1
32728.3
32049.1
30890.8
30013
29105.3
28488
28187.2
27770.5
27215.4
135143
135782
135635
138558
138703
137972
141399
134576
138603
145682
146123
142934
142511
139364
137433
109332
136640
132501
122713
113436
103730
92283.6
79471.3
66971.4
56129.2
47770.4
42284.4
39341.1
37707.6
36458.1
35734.6
35265.1
34843.1
34467
34154.3
34042.6
34031.9
34091.8
34200.5
34449.2
34773.7
34899.9
34888.9
34862.7
34901
34883
34614.4
34213.4
33874.6
33468.9
32956.8
32509.2
31891.8
30838.3
30417.8
28003.9
20817.5
21277.9
16356.1
5581.37
127246
135881
137624
138387
139411
140463
141555
134235
141302
145695
146411
140890
143760
140457
111134
101543
139680
126888
115250
103696
91456.3
78222.7
64944.6
53335.2
44572.1
39169.6
36063.8
34602.4
34375
34241.1
33965.3
32801.2
30161.7
27149.1
21830
20654.8
20074.6
19956.3
19976.4
23075
29920.9
30553
30500.9
30686
30697.8
31814.4
33038.7
32004.4
30320.9
28875.2
27067.8
23753.5
18402.2
177.664
35.0176
52.9568
46.2133
45.2349
47.1705
50.723
126018
128814
137369
138119
138919
140571
141885
143767
145126
146196
146786
143590
145092
143820
90327.9
99309.6
134150
120757
107654
93991
79446.4
64057.1
47943.6
22859.6
4601.02
22.3621
3.35346
-8.29113
-6.45493
-6.45933
2.74994
9.69276
14.3987
18.5562
21.5197
22.998
24.4146
26.1738
28.4293
29.4735
29.264
29.6485
31.1243
32.4698
31.99
30.7281
29.549
29.6651
30.2212
30.0111
46.1228
38.0668
37.4409
43.5571
41.4619
44.3028
44.9636
45.1322
46.9528
50.1173
131813
124219
137026
135672
135246
139743
133496
140345
145363
146748
147703
139679
145150
144133
90880.5
126056
127582
114394
100035
84494.9
67488
34265.9
75.7777
52.6859
40.8372
26.5943
16.7561
10.2063
6.71112
5.18627
8.06988
10.9375
13.8324
16.8974
19.7806
21.7898
23.3499
24.7789
26.4322
28.0457
29.286
30.4254
31.7337
32.9707
33.7079
33.8034
33.941
34.2379
34.4772
35.4029
39.0648
36.7934
36.5206
40.2846
40.9034
42.9382
44.267
45.0362
46.8802
49.7994
118754
136112
136584
137193
138890
138100
141593
143709
145463
147318
139883
144810
149396
130811
89070.5
131626
121635
108067
92537.9
75214.1
34192.6
95.5182
55.4666
44.4317
31.6694
20.2297
11.6256
6.13332
3.80155
3.91534
5.85003
9.00898
12.313
15.5898
18.5414
20.7838
22.5498
24.157
25.8582
27.5039
28.8655
30.0704
31.3228
32.4797
33.1843
33.3814
33.4519
33.6416
33.973
34.8279
37.2415
36.9125
37.018
39.1925
40.3451
41.9074
43.3887
44.5994
46.5174
49.3552
115099
135401
134301
136960
138416
139940
141865
142189
144634
147673
146306
150545
151393
96292.9
110596
129689
116781
102088
85400.3
59772.7
79.0111
55.6251
46.4143
33.9975
23.584
14.8224
8.08455
3.77652
1.89956
2.16822
4.24518
7.3662
10.7935
14.1733
17.2081
19.6539
21.6161
23.3593
25.1089
26.8329
28.3539
29.682
30.9276
32.0428
32.8099
33.1629
33.3277
33.5094
33.8274
34.5759
36.0888
36.5225
36.942
38.3586
39.5944
40.9982
42.4638
43.9031
45.8773
48.652
123636
134913
129459
136610
137354
137761
139899
128755
127473
147602
149779
151873
151991
94704.2
137874
127300
112718
96697.1
77996.2
3959.8
54.3283
46.6532
34.5245
24.7933
16.7186
9.95926
4.77985
1.48971
0.153383
0.633693
2.70223
5.77845
9.2687
12.7215
15.8493
18.4729
20.6333
22.5333
24.3641
26.145
27.7663
29.1843
30.4498
31.5459
32.3528
32.808
33.0416
33.2393
33.5535
34.1996
35.2737
35.9465
36.5468
37.6321
38.791
40.0805
41.4837
42.9978
44.9666
47.6377
104235
134195
135301
135977
137100
138869
133137
135505
145114
147382
148717
152919
125490
93669.9
140110
125209
109245
91862.6
44877.2
60.6645
44.7046
34.4867
25.0616
17.4437
11.2039
6.05095
2.1304
-0.312644
-1.19153
-0.564543
1.42066
4.40256
7.85585
11.3044
14.4925
17.2611
19.605
21.6674
23.5976
25.4349
27.1211
28.6084
29.9057
31.0029
31.8338
32.3631
32.6641
32.8944
33.2187
33.7871
34.6142
35.3194
35.9845
36.8925
37.9426
39.1184
40.4237
41.914
43.8111
46.3182
103087
133068
134890
135325
134611
138189
140190
142609
141462
141516
149734
152164
89456.6
143994
138738
123282
106265
86805.3
717.265
42.8083
34.9858
25.6003
17.9681
11.9912
7.15513
3.19958
0.252165
-1.53096
-2.08012
-1.3791
0.509487
3.33466
6.62757
9.99556
13.1938
16.0587
18.5554
20.7684
22.8027
24.6998
26.4349
27.9715
29.2996
30.4093
31.2625
31.8422
32.2045
32.4826
32.8262
33.3318
34.0029
34.6664
35.318
36.1104
37.0352
38.0834
39.2754
40.6809
42.4515
44.7443
117815
122421
134537
130061
134120
136017
131650
140042
142942
145749
148818
151164
82872.8
151789
137483
121488
103576
51215.8
43.7157
36.907
27.1541
19.2624
13.0161
8.26113
4.42289
1.36484
-0.853845
-2.16128
-2.4839
-1.75805
-0.00154657
2.5769
5.63433
8.86292
12.0122
14.9188
17.526
19.8611
21.9894
23.9432
25.715
27.2851
28.6414
29.7681
30.6367
31.2517
31.6731
32.0097
32.3634
32.8154
33.3843
33.9801
34.5808
35.2721
36.0707
36.9843
38.0488
39.3309
40.9407
42.9894
122381
103315
134755
85555.6
136363
135527
134690
135769
141801
144313
148563
79661.7
138528
149852
136211
119865
100662
3965.8
39.222
29.765
21.3976
14.7718
9.77192
5.92791
2.83613
0.440172
-1.26875
-2.25175
-2.43293
-1.7408
-0.176494
2.1218
4.91788
7.95665
11.0017
13.8955
16.5585
18.9718
21.1675
23.1661
24.9647
26.5577
27.9291
29.0624
29.9481
30.6035
31.0781
31.4559
31.8175
32.2352
32.725
33.2437
33.7778
34.3703
35.0458
35.8276
36.7591
37.8995
39.3295
41.129
128233
102246
133278
108015
136111
123548
119274
133046
139546
141394
142839
68590.1
152742
148547
134934
118436
88025.1
36.8956
31.5585
23.8008
17.0155
11.7209
7.79685
4.66304
2.14544
0.215982
-1.1491
-1.91965
-2.03317
-1.41882
-0.0577433
1.96855
4.4923
7.30349
10.199
13.0265
15.6849
18.1272
20.3558
22.3759
24.1863
25.7859
27.1595
28.2978
29.2014
29.8901
30.4061
30.8177
31.1911
31.5838
32.0086
32.4524
32.9147
33.4132
33.9741
34.6307
35.4267
36.4169
37.6642
39.2284
127782
117583
106790
137483
136205
135206
136139
121443
132677
138883
146259
59269.6
159450
147185
133862
116932
15448.2
35.0443
26.1414
19.1975
13.7799
9.76185
6.66068
4.09505
2.03794
0.460152
-0.657455
-1.2875
-1.37572
-0.850748
0.317734
2.08648
4.3373
6.90218
9.61405
12.3249
14.9223
17.3429
19.5638
21.5778
23.3813
24.9725
26.3391
27.4784
28.3942
29.108
29.6592
30.1016
30.4868
30.8595
31.2341
31.6134
32.0042
32.4146
32.8715
33.4085
34.0728
34.9141
35.987
37.3403
123960
88590.4
76032.7
138146
132256
135026
134961
134664
132059
132211
87521
102016
155232
146187
133230
115698
84.6831
27.2163
21.1503
15.5704
11.4658
8.44516
5.98262
3.92528
2.26639
0.978525
0.056713
-0.470753
-0.548123
-0.10636
0.890578
2.42395
4.4148
6.7309
9.23463
11.7866
14.2735
16.6251
18.7993
20.778
22.5542
24.1221
25.4727
26.6062
27.5292
28.2632
28.8437
29.3128
29.7102
30.0692
30.4086
30.7376
31.0632
31.3936
31.7557
32.1829
32.7223
33.4217
34.3346
35.4998
53358.5
102116
61705.3
139409
113829
136925
135022
132682
130901
129295
37588.9
153064
156139
145945
133252
61301.3
18.177
22.8625
16.7992
12.6596
9.70449
7.43637
5.53887
3.94938
2.64077
1.6057
0.855015
0.419839
0.358378
0.737925
1.5963
2.92611
4.6792
6.75359
9.03306
11.3943
13.7313
15.9723
18.0646
19.9816
21.7092
23.2394
24.5664
25.6882
26.6138
27.3643
27.9693
28.4618
28.872
29.2256
29.5448
29.8372
30.1081
30.3699
30.6478
30.9765
31.4001
31.968
32.7332
33.7281
52734.5
118317
59664.8
141113
131421
137789
99970.1
60594
72517.2
10005.8
26443.1
159905
155610
146347
133760
10785.5
25.1489
17.5593
13.2443
10.3212
8.24226
6.58622
5.20434
4.02601
3.02625
2.217
1.62246
1.28442
1.26034
1.60844
2.36669
3.53166
5.07441
6.91843
8.96815
11.12
13.2801
15.3775
17.3598
19.1917
20.8533
22.3346
23.6298
24.735
25.6602
26.4242
27.0487
27.5611
27.9868
28.3445
28.6539
28.9206
29.1501
29.357
29.5629
29.8047
30.1239
30.5706
31.1971
32.0354
56687.8
140608
114686
143039
126813
8968.62
4861.76
5019.36
5268.2
6105.76
7259.61
164773
155724
147421
135263
62.4834
16.4062
13.4243
10.3211
8.39371
6.97555
5.84771
4.90882
4.07982
3.34856
2.73692
2.2825
2.04643
2.08039
2.43009
3.12595
4.16618
5.53044
7.16391
8.99078
10.9284
12.898
14.833
16.6856
18.4147
19.9969
21.4205
22.6759
23.7608
24.6826
25.4548
26.0958
26.6267
27.0691
27.4368
27.743
27.9938
28.195
28.3608
28.5096
28.6776
28.9038
29.2385
29.734
30.4259
145420
143386
46952.7
145234
7059.65
4738.26
4816.1
4934.23
5107.02
5395.09
39867.1
157485
155767
149151
89809
1.62034
13.4922
9.86948
8.01477
6.78979
5.89091
5.20675
4.63024
4.09189
3.58465
3.13711
2.81519
2.67684
2.76756
3.12591
3.77954
4.72752
5.95137
7.40916
9.03965
10.7766
12.5586
14.3277
16.041
17.6574
19.152
20.5104
21.7197
22.7798
23.6937
24.4692
25.1236
25.6716
26.1294
26.509
26.8169
27.0604
27.2452
27.3831
27.4902
27.599
27.7456
27.9786
28.3501
28.9019
72744.7
46508.2
95221
35612.7
4630.62
4698.65
4765.68
4852.05
4970.82
5180.77
108527
155893
156528
151694
28416.7
15.858
9.35371
7.24868
6.18863
5.48066
4.99556
4.66138
4.37235
4.07069
3.7439
3.44941
3.25011
3.19705
3.33354
3.69455
4.30233
5.16185
6.26213
7.5701
9.03759
10.6084
12.2293
13.8486
15.4265
16.9284
18.3314
19.6186
20.7774
21.8068
22.7069
23.4806
24.1432
24.7051
25.1765
25.5678
25.8819
26.1252
26.3038
26.4262
26.5067
26.5722
26.6555
26.7998
27.0539
27.4652
28707.5
84552.3
35979.2
4911.12
4586.41
4646.78
4704.72
4772.31
4851.96
5158.37
152041
158714
159274
155616
1019.2
7.51998
6.03203
5.23153
4.76729
4.44673
4.27819
4.20593
4.14365
4.01568
3.83862
3.67679
3.5853
3.60755
3.7856
4.15163
4.72364
5.50932
6.5008
7.67274
8.98954
10.408
11.8837
13.3723
14.8338
16.2352
17.5517
18.7655
19.8686
20.8592
21.7367
22.5028
23.1661
23.7365
24.2193
24.622
24.9459
25.1948
25.3753
25.4937
25.5626
25.6016
25.6396
25.7113
25.8554
26.1169
4582.59
4487.12
4565.58
4477.09
4528.98
4587.01
4645.78
4711.48
4776.86
4523.99
162345
163962
163918
161250
19.0143
4.61527
4.16494
3.78781
3.70333
3.65485
3.71419
3.83381
3.93113
3.93573
3.88435
3.83429
3.83507
3.92381
4.13939
4.51232
5.05622
5.78217
6.68294
7.7407
8.92841
10.2114
11.5515
12.9134
14.2636
15.5706
16.8077
17.9562
19.0091
19.9581
20.8039
21.5532
22.2084
22.7799
23.2702
23.6826
24.0172
24.2755
24.4645
24.5898
24.6606
24.6902
24.703
24.7224
24.7687
24.8623
4639.17
9760.44
4449.19
4456.93
4489.38
4533.17
4590.56
4783.52
4668.11
107241
169713
170605
169958
81716.9
-10.0859
2.97804
2.53125
2.80836
2.93812
3.06344
3.27289
3.53982
3.73335
3.84173
3.89424
3.93712
4.01401
4.1605
4.41039
4.79077
5.31264
5.98884
6.81385
7.77531
8.8522
10.0168
11.2374
12.4834
13.7282
14.9435
16.102
17.187
18.1904
19.1015
19.9189
20.6476
21.2889
21.8541
22.3451
22.7622
23.1056
23.3748
23.577
23.7171
23.801
23.8378
23.8473
23.8418
23.8183
23.7168
4474.78
9571.23
4409.9
4431.13
4452.99
4483.17
4690.73
4633.15
4742.62
171696
177786
178016
176935
20144.6
7.53009
1.41667
1.89627
2.22095
2.41557
2.62772
2.9404
3.28803
3.55347
3.74193
3.87713
3.99671
4.13675
4.3316
4.61115
4.99779
5.5029
6.13665
6.89804
7.77698
8.75789
9.81843
10.9331
12.0754
13.2235
14.3527
15.4354
16.4577
17.4102
18.2833
19.073
19.7813
20.4107
20.9679
21.4541
21.8717
22.2211
22.5007
22.7179
22.8765
22.9809
23.0382
23.0647
23.0686
23.0409
22.8756
4652.14
6655.72
4393.44
4407.32
4422.01
4441.43
4661.38
4528.42
9950.36
185531
186094
185824
184761
7.25601
-1.84776
0.912573
1.54565
1.89983
2.07356
2.31651
2.70917
3.09019
3.40182
3.64548
3.84262
4.02201
4.21413
4.44878
4.75275
5.14409
5.63477
6.23225
6.93926
7.74748
8.64404
9.61373
10.6348
11.6845
12.744
13.7914
14.803
15.7651
16.6662
17.4997
18.2609
18.9484
19.5648
20.1127
20.5943
21.0119
21.3656
21.6552
21.8872
22.065
22.1938
22.2792
22.3359
22.3763
22.4118
22.4593
4605.07
4356.32
4377.27
4398.1
4397.21
4414.97
4462.2
4551.04
156590
194340
194547
193819
171162
-15.5707
0.448091
0.80005
1.44943
1.72488
1.85282
2.12025
2.53327
2.93477
3.27693
3.55736
3.79821
4.02242
4.25518
4.5217
4.84355
5.2374
5.71474
6.28192
6.94178
7.68878
8.51198
9.40203
10.3393
11.3055
12.2843
13.2552
14.1996
15.1037
15.9551
16.7486
17.4789
18.1439
18.7454
19.2817
19.7583
20.176
20.5329
20.8319
21.0776
21.2741
21.4274
21.542
21.6324
21.7141
21.8104
21.9663
4505.91
4341.88
4366.12
4379.27
4376.62
4386.58
4436.59
4271.1
202994
203260
203052
201964
51254.2
0.990531
-0.0547443
0.759149
1.41047
1.60548
1.71236
2.02337
2.42548
2.8243
3.17853
3.48131
3.75038
4.00477
4.26748
4.55729
4.89149
5.28684
5.75073
6.29125
6.91004
7.60234
8.36138
9.18153
10.0437
10.9328
11.838
12.7399
13.6215
14.4699
15.2729
16.0261
16.7244
17.365
17.9492
18.4735
18.9434
19.3588
19.7174
20.0233
20.2798
20.4927
20.6665
20.8059
20.9236
21.0317
21.1457
21.2729
5052.35
9092.2
4926.07
4367.73
4804.79
4358.18
4429.22
129942
211943
212151
211566
210441
1192.05
-0.283239
0.136301
1.0085
1.44012
1.53122
1.64647
1.97211
2.36244
2.75124
3.10392
3.4161
3.70088
3.97521
4.2577
4.56221
4.90437
5.29831
5.74888
6.26467
6.8465
7.48937
8.19203
8.94944
9.74464
10.5643
11.4018
12.2413
13.0642
13.8591
14.6154
15.3293
15.9952
16.6102
17.1747
17.6864
18.1481
18.5582
18.9165
19.2255
19.4886
19.7131
19.9003
20.0553
20.1876
20.2998
20.3927
20.4501
4558.52
9236.51
4861.29
5783.06
4412.74
4333.13
4275.73
221099
221222
221013
220074
209898
-8.53915
0.838148
0.875966
1.30554
1.51306
1.50528
1.66577
1.98044
2.34616
2.71282
3.05184
3.36134
3.65175
3.93724
4.23033
4.54174
4.88728
5.27671
5.71336
6.20499
6.75309
7.35266
8.00499
8.70487
9.4397
10.198
10.9736
11.7552
12.5231
13.267
13.9798
14.6556
15.2889
15.8778
16.4212
16.9182
17.3697
17.7727
18.1286
18.4387
18.7047
18.934
19.1271
19.2895
19.4264
19.5364
19.6259
19.6894
7002.22
8079.36
4910.61
6799.8
4229.7
4319.27
121312
230266
230428
229862
228656
59227.4
1.48883
0.994243
1.31188
1.61393
1.60677
1.54864
1.7312
2.02679
2.36387
2.70229
3.02024
3.31761
3.60415
3.89179
4.18742
4.50066
4.84517
5.22603
5.64751
6.11605
6.632
7.19341
7.8005
8.44754
9.12779
9.83196
10.5518
11.279
11.9947
12.6909
13.3623
14.0005
14.6022
15.1653
15.6874
16.168
16.6067
17.0014
17.3525
17.6614
17.9294
18.1603
18.356
18.5218
18.6596
18.7692
18.8556
18.9145
7027.63
6451.56
4094.47
4117.32
4163.57
4062.34
239722
239838
239570
238701
237625
14.9684
-0.677297
1.33069
1.79385
1.88901
1.71992
1.67914
1.84907
2.11036
2.40967
2.71265
3.00267
3.28055
3.55686
3.83916
4.13185
4.44301
4.78186
5.15063
5.55607
6.00223
6.48726
7.01369
7.57986
8.17918
8.80975
9.46441
10.1343
10.8101
11.4765
12.1286
12.7599
13.3617
13.9324
14.47
14.9716
15.435
15.8595
16.2445
16.5888
16.8935
17.1602
17.3902
17.5873
17.754
17.89
17.9978
18.0796
18.132
3979.5
3990.22
4033.9
4083.5
4141.73
192338
249333
249303
248688
247565
182465
-10.5957
2.42696
2.03831
2.1983
2.10576
1.85663
1.84119
1.98884
2.21478
2.47333
2.73527
2.99228
3.24675
3.50745
3.77901
4.06497
4.37038
4.69919
5.0542
5.44284
5.86623
6.32248
6.81578
7.3435
7.90067
8.48674
9.09523
9.71814
10.3461
10.9674
11.5783
12.1705
12.7376
13.2784
13.7903
14.2714
14.7174
15.1273
15.5014
15.8372
16.1354
16.3977
16.6247
16.8207
16.9854
17.1193
17.2254
17.3031
17.3498
3963.03
3972.12
4001.27
4054.78
53556.6
259022
259078
258670
257829
256580
26776.6
3.4126
1.98815
2.29434
2.44656
2.2417
2.01689
2.01482
2.14016
2.32788
2.54195
2.76082
2.9819
3.21086
3.45351
3.7121
3.98733
4.28274
4.59854
4.93878
5.30867
5.70893
6.13889
6.60119
7.0927
7.61241
8.15783
8.72341
9.30266
9.88593
10.4654
11.0371
11.5923
12.1265
12.6387
13.1255
13.5852
14.0133
14.4082
14.7699
15.0957
15.386
15.6422
15.8652
16.0578
16.2189
16.3502
16.4535
16.5285
16.5716
3940.39
3951.89
3977.49
9374.32
269036
269008
268670
268049
267017
263166
-7.1423
1.55452
2.16811
2.54886
2.58721
2.32358
2.17085
2.18435
2.28771
2.43754
2.60484
2.78029
2.9664
3.16997
3.39284
3.63605
3.89699
4.17794
4.47922
4.80452
5.15509
5.53179
5.93774
6.37137
6.82926
7.3141
7.82252
8.34844
8.88675
9.42845
9.96912
10.5036
11.0235
11.5266
12.0108
12.4737
12.912
13.3213
13.7004
14.0484
14.3628
14.6443
14.893
15.1116
15.2997
15.4564
15.5846
15.6845
15.7573
15.798
3914.39
3937.25
9058.49
279242
279088
278789
278308
277499
276310
42877.1
5.65972
2.31393
2.54422
2.76793
2.66093
2.41661
2.32405
2.34744
2.42464
2.53279
2.65383
2.78901
2.94386
3.12206
3.32426
3.54903
3.79315
4.0569
4.3424
4.6517
4.98338
5.338
5.72092
6.12698
6.55482
7.00749
7.48029
7.96941
8.47005
8.97385
9.47781
9.97634
10.4628
10.9361
11.3931
11.8325
12.2493
12.6391
13.0024
13.3364
13.6387
13.9099
14.1503
14.363
14.546
14.6986
14.8238
14.9205
14.9902
15.0294
65861.6
53369.4
289902
289522
289178
288806
288159
287077
278771
-2.73756
4.52888
3.43726
3.1815
3.03627
2.75643
2.5495
2.49016
2.49996
2.54249
2.60435
2.68157
2.78136
2.9093
3.06496
3.24613
3.4501
3.67593
3.92236
4.19018
4.48175
4.79475
5.1294
5.48894
5.86887
6.26982
6.69224
7.13127
7.58602
8.05091
8.51987
8.98997
9.45382
9.90899
10.3534
10.784
11.1995
11.5937
11.9648
12.3124
12.6325
12.9222
13.1822
13.4142
13.62
13.7967
13.9454
14.0675
14.1616
14.2278
14.2657
425050
425228
425194
425136
425052
424938
424784
424581
424316
423969
423513
422912
422113
421041
419580
417545
414615
410168
402757
389050
424685
424848
424809
424745
424653
424526
424357
424136
423846
423469
422975
422323
421457
420290
418691
416444
413167
408112
399743
384768
424347
424494
424452
424383
424284
424148
423967
423732
423426
423029
422512
421834
420937
419738
418109
415854
412656
407981
400954
390087
424039
424170
424126
424053
423948
423805
423617
423373
423058
422652
422128
421446
420555
419380
417815
415705
412829
408858
403319
395633
423762
423877
423831
423755
423647
423501
423309
423061
422744
422338
421819
421153
420295
419184
417736
415840
413350
410072
405774
400271
423518
423616
423569
423492
423383
423235
423043
422795
422481
422083
421580
420942
420134
419105
417796
416127
414006
411323
407968
403874
423306
423388
423341
423264
423155
423008
422818
422574
422268
421883
421401
420799
420046
419107
417934
416476
414673
412464
409793
406637
423127
423193
423146
423071
422963
422819
422633
422396
422099
421731
421274
420710
420014
419159
418111
416834
415291
413445
411271
408759
422979
423030
422985
422912
422807
422667
422486
422258
421974
421623
421191
420664
420022
419243
418301
417173
415834
414266
412455
410398
422862
422900
422857
422787
422686
422551
422377
422158
421887
421554
421148
420656
420062
419347
418492
417480
416298
414939
413400
411674
422772
422799
422761
422696
422600
422470
422304
422094
421836
421520
421138
420679
420128
419469
418682
417755
416686
415488
414164
412701
422699
422727
422698
422638
422547
422423
422264
422064
421818
421519
421160
420732
420225
419617
418884
418017
417037
415978
414853
413635
422603
422687
422669
422613
422527
422410
422259
422068
421833
421549
421211
420814
420358
419810
418803
412667
395291
364849
320267
245826
-0.521634
111473
110850
106062
98580.2
89123.8
78149.6
65932
52939.4
39528.4
26113.1
13223.5
191.658
-3.40444
-2.34439
-2.47093
-2.16167
-0.805541
2.92457
2.30509
-0.170929
0.147639
0.105155
0.106782
0.122144
0.140876
0.156887
0.166455
0.168791
0.158548
0.12529
0.106731
0.212444
-0.282864
-0.456345
-0.469275
-0.336574
-0.074358
0.241128
0.532545
-0.0113505
0.107203
0.0920096
0.091201
0.0968084
0.102732
0.10551
0.104326
0.100505
0.0952685
0.0918319
0.105269
0.126622
0.109218
0.0888073
0.0873619
0.10985
0.151657
0.205625
0.249197
0.0164579
0.0490252
0.0574203
0.0609226
0.0657743
0.0704223
0.0732778
0.0741254
0.0746947
0.0766622
0.0818261
0.0944619
0.116428
0.135675
0.144806
0.149864
0.155248
0.165235
0.18364
0.205983
0.0101637
0.0239123
0.0308025
0.0350966
0.0395436
0.0437332
0.047107
0.0496446
0.0529094
0.0585542
0.0667183
0.0777484
0.0916868
0.105526
0.116096
0.123942
0.130992
0.139766
0.151797
0.165878
-0.00255249
0.00707087
0.0105796
0.0136187
0.0170757
0.0207494
0.0238803
0.0265888
0.0304288
0.0367309
0.0450874
0.054483
0.0643422
0.0736496
0.0818356
0.0893405
0.0967458
0.104804
0.113524
0.122195
-0.016957
-0.00824924
-0.00651005
-0.00532386
-0.00344351
-0.000827841
0.00171368
0.00418238
0.00759385
0.0129456
0.0199392
0.0273659
0.0344015
0.040253
0.0452049
0.0504778
0.0562123
0.0622951
0.0682654
0.0730415
-0.0325182
-0.022893
-0.0221293
-0.0226488
-0.0225239
-0.0215665
-0.0200999
-0.0181481
-0.0154267
-0.0115498
-0.00659793
-0.00130924
0.00294796
0.00545361
0.00686465
0.00851713
0.0112332
0.014365
0.0169576
0.0181089
-0.0445963
-0.036247
-0.036496
-0.0384018
-0.0399846
-0.0407799
-0.0407111
-0.0399176
-0.0384895
-0.0363769
-0.033636
-0.0309436
-0.0296959
-0.0302029
-0.0321054
-0.0344676
-0.0357182
-0.0363915
-0.0380552
-0.0413429
-0.0444959
-0.0455529
-0.0490842
-0.0527055
-0.0557611
-0.0581951
-0.0597295
-0.0605051
-0.0610129
-0.0611347
-0.06091
-0.0615389
-0.0634379
-0.066495
-0.0713062
-0.0773871
-0.0831874
-0.0885266
-0.095045
-0.103301
-0.0250066
-0.0513418
-0.0611147
-0.0669818
-0.0711832
-0.0746598
-0.0776356
-0.0802029
-0.0828626
-0.0856299
-0.0886276
-0.0926659
-0.0976958
-0.103582
-0.111039
-0.120215
-0.130247
-0.14055
-0.152047
-0.165138
336266
335418
334827
335343
338800
344456
351361
358341
364246
368169
369505
367943
363124
354036
337341
355024
339421
334968
335107
338017
343000
349297
355774
361294
364942
366131
364563
359991
352009
340325
374213
355321
344554
340812
341626
345386
350700
356289
360995
363982
364787
363246
359344
353183
345208
385964
373777
363687
357412
354952
355500
358013
361134
363790
365282
365242
363546
360233
355488
349733
393493
385482
378110
372453
368903
367306
367178
367731
368237
368179
367235
365258
362248
358347
353860
398957
393198
387625
382846
379176
376649
375042
373975
373024
371834
370161
367875
364963
361514
357702
402933
398582
394207
390158
386659
383791
381463
379492
377645
375704
373505
370949
368000
364689
361161
405855
402435
398898
395440
392223
389307
386675
384247
381904
379510
376934
374087
370984
357360
145172
408041
405257
402319
399343
396423
393617
390937
388342
385735
383006
380118
353579
120487
-11.9818
5.3806
409706
407371
404881
402308
399701
397093
394458
391751
388959
328658
51924.4
-5.01038
4.61961
1.10051
1.81752
411041
409068
406946
404668
402273
399750
383714
228380
-4.89982
3.30502
3.93396
0.69079
1.4765
1.70463
1.77245
412201
410401
407263
364675
220935
9009.6
-11.9682
6.60132
1.38663
0.152692
1.1995
1.26144
1.36454
1.46726
1.53973
137356
20687.6
-13.6804
0.44522
3.93638
1.11106
-0.71134
0.662599
0.893884
0.907135
1.00571
1.09222
1.17822
1.26079
1.32968
1.93032
0.500574
-0.720468
-0.308314
0.618488
0.633255
0.581028
0.658981
0.729079
0.79652
0.870781
0.948018
1.01998
1.0836
1.13887
0.574367
0.389008
0.330427
0.344845
0.426599
0.46713
0.516523
0.571694
0.633175
0.693977
0.752561
0.81097
0.866843
0.917471
0.962253
0.267383
0.277165
0.306995
0.335601
0.372358
0.408777
0.448257
0.489948
0.536624
0.585391
0.632148
0.67638
0.718631
0.758307
0.7937
0.224848
0.242821
0.262908
0.284969
0.311443
0.340747
0.370979
0.403053
0.438445
0.475501
0.511342
0.543975
0.574231
0.602976
0.629161
0.18017
0.195038
0.210551
0.227273
0.245924
0.26617
0.287835
0.311759
0.337779
0.364723
0.390613
0.413284
0.433001
0.45087
0.467201
0.130829
0.140451
0.150839
0.162004
0.17418
0.187066
0.201094
0.216934
0.234246
0.251993
0.26834
0.28206
0.292821
0.300953
0.307456
0.0767095
0.0803014
0.0848427
0.0906811
0.097042
0.103699
0.110658
0.11823
0.126743
0.135076
0.14196
0.147502
0.150652
0.150771
0.149083
0.017152
0.0150586
0.0138346
0.0139023
0.014291
0.0145547
0.0143806
0.0139877
0.013692
0.0127383
0.0109005
0.00863996
0.00483853
-0.00171686
-0.0104735
-0.0466294
-0.0535861
-0.0605838
-0.0671465
-0.0735896
-0.0804902
-0.0883128
-0.0964428
-0.104591
-0.113468
-0.122966
-0.133022
-0.144278
-0.157707
-0.173733
-0.112781
-0.124161
-0.13685
-0.150418
-0.164485
-0.179225
-0.194855
-0.210744
-0.226312
-0.242335
-0.259253
-0.277101
-0.296316
-0.317486
-0.340711
-0.179519
-0.196272
-0.21481
-0.235054
-0.256414
-0.278739
-0.30194
-0.325552
-0.349336
-0.373594
-0.398812
-0.424837
-0.451924
-0.480623
-0.510205
304235
303061
301968
300543
299707
298894
297808
296674
50748.1
3.84066
5.3877
4.47603
3.76764
3.27001
2.90624
2.71359
2.63552
2.60745
2.61066
2.63444
2.68213
2.75971
2.86836
3.00551
3.16783
3.35333
3.56147
3.79141
4.04217
4.3157
4.60998
4.92606
5.26334
5.61874
5.99439
6.3887
6.79703
7.21929
7.65087
8.0873
8.52498
8.95561
9.38003
9.79623
10.1999
10.5906
10.9621
11.3142
11.6446
11.949
12.2253
12.4733
12.697
12.8949
13.0644
13.2081
13.3257
13.4171
13.4808
13.5165
325758
316192
313319
311232
309580
308058
306647
42494.9
3.4944
3.99182
4.09337
4.01897
3.62808
3.24024
2.94412
2.75698
2.65635
2.60929
2.59908
2.61651
2.66138
2.73377
2.83303
2.95859
3.10839
3.2806
3.47537
3.69139
3.92789
4.18504
4.46229
4.7612
5.07847
5.41253
5.76547
6.1338
6.51501
6.90783
7.30794
7.71282
8.11796
8.51693
8.91062
9.29823