/*--------------------------------*- C++ -*----------------------------------*\
| =========                 |                                                 |
| \\      /  F ield         | OpenFOAM: The Open Source CFD Toolbox           |
|  \\    /   O peration     | Version:  v1912                                 |
|   \\  /    A nd           | Website:  www.openfoam.com                      |
|    \\/     M anipulation  |                                                 |
\*---------------------------------------------------------------------------*/
FoamFile
{
    version     2.0;
    format      ascii;
    class       surfaceScalarField;
    location    "42";
    object      phi;
}
// * * * * * * * * * * * * * * * * * * * * * * * * * * * * * * * * * * * * * //

dimensions      [0 3 -1 0 0 0 0];
oriented        oriented;


internalField   nonuniform List<scalar> 
40282
(
0.00278969
0.00264735
1.91944
-1.92606
1.92048
0.00557461
-1.91148
1.89934
0.012137
-1.88417
1.86605
0.0181158
-1.84504
1.82116
0.0238744
-1.7945
1.7651
0.0293904
-1.73308
1.69844
0.0346382
-1.66128
1.62163
0.0396537
-1.57959
1.53513
0.0444528
-1.48843
1.43947
0.0489584
-1.38844
1.33526
0.0531818
-1.28014
1.22302
0.0571272
-1.16409
1.10327
0.0608218
-1.04089
0.976792
0.0640943
-0.911257
0.844067
0.0671905
-0.775579
0.705384
0.0701941
-0.63381
0.560344
0.0734659
-0.485107
0.407403
0.0777035
-0.326969
0.243079
0.0838892
-0.154974
0.0618378
0.0931359
-0.0042278
0.00560391
1.85455
-1.85008
1.84315
-0.0141065
0.0210351
-1.8335
1.82108
-0.0256325
0.0380515
-1.80588
1.7879
-0.0369145
0.0548865
-1.7672
1.74381
-0.0479654
0.0713575
-1.71777
1.68913
-0.0587593
0.0874032
-1.65792
1.62419
-0.0692224
0.102949
-1.58799
1.54936
-0.0792841
0.117911
-1.50836
1.46504
-0.0889028
0.132222
-1.41946
1.37167
-0.0980481
0.145832
-1.32173
1.26971
-0.10668
0.158701
-1.21565
1.1596
-0.114726
0.170772
-1.10162
1.04179
-0.122164
0.181997
-0.980131
0.916733
-0.128894
0.192291
-0.851652
0.784991
-0.134897
0.201558
-0.716788
0.647166
-0.140075
0.209698
-0.576216
0.504168
-0.144654
0.216703
-0.431193
0.357628
-0.149256
0.22282
-0.283682
0.20987
-0.155257
0.229069
-0.136064
0.069168
-0.169693
0.236589
-0.0070107
0.00836255
1.78808
-1.78391
1.77709
-0.0281793
0.0349921
-1.76762
1.75551
-0.0506774
0.0627918
-1.74077
1.72342
-0.0729277
0.0902746
-1.70348
1.68096
-0.094759
0.117281
-1.65588
1.62828
-0.116047
0.143649
-1.59818
1.56564
-0.13668
0.169226
-1.53068
1.49336
-0.156545
0.193863
-1.45373
1.41186
-0.175546
0.217422
-1.36779
1.3216
-0.193601
0.239789
-1.27336
1.22315
-0.210659
0.260877
-1.17102
1.11707
-0.226697
0.280653
-1.06134
1.00391
-0.241676
0.299107
-0.944827
0.884138
-0.255519
0.316208
-0.821892
0.75814
-0.268074
0.331825
-0.692933
0.62633
-0.279073
0.345676
-0.558399
0.489238
-0.288197
0.357358
-0.418988
0.347868
-0.295401
0.366521
-0.276184
0.204436
-0.301498
0.373246
-0.133298
0.064711
-0.308956
0.377543
-0.0096463
0.0109229
1.72406
-1.7202
1.71378
-0.0417021
0.0481227
-1.70479
1.69326
-0.0748119
0.0863422
-1.6792
1.66262
-0.107564
0.124145
-1.64354
1.62197
-0.13976
0.161324
-1.59795
1.57149
-0.171215
0.197676
-1.54262
1.51137
-0.201749
0.232994
-1.47779
1.4419
-0.231186
0.267075
-1.40375
1.36338
-0.259348
0.299711
-1.32086
1.27624
-0.286077
0.330699
-1.22958
1.18097
-0.311238
0.359855
-1.13047
1.07818
-0.334755
0.387044
-1.02419
0.968596
-0.356612
0.412208
-0.911486
0.852946
-0.376822
0.435362
-0.79305
0.731858
-0.395331
0.456522
-0.669422
0.605783
-0.411885
0.475524
-0.540982
0.475062
-0.4259
0.491819
-0.408072
0.34008
-0.436523
0.504514
-0.271224
0.201774
-0.443389
0.512839
-0.132103
0.0637354
-0.447286
0.515654
-0.0121439
0.0133509
1.66231
-1.65866
1.65257
-0.0544958
0.0605818
-1.64406
1.63313
-0.0977854
0.108716
-1.61979
1.60405
-0.140613
0.156355
-1.58592
1.56542
-0.182755
0.203256
-1.54256
1.51737
-0.223989
0.249181
-1.48986
1.46007
-0.264087
0.29388
-1.42802
1.39374
-0.302819
0.3371
-1.35726
1.31863
-0.339947
0.378577
-1.27789
1.23509
-0.375233
0.418037
-1.19027
1.14351
-0.408444
0.455209
-1.09486
1.0444
-0.439387
0.489843
-0.992223
0.938413
-0.467936
0.521745
-0.883076
0.826318
-0.494065
0.550823
-0.768246
0.708959
-0.517822
0.577109
-0.648541
0.587061
-0.539134
0.600614
-0.524566
0.461089
-0.557512
0.62099
-0.396649
0.331266
-0.571853
0.637235
-0.264976
0.197871
-0.580811
0.647916
-0.130008
0.0630124
-0.583838
0.650834
-0.0144982
0.0156263
1.60289
-1.59929
1.59357
-0.066597
0.0723137
-1.58558
1.5753
-0.119523
0.129799
-1.56275
1.54793
-0.171929
0.186748
-1.53085
1.51152
-0.223556
0.242891
-1.48994
1.46612
-0.27415
0.297961
-1.4401
1.41187
-0.323442
0.351672
-1.38146
1.34889
-0.371157
0.403726
-1.31419
1.27738
-0.417002
0.453806
-1.23851
1.19761
-0.460672
0.501573
-1.15472
1.1099
-0.501855
0.546679
-1.06319
1.01466
-0.540252
0.588779
-0.964387
0.91244
-0.575602
0.627549
-0.858913
0.803908
-0.607734
0.662739
-0.747534
0.689906
-0.636629
0.694257
-0.631136
0.571323
-0.662336
0.722148
-0.510551
0.448879
-0.684606
0.746279
-0.38634
0.32295
-0.702408
0.765798
-0.258702
0.193583
-0.713856
0.778974
-0.127429
0.0623158
-0.717525
0.782638
-0.0166917
0.0177312
1.54528
-1.54226
1.53695
-0.0779329
0.083239
-1.52952
1.51997
-0.139904
0.149453
-1.5083
1.4945
-0.201335
0.215135
-1.47858
1.46052
-0.261947
0.279999
-1.44035
1.41805
-0.321462
0.343762
-1.39363
1.3671
-0.379578
0.40611
-1.33846
1.30773
-0.435979
0.466709
-1.27492
1.24005
-0.490322
0.525191
-1.20315
1.16423
-0.542234
0.581152
-1.12333
1.08049
-0.591329
0.634167
-1.03576
0.989176
-0.637216
0.683799
-0.940804
0.890709
-0.679511
0.729606
-0.838968
0.78567
-0.717886
0.771185
-0.730915
0.674818
-0.752162
0.808259
-0.617498
0.559076
-0.782344
0.840766
-0.499661
0.439345
-0.808362
0.868678
-0.378193
0.316238
-0.829408
0.891363
-0.253475
0.189839
-0.843395
0.907031
-0.124949
0.0618355
-0.848315
0.911428
-0.0187049
0.0196453
1.4901
-1.48734
1.48249
-0.0884152
0.0932625
-1.4757
1.46696
-0.158776
0.167514
-1.45627
1.4436
-0.228624
0.241288
-1.42896
1.41234
-0.297675
0.314302
-1.39371
1.37309
-0.365641
0.38627
-1.35044
1.32577
-0.432201
0.456869
-1.29908
1.27035
-0.497005
0.525733
-1.23959
1.2068
-0.55966
0.59245
-1.17199
1.13517
-0.619731
0.65655
-1.09636
1.05558
-0.676751
0.717527
-1.01287
0.968259
-0.730235
0.774846
-0.921794
0.87353
-0.779683
0.827947
-0.823529
0.77187
-0.824614
0.876274
-0.718642
0.663952
-0.864655
0.919345
-0.607921
0.550683
-0.899656
0.956894
-0.492372
0.433117
-0.92959
0.988845
-0.373029
0.312196
-0.953876
1.01471
-0.250657
0.188367
-0.970442
1.03273
-0.124619
0.0638316
-0.977045
1.03783
-0.0205156
0.0213448
1.43678
-1.43414
1.4298
-0.0979439
0.102276
-1.42373
1.4159
-0.175963
0.183792
-1.4063
1.39491
-0.253554
0.264945
-1.38171
1.36668
-0.330444
0.345477
-1.34979
1.33102
-0.406357
0.425123
-1.31035
1.28776
-0.480964
0.50356
-1.26321
1.23669
-0.553893
0.58041
-1.20819
1.17768
-0.62471
0.655222
-1.14515
1.1106
-0.692915
0.727463
-1.07403
1.03544
-0.757957
0.796543
-0.994857
0.952288
-0.819249
0.861818
-0.907769
0.861337
-0.876168
0.922599
-0.813045
0.762954
-0.928076
0.978166
-0.711144
0.657711
-0.974387
1.02782
-0.60277
0.546459
-1.01472
1.07103
-0.488926
0.430326
-1.04894
1.10754
-0.370808
0.310507
-1.07661
1.13691
-0.24951
0.187814
-1.09576
1.15745
-0.124332
0.065462
-1.10428
1.16316
-0.0220999
0.0228055
1.38551
-1.38321
1.37945
-0.106404
0.110163
-1.37417
1.36735
-0.191264
0.198081
-1.35897
1.349
-0.275844
0.285818
-1.3374
1.32415
-0.359906
0.373162
-1.30919
1.29251
-0.443206
0.459895
-1.27404
1.25375
-0.52543
0.545719
-1.2316
1.20754
-0.6062
0.630259
-1.18153
1.15354
-0.685048
0.713039
-1.12353
1.09147
-0.761414
0.793472
-1.05734
1.02113
-0.834662
0.87088
-0.982811
0.942398
-0.904094
0.944507
-0.899897
0.855328
-0.968947
1.01352
-0.808725
0.760134
-1.02841
1.077
-0.70962
0.657266
-1.08168
1.13403
-0.603183
0.547507
-1.12807
1.18374
-0.490399
0.432043
-1.16723
1.22558
-0.372631
0.312359
-1.19872
1.25899
-0.251392
0.189812
-1.22072
1.2823
-0.125946
0.0688695
-1.23137
1.28844
-0.0234329
0.0240026
1.33593
-1.334
1.33087
-0.113676
0.1168
-1.32648
1.32078
-0.204468
0.210164
-1.31375
1.30535
-0.295194
0.303595
-1.29554
1.28426
-0.385681
0.396957
-1.27147
1.2571
-0.475741
0.490107
-1.2411
1.2234
-0.565101
0.5828
-1.20394
1.18265
-0.653397
0.674689
-1.15946
1.13431
-0.740146
0.765297
-1.10713
1.07788
-0.824742
0.853997
-1.04649
1.01292
-0.906462
0.940033
-0.977125
0.939086
-0.984493
1.02253
-0.898779
0.856199
-1.05792
1.1005
-0.811352
0.764264
-1.12573
1.17282
-0.714978
0.663561
-1.18687
1.23828
-0.610111
0.554759
-1.2403
1.29565
-0.497677
0.439077
-1.28533
1.34393
-0.379202
0.318332
-1.32139
1.38226
-0.256744
0.194671
-1.34674
1.40882
-0.129551
0.0743489
-1.35983
1.41503
-0.0244911
0.0249142
1.28821
-1.2865
1.28407
-0.119639
0.122074
-1.28063
1.27616
-0.215356
0.21983
-1.2706
1.26393
-0.311291
0.317966
-1.25607
1.24698
-0.407357
0.416451
-1.23658
1.22479
-0.503459
0.515245
-1.21154
1.19674
-0.599391
0.61419
-1.1803
1.16213
-0.694835
0.713004
-1.14214
1.12022
-0.789322
0.81124
-1.09629
1.07024
-0.882219
0.908264
-1.042
1.01147
-0.972737
1.00327
-0.978576
0.943256
-1.05995
1.09527
-0.905447
0.865106
-1.14277
1.18311
-0.822202
0.776725
-1.21998
1.26546
-0.728687
0.678125
-1.29022
1.34078
-0.625115
0.569776
-1.35205
1.40738
-0.512282
0.452866
-1.40427
1.46368
-0.391829
0.32955
-1.446
1.50828
-0.266457
0.203027
-1.47552
1.53895
-0.135413
0.0821865
-1.49178
1.545
-0.0252546
0.0255234
1.24236
-1.24108
1.23938
-0.124185
0.125885
-1.23697
1.2338
-0.223731
0.226897
-1.22984
1.22502
-0.323836
0.328655
-1.21928
1.21256
-0.42453
0.431255
-1.20476
1.19581
-0.52584
0.534796
-1.18559
1.17401
-0.627666
0.639246
-1.16096
1.1463
-0.729774
0.744429
-1.12992
1.1117
-0.831749
0.849977
-1.09149
1.06916
-0.932972
0.955298
-1.04459
1.01763
-1.03262
1.05958
-0.988169
0.956079
-1.12968
1.16177
-0.921249
0.883578
-1.22292
1.26059
-0.842982
0.799393
-1.31088
1.35446
-0.752772
0.703109
-1.39185
1.44152
-0.650434
0.594838
-1.46392
1.51951
-0.536481
0.475616
-1.52521
1.58608
-0.412603
0.347955
-1.5743
1.63895
-0.282315
0.216567
-1.60928
1.67503
-0.144982
0.0938237
-1.62969
1.68085
-0.0257098
0.0258204
1.1978
-1.19717
1.19624
-0.12723
0.128166
-1.19489
1.19309
-0.229431
0.231229
-1.19079
1.18793
-0.332576
0.335437
-1.18444
1.18025
-0.436835
0.441033
-1.17525
1.16935
-0.542387
0.548284
-1.16244
1.1544
-0.649279
0.657322
-1.14509
1.13437
-0.757407
0.768129
-1.12208
1.10807
-0.866467
0.880478
-1.09217
1.07419
-0.975912
0.993888
-1.05396
1.0313
-1.08495
1.10762
-1.00601
0.977905
-1.19254
1.22064
-0.946806
0.912533
-1.29735
1.33162
-0.87492
0.833815
-1.3977
1.43881
-0.789092
0.740656
-1.49155
1.53999
-0.688459
0.632521
-1.57639
1.63232
-0.572958
0.510015
-1.64947
1.71242
-0.444114
0.375942
-1.70848
1.77665
-0.306468
0.237326
-1.75116
1.82031
-0.159929
0.112506
-1.77779
1.82521
-0.0258514
0.025805
1.1551
-1.15494
1.15477
-0.128724
0.128887
-1.15451
1.1541
-0.232353
0.23276
-1.1535
1.15265
-0.33733
0.33818
-1.15148
1.14991
-0.443979
0.44555
-1.14784
1.14518
-0.552662
0.555327
-1.14179
1.13756
-0.663605
0.66784
-1.13233
1.12594
-0.776891
0.783282
-1.11821
1.10897
-0.89239
0.901634
-1.098
1.08509
-1.00971
1.02262
-1.07001
1.05252
-1.12819
1.14568
-1.03236
1.00928
-1.24686
1.26995
-0.982982
0.953208
-1.36441
1.39418
-0.919671
0.882099
-1.47905
1.51662
-0.84023
0.793825
-1.58844
1.63484
-0.742691
0.686701
-1.68945
1.74544
-0.625846
0.560284
-1.77824
1.8438
-0.490427
0.417106
-1.85103
1.92435
-0.341674
0.266714
-1.90467
1.97963
-0.179567
0.136306
-1.94096
1.98422
-0.0256844
0.0254875
1.11388
-1.11399
1.11458
-0.128664
0.12807
-1.11537
1.11634
-0.232472
0.23151
-1.11742
1.11857
-0.338023
0.336875
-1.11972
1.1208
-0.445799
0.444721
-1.12171
1.12237
-0.556357
0.555704
-1.12264
1.1224
-0.670136
0.670376
-1.1215
1.11977
-0.787452
0.789179
-1.11703
1.11308
-0.908419
0.912375
-1.10768
1.10059
-1.0329
1.03998
-1.09155
1.08026
-1.16048
1.17177
-1.06641
1.04964
-1.29043
1.3072
-1.0296
1.0059
-1.42165
1.44536
-0.9781
0.945778
-1.55249
1.58481
-0.908475
0.865734
-1.68053
1.72327
-0.817113
0.762219
-1.80217
1.85707
-0.70077
0.632684
-1.91235
1.98044
-0.55822
0.478278
-2.00518
2.08513
-0.394675
0.311213
-2.07554
2.159
-0.211614
0.172329
-2.12634
2.16563
-0.0252243
0.0248887
1.07414
-1.07485
1.07616
-0.127096
0.12579
-1.07796
1.08022
-0.229857
0.227595
-1.08291
1.08598
-0.334713
0.331645
-1.08937
1.09303
-0.442294
0.438634
-1.09688
1.10082
-0.553352
0.549406
-1.10476
1.10858
-0.668553
0.664736
-1.11213
1.11527
-0.788477
0.785341
-1.11781
1.11955
-0.913546
0.911807
-1.12026
1.11969
-1.04396
1.04453
-1.11755
1.11352
-1.1797
1.18373
-1.10724
1.09831
-1.32048
1.32941
-1.08628
1.07066
-1.46568
1.4813
-1.05087
1.02631
-1.61416
1.63872
-0.996289
0.960044
-1.76396
1.80021
-0.916771
0.865632
-1.91158
1.96272
-0.805826
0.736703
-2.05105
2.12017
-0.657982
0.570247
-2.17388
2.26161
-0.475494
0.378935
-2.27113
2.36769
-0.262787
0.226519
-2.34642
2.38269
-0.0244968
0.0240388
1.03567
-1.03678
1.03873
-0.124121
0.12217
-1.04144
1.04489
-0.22467
0.221223
-1.04904
1.05388
-0.327597
0.322762
-1.05936
1.06543
-0.433652
0.42758
-1.07204
1.07912
-0.543763
0.536681
-1.08659
1.09436
-0.658812
0.651043
-1.10231
1.11032
-0.779653
0.771645
-1.11823
1.12587
-0.907043
0.899409
-1.13302
1.13946
-1.04159
1.03515
-1.14491
1.14906
-1.18377
1.17962
-1.15156
1.15198
-1.33393
1.3335
-1.14986
1.14464
-1.49222
1.49745
-1.13566
1.12216
-1.65856
1.67205
-1.10327
1.07792
-1.83224
1.85759
-1.04489
1.00275
-2.01111
2.05325
-0.949905
0.884664
-2.18981
2.25505
-0.805463
0.71151
-2.35807
2.45202
-0.603673
0.487515
-2.5009
2.61706
-0.3475
0.305084
-2.62104
2.66346
-0.0235358
0.022975
0.998668
-1.0003
1.00281
-0.119887
0.117377
-1.00631
1.01079
-0.217167
0.212688
-1.01624
1.02263
-0.317015
0.310624
-1.02995
1.03817
-0.420262
0.412036
-1.04727
1.0572
-0.527975
0.518044
-1.06792
1.07936
-0.641214
0.629774
-1.09145
1.10411
-0.76108
0.748426
-1.11721
1.13065
-0.888649
0.875216
-1.14425
1.15784
-1.02495
1.01135
-1.17121
1.1841
-1.17098
1.1581
-1.1962
1.20717
-1.32781
1.31684
-1.21657
1.22391
-1.49662
1.48929
-1.22855
1.22974
-1.67877
1.67758
-1.22655
1.2178
-1.87574
1.88449
-1.20201
1.1773
-2.08857
2.11328
-1.1413
1.09105
-2.31592
2.36617
-1.02302
0.933412
-2.55054
2.64015
-0.8191
0.681413
-2.77424
2.91193
-0.512111
0.441845
-2.98561
3.05588
-0.0223813
0.0217387
0.963129
-0.964861
0.967828
-0.114576
0.111609
-0.971979
0.977309
-0.207669
0.202339
-0.983819
0.991507
-0.30342
0.295732
-1.00037
1.01042
-0.402689
0.392646
-1.02163
1.03401
-0.506629
0.494253
-1.04753
1.06219
-0.61642
0.601765
-1.07794
1.09477
-0.733343
0.716521
-1.1126
1.13139
-0.858734
0.839948
-1.15104
1.17147
-0.993962
0.97354
-1.19253
1.21409
-1.14051
1.11895
-1.23595
1.2579
-1.30008
1.27814
-1.27965
1.30087
-1.47484
1.45361
-1.32115
1.33993
-1.66767
1.64889
-1.35655
1.37009
-1.88268
1.86914
-1.37933
1.38262
-2.12554
2.12226
-1.3776
1.36098
-2.40302
2.41963
-1.32817
1.27276
-2.72091
2.77632
-1.18644
1.05711
-3.07994
3.20928
-0.884589
0.800946
-3.49822
3.58187
0.0308792
-0.0801194
0.0492402
-0.0753851
0.118907
-0.043522
-0.159674
0.194487
-0.034813
-0.226762
0.255114
-0.0283518
-0.264945
0.249391
0.0155534
-0.218965
0.19473
0.0242351
-0.188424
0.187573
0.000850835
-0.170523
0.132302
0.0382209
-0.0721399
-0.0346307
0.106771
0.223724
-0.780082
0.556358
1.44354
-1.31484
-0.128696
1.29027
-1.37492
0.084655
1.37822
-1.25957
-0.118648
1.03549
-0.778992
-0.256503
0.562132
-0.414367
-0.147765
0.365909
-0.433806
0.0678972
0.607437
-0.853107
0.24567
1.03585
-1.37428
0.338426
1.58904
-1.51081
-0.0782309
1.59881
-1.24539
-0.35342
-0.304403
2.3191
-2.01469
-4.01765
5.5151
-1.49744
-6.85919
7.99829
-1.1391
-8.89118
9.56061
-0.669426
-10.0153
10.2793
-0.263933
-10.3868
10.3757
0.0110919
-10.2102
9.87279
0.337366
-9.04482
7.61442
1.43041
-6.94075
6.64131
0.299441
-6.49359
6.41217
0.0814204
-6.36193
6.32655
0.0353848
-6.2988
6.27556
0.0232358
-6.25606
6.2418
0.0142664
-6.23541
6.23504
0.000374715
-6.2342
6.22892
0.00528015
-6.21737
6.20065
0.0167204
-6.18347
6.16818
0.0152915
-6.15945
6.16543
-0.00597185
-6.185
6.20404
-0.0190429
-6.21391
6.21193
0.00198157
-6.18771
6.15074
0.0369744
-6.12127
6.1051
0.0161689
-6.10948
6.1395
-0.0300183
-6.17452
6.18351
-0.00898472
-6.16566
6.14721
0.0184535
-6.15198
6.17994
-0.0279544
-6.20737
6.19996
0.00740374
-6.15362
6.12127
0.0323542
-6.11715
6.13396
-0.0168082
-6.16465
6.20946
-0.0448148
-6.26455
6.29569
-0.031146
-6.30279
6.28312
0.0196654
-6.20145
6.11637
0.0850794
-6.10114
6.14245
-0.0413175
-6.22665
6.34936
-0.12271
-6.50148
6.55953
-0.0580425
-6.52871
6.48668
0.0420305
-6.4881
6.51686
-0.0287637
-6.54917
6.54899
0.000180065
-6.54561
6.51925
0.0263594
0.119719
-0.143026
0.0233069
-0.0654873
0.0876267
0.0694437
-0.091583
-0.110093
0.133986
0.0624103
-0.0863029
-0.158121
0.182537
0.0553974
-0.079814
-0.200155
0.201548
-0.0212052
0.0198115
-0.1828
0.152896
-0.0529468
0.0828507
-0.123356
0.0989521
-0.0182609
0.0426645
-0.0718219
0.0340018
-0.0766949
0.114515
0.0151436
-0.0778103
-0.173042
0.235709
0.125839
-0.0551733
-0.590345
0.519679
0.22
-0.60222
-0.342744
0.724964
0.81155
-0.827915
-0.0587071
0.075072
0.789404
-0.765176
0.2268
-0.251029
0.763807
-0.730369
0.359694
-0.393133
0.680465
-0.632082
0.237074
-0.285456
0.606978
-0.625133
-0.087454
0.105609
0.636455
-1.85601
-0.384564
1.60412
3.83706
-3.97684
-1.21931
1.35909
0.537572
3.50783
0.335731
-4.38113
-3.96691
3.94378
3.69995
-3.67681
-4.28361
4.61372
2.51021
-2.84031
-4.94134
5.22145
1.83756
-2.11767
-5.44435
5.63852
1.45755
-1.65172
-5.8281
6.01041
0.938388
-1.1207
-6.18181
6.33638
0.45822
-0.612787
-6.46481
6.55393
0.0613337
-0.150453
-6.59518
6.64542
-0.588774
0.53853
-6.80254
6.95445
-1.10543
0.953522
-6.95764
6.8822
-0.456923
0.532361
-6.79817
6.7281
-0.162909
0.232981
-6.67291
6.62989
-0.0770782
0.120099
-6.59597
6.56878
-0.0485693
0.0757575
-6.54662
6.52785
-0.0296714
0.0484396
-6.51119
6.49626
-0.0128134
0.0277463
-6.48305
6.47168
-0.015062
0.0264327
-6.46198
6.45346
-0.0260829
0.0346062
-6.44545
6.43787
-0.0212676
0.0288485
-6.43034
6.4228
0.00159044
0.00594282
-6.41361
6.40457
0.0144359
-0.00539217
-6.39654
6.38948
-0.0111053
0.0181606
-6.38558
6.38303
-0.0415799
0.0441335
-6.37861
6.37204
-0.0192426
0.0258047
-6.36585
6.3562
0.0207721
-0.0111247
-6.34735
6.34579
0.00853231
-0.00696986
-6.35145
6.35891
-0.0123212
0.00485746
-6.361
6.35771
0.0292145
-0.0259233
-6.35433
6.35768
-0.00647659
0.00313278
-6.36993
6.38101
-0.0297963
0.018726
-6.39225
6.40412
0.0371676
-0.0490371
-6.41524
6.42441
0.0566336
-0.0658012
-6.42864
6.42762
0.0315593
-0.0305353
-6.42603
6.43169
-0.0326057
0.0269412
-6.45455
6.47949
-0.0706043
0.0456582
-6.50241
6.5226
0.0800459
-0.100235
-6.53716
6.5458
0.140323
-0.148961
-6.55086
6.56674
0.0759534
-0.0918304
-6.59724
6.62637
0.00235289
-0.0314869
-6.64225
6.64851
0.0246686
-0.0309256
-6.646
6.64456
-0.00567872
0.00712083
-6.63582
6.62355
-0.0410638
0.0533279
0.149257
-0.126666
-0.0225914
-0.0273184
0.0522664
0.114006
-0.138954
-0.0761231
0.0965886
0.106501
-0.126966
-0.112151
0.128771
0.100784
-0.117404
-0.146085
0.158408
-0.0118917
-0.000430764
-0.151337
0.124847
-0.112269
0.138759
-0.0855405
0.0462211
-0.0724796
0.111799
-0.00902778
-0.0289293
-0.151268
0.189225
0.0630867
-0.103926
-0.29286
0.333699
0.234733
-0.436769
-0.546836
0.748872
0.337396
-0.245975
-0.831095
0.739675
0.312892
-0.38726
-0.185491
0.259859
0.463055
-0.538039
0.197133
-0.122149
0.595226
-0.633537
0.384772
-0.34646
0.656653
-0.669692
0.302271
-0.289232
0.685205
-0.790745
-0.167217
0.272757
1.72965
-2.91251
-3.91447
5.09733
-1.09804
3.77415
2.37225
-5.04836
-3.82432
3.951
4.38185
-4.50853
-4.0886
4.24335
3.80476
-3.95951
-4.43304
4.64418
3.07049
-3.28163
-4.87038
5.09736
2.36433
-2.59131
-5.30034
5.47719
1.8283
-2.00515
-5.63855
5.78931
1.27781
-1.42857
-5.92965
6.05613
0.74684
-0.873324
-6.16625
6.26504
0.242858
-0.34165
-6.37172
6.50313
-0.418439
0.287022
-6.65446
6.78743
-0.817375
0.684402
-6.85686
6.86516
-0.5561
0.547803
-6.83905
6.80024
-0.286872
0.325679
-6.76009
6.72329
-0.160657
0.197457
-6.69134
6.66416
-0.103326
0.130504
-6.64094
6.62061
-0.0682645
0.0885962
-6.60222
6.58536
-0.0439901
0.0608425
-6.57029
6.55729
-0.0388232
0.0518246
-6.54638
6.5371
-0.043423
0.0526996
-6.52867
6.5203
-0.0366111
0.0449883
-6.5111
6.50034
-0.0156444
0.0264052
-6.48827
6.47642
-0.00577855
0.0176328
-6.46642
6.45912
-0.0253049
0.032601
-6.4551
6.45307
-0.0462067
0.048233
-6.45065
6.44639
-0.0304831
0.0347431
-6.43995
6.43159
0.00183058
0.0065311
-6.4241
6.42146
0.00424321
-0.00159671
-6.42425
6.42879
0.000903051
-0.00543576
-6.43101
6.43084
0.0235372
-0.0233684
-6.43235
6.44009
0.00180681
-0.00954161
-6.45515
6.47086
-0.00247432
-0.0132338
-6.48319
6.49112
0.057654
-0.0655855
-6.49694
6.50193
0.0722097
-0.0772037
-6.5064
6.51521
0.0317398
-0.0405574
-6.52962
6.55139
-0.0121503
-0.00962552
-6.58389
6.61741
-0.0074615
-0.0260621
-6.63824
6.65048
0.111633
-0.123874
-6.65957
6.66734
0.155452
-0.163221
-6.67775
6.69165
0.107044
-0.120937
-6.71003
6.72835
0.054038
-0.0723599
-6.74147
6.75042
0.0391263
-0.0480695
-6.75118
6.75183
-0.00737492
0.00672324
-6.74643
6.73883
-0.0631794
0.0707781
0.0983532
-0.0903963
-0.0079569
0.0212947
0.00317983
0.166987
-0.191462
-0.0314998
0.0591257
0.151071
-0.178697
-0.0826284
0.0931548
0.130339
-0.140865
-0.0983551
0.104653
0.0117957
-0.0180934
-0.109795
0.0969545
-0.159418
0.172258
-0.0621057
0.0148219
-0.1563
0.203584
0.0333244
-0.0788249
-0.229246
0.274747
0.124192
-0.165317
-0.37172
0.412845
0.20961
-0.24333
-0.957475
0.991195
0.130349
-0.127758
-0.631386
0.628795
0.160498
-0.199201
-0.311768
0.35047
0.2513
-0.319312
0.0459866
0.0220261
0.391584
-0.461367
0.288104
-0.21832
0.52622
-0.59072
0.246706
-0.182206
0.684462
-0.629862
-0.311093
0.256493
1.97754
2.47307
-2.61672
-1.83389
-3.5839
3.66781
5.02434
-5.10826
-3.78392
3.92595
4.63054
-4.77257
-4.08798
4.26848
4.12646
-4.30697
-4.46516
4.67275
3.48656
-3.69415
-4.88372
5.09164
2.80436
-3.01228
-5.28431
5.45827
2.17958
-2.35354
-5.61476
5.75838
1.57405
-1.71768
-5.88954
6.00815
0.994227
-1.11283
-6.11418
6.21402
0.441105
-0.540952
-6.31953
6.43897
-0.160763
0.0413278
-6.56744
6.68415
-0.559531
0.442831
-6.76593
6.80631
-0.519794
0.479415
-6.8143
6.80212
-0.35
0.362186
-6.78025
6.7553
-0.228476
0.253433
-6.73094
6.70859
-0.155602
0.177944
-6.68864
6.67069
-0.108055
0.126007
-6.65428
6.63908
-0.0771237
0.0923207
-6.62525
6.61303
-0.0646253
0.0768474
-6.60248
6.59323
-0.0620395
0.0712882
-6.5846
6.57577
-0.0536811
0.0625135
-6.56608
6.55512
-0.0373614
0.048322
-6.54325
6.53167
-0.0294092
0.040991
-6.52181
6.51467
-0.0398187
0.0469687
-6.5105
6.50831
-0.0503654
0.0525513
-6.50645
6.50357
-0.0383174
0.0412016
-6.49913
6.49356
-0.0134641
0.0190341
-6.48867
6.48669
-0.000791614
0.00277154
-6.48834
6.4923
0.00935759
-0.0133129
-6.49681
6.50178
0.0258433
-0.0308125
-6.50875
6.51934
0.0188878
-0.0294702
-6.53319
6.54739
0.0280117
-0.0422161
-6.55948
6.56885
0.0736809
-0.083047
-6.57704
6.58659
0.0840818
-0.0936354
-6.59882
6.61524
0.0540192
-0.0704369
-6.63634
6.66274
0.0341057
-0.0605123
-6.69365
6.72288
0.0566557
-0.0858887
-6.74454
6.76001
0.1376
-0.153067
-6.77308
6.7851
0.172986
-0.185012
-6.79697
6.80868
0.133496
-0.145212
-6.82102
6.83324
0.0871658
-0.0993795
-6.84396
6.85334
0.0572365
-0.066614
-6.85803
6.86057
-0.00516732
0.00262588
-6.85801
6.85425
-0.0762498
0.0800076
0.0816536
-0.0658188
-0.0158347
0.021725
-0.0127961
0.205868
-0.214797
-0.00651152
0.0291311
0.203465
-0.226085
-0.0504402
0.0657449
0.15121
-0.166515
-0.0724542
0.0741593
0.0198546
-0.0215597
-0.0784928
0.080577
-0.17695
0.174866
-0.0659422
0.0265783
-0.24787
0.287234
0.0261425
-0.0795697
-0.32516
0.378587
0.129269
-0.162544
-0.450253
0.483528
0.145104
-0.0478384
-0.904645
0.80738
-0.0117006
-0.00284422
-0.669136
0.683681
0.0233421
-0.0423384
-0.379146
0.398142
0.0672967
-0.104965
-0.0758035
0.113472
0.157346
-0.221447
0.147682
-0.0835808
0.294528
-0.367544
0.114933
-0.0419177
0.400987
-1.63358
-0.730665
1.96326
-2.82702
3.31227
5.20889
-5.69414
-3.44581
3.5895
5.24868
-5.39237
-3.76175
3.94341
4.9351
-5.11676
-4.13566
4.33486
4.49589
-4.69509
-4.541
4.74815
3.89979
-4.10694
-4.95299
5.14859
3.21203
-3.40764
-5.33035
5.49403
2.52156
-2.68523
-5.64135
5.77427
1.85482
-1.98774
-5.89483
6.0044
1.22624
-1.33581
-6.10451
6.19971
0.63804
-0.733246
-6.29625
6.39859
0.0682993
-0.170636
-6.50417
6.60249
-0.336633
0.238313
-6.68093
6.73306
-0.43214
0.38001
-6.76019
6.76802
-0.363637
0.355811
-6.76368
6.75309
-0.271222
0.281814
-6.74019
6.72694
-0.196017
0.20927
-6.71434
6.70258
-0.141125
0.15288
-6.6916
6.68107
-0.105378
0.115905
-6.671
6.66169
-0.0877439
0.0970576
-6.65327
6.64557
-0.0798597
0.0875567
-6.63801
6.63004
-0.0709727
0.0789355
-6.62119
6.61126
-0.0587756
0.0687015
-6.60056
6.59003
-0.051977
0.0625037
-6.58093
6.57433
-0.0538007
0.0603986
-6.57052
6.56883
-0.0545351
0.0562292
-6.56796
6.56675
-0.0432589
0.0444646
-6.56461
6.56171
-0.0231876
0.0260852
-6.55911
6.55825
-0.00418893
0.0050435
-6.56017
6.56494
0.0175688
-0.0223437
-6.57199
6.58095
0.0378735
-0.0468343
-6.59171
6.604
0.0408547
-0.05314
-6.61724
6.63061
0.0557821
-0.0691518
-6.64338
6.65565
0.0937898
-0.106059
-6.66838
6.6828
0.105644
-0.120073
-6.69952
6.71933
0.0886463
-0.108454
-6.74282
6.77044
0.0875172
-0.115135
-6.80054
6.82819
0.113854
-0.1415
-6.84974
6.86696
0.169525
-0.18674
-6.88319
6.89861
0.198812
-0.21423
-6.91186
6.92214
0.156021
-0.166304
-6.93085
6.9389
0.109208
-0.117258
-6.94727
6.95624
0.0758531
-0.0848233
-6.96337
6.96766
0.000800541
-0.00508567
-6.96714
6.96616
-0.0822788
0.0832575
0.0368293
0.0157416
-0.0525709
0.0459792
-0.0389106
0.22103
-0.228099
0.0257752
-0.00268391
0.248253
-0.271344
-0.0199276
0.0384828
0.184527
-0.203082
-0.052909
0.062473
0.0269297
-0.0364938
-0.0677697
0.0673993
-0.173253
0.173624
-0.0597562
0.0375901
-0.316562
0.338728
0.00476362
-0.0537201
-0.431009
0.479965
0.0972684
-0.121564
-0.510843
0.535139
0.0998897
-0.0381733
-0.732134
0.670418
-0.0248113
0.06345
-0.667568
0.628929
-0.0839062
0.097361
-0.402805
0.38935
-0.108177
0.107931
-0.132693
0.132939
-0.09443
0.0686305
0.0357969
-0.0099974
-0.0342728
-0.0336411
-0.0443232
0.112237
0.527295
1.51017
-1.17383
-0.863633
-3.09276
3.32414
5.53034
-5.76172
-3.47156
3.64136
5.55138
-5.72118
-3.82905
4.02789
5.30843
-5.50727
-4.23329
4.44078
4.89915
-5.10663
-4.64896
4.85191
4.31262
-4.51557
-5.04685
5.22855
3.59564
-3.77734
-5.3933
5.53983
2.8403
-2.98683
-5.66916
5.78482
2.11182
-2.22747
-5.88906
5.98559
1.43816
-1.53469
-6.07665
6.16511
0.824137
-0.91259
-6.2542
6.34568
0.265464
-0.356942
-6.43802
6.52616
-0.147546
0.0594073
-6.60221
6.66211
-0.32475
0.264848
-6.70413
6.72947
-0.339399
0.314052
-6.74239
6.74781
-0.284546
0.27913
-6.74897
6.74764
-0.216666
0.217996
-6.74498
6.74169
-0.160403
0.163691
-6.7381
6.73401
-0.123204
0.127292
-6.72912
6.72374
-0.104392
0.109775
-6.7184
6.71309
-0.0940314
0.0993423
-6.70741
6.70094
-0.0861047
0.0925677
-6.6935
6.68498
-0.0778386
0.0863576
-6.6756
6.66599
-0.0724333
0.0820384
-6.65737
6.65105
-0.0667186
0.0730383
-6.64766
6.64674
-0.057505
0.058426
-6.64713
6.64765
-0.0447851
0.0442624
-6.64769
6.64712
-0.0277579
0.028331
-6.64641
6.64656
-0.00536164
0.00521686
-6.64881
6.65425
0.027505
-0.032952
-6.66297
6.6744
0.0571585
-0.0685881
-6.6877
6.70137
0.0660173
-0.0796807
-6.71451
6.72756
0.0821769
-0.095226
-6.74091
6.75504
0.119325
-0.13345
-6.77064
6.78825
0.136203
-0.153808
-6.80782
6.82957
0.129111
-0.150866
-6.85392
6.88133
0.142548
-0.169963
-6.91078
6.93823
0.168713
-0.196158
-6.95966
6.97698
0.203929
-0.221241
-6.99331
7.00897
0.230286
-0.245942
-7.02188
7.03127
0.176117
-0.185504
-7.03976
7.04667
0.124036
-0.130947
-7.05253
7.05793
0.092613
-0.098011
-7.064
7.06983
0.00999125
-0.0158208
-7.07045
7.07361
-0.0826215
0.0794664
-0.0919281
0.160485
-0.0685569
0.0643717
-0.0618147
0.233435
-0.235992
0.0436883
-0.0214507
0.295465
-0.317703
-0.000653426
0.0196571
0.221173
-0.240177
-0.0350366
0.0472798
0.0482481
-0.0604913
-0.0570277
0.060212
-0.172695
0.169511
-0.0523649
0.0342205
-0.358533
0.376678
-0.0119628
-0.0160896
-0.518907
0.54696
0.0444763
-0.0603131
-0.555004
0.570841
0.0525951
-0.011795
-0.62084
0.58004
-0.0475007
0.106937
-0.576969
0.517532
-0.160357
0.210523
-0.356406
0.30624
-0.258872
0.299714
-0.112864
0.0720222
-0.333193
0.356854
0.0072427
-0.0309037
-0.367296
0.495155
-0.0487205
-0.0791386
-1.33767
3.12251
3.44657
-5.23141
-3.24231
3.38944
5.98091
-6.12805
-3.56624
3.75294
5.90113
-6.08784
-3.94845
4.15126
5.70751
-5.91032
-4.35813
4.56486
5.31459
-5.52132
-4.76768
4.95868
4.71294
-4.90394
-5.1361
5.29526
3.94757
-4.10672
-5.43403
5.55397
3.11935
-3.23929
-5.65552
5.7471
2.33109
-2.42266
-5.83118
5.91253
1.62271
-1.70407
-5.9946
6.07986
0.997627
-1.08289
-6.17
6.26538
0.447073
-0.542452
-6.36359
6.45797
0.0292024
-0.123575
-6.54509
6.62071
-0.199255
0.123634
-6.68335
6.73141
-0.278905
0.230844
-6.76547
6.7883
-0.265128
0.242297
-6.80291
6.81208
-0.213291
0.204119
-6.81752
6.82024
-0.163057
0.160339
-6.82141
6.82155
-0.128413
0.128275
-6.82017
6.8171
-0.113488
0.116557
-6.81349
6.80959
-0.103642
0.107547
-6.80503
6.79939
-0.0983942
0.104036
-6.79256
6.78465
-0.0943087
0.10221
-6.77597
6.76701
-0.0912724
0.100232
-6.75883
6.75274
-0.0794845
0.0855745
-6.74939
6.74867
-0.059175
0.0598944
-6.74989
6.75167
-0.0430351
0.0412533
-6.75352
6.75504
-0.0278686
0.0263506
-6.75621
6.75739
-0.00462797
0.00344998
-6.75956
6.76474
0.0383309
-0.0435116
-6.77352
6.78494
0.0802661
-0.0916868
-6.79881
6.81358
0.093807
-0.108584
-6.82763
6.84153
0.108298
-0.12219
-6.85532
6.86933
0.147683
-0.161692
-6.88449
6.90196
0.171716
-0.18919
-6.92265
6.94704
0.17349
-0.197884
-6.97352
7.00056
0.196827
-0.223869
-7.02711
7.05316
0.223119
-0.249162
-7.07784
7.09854
0.239294
-0.259994
-7.11044
7.1157
0.258682
-0.263943
-7.11607
7.0462
0.194157
-0.124288
-6.96227
6.91946
0.139418
-0.0966093
-6.90057
6.89077
0.0994214
-0.0896177
-6.88514
6.88542
0.0196899
-0.0199666
-6.89169
6.89995
-0.0729244
0.0646668
-0.208297
0.243175
-0.0348775
0.0596811
-0.0661778
0.231712
-0.225216
0.0501138
-0.0324318
0.337714
-0.355396
0.011959
0.00769723
0.25943
-0.279086
-0.0246513