/*--------------------------------*- C++ -*----------------------------------*\
| =========                 |                                                 |
| \\      /  F ield         | OpenFOAM: The Open Source CFD Toolbox           |
|  \\    /   O peration     | Version:  v1912                                 |
|   \\  /    A nd           | Website:  www.openfoam.com                      |
|    \\/     M anipulation  |                                                 |
\*---------------------------------------------------------------------------*/
FoamFile
{
    version     2.0;
    format      ascii;
    class       volVectorField;
    location    "42";
    object      U;
}
// * * * * * * * * * * * * * * * * * * * * * * * * * * * * * * * * * * * * * //

dimensions      [0 1 -1 0 0 0 0];


internalField   nonuniform List<vector> 
20320
(
(1.85506 0.00629536 0)
(1.85373 -0.00540443 0)
(1.83829 0.00416438 0)
(1.80883 0.0121869 0)
(1.76793 0.0195693 0)
(1.7165 0.0264595 0)
(1.65487 0.0328401 0)
(1.58326 0.0387998 0)
(1.50219 0.0445105 0)
(1.4121 0.0498943 0)
(1.31367 0.0548631 0)
(1.20736 0.0596054 0)
(1.09365 0.0642556 0)
(0.973264 0.068253 0)
(0.846754 0.0724077 0)
(0.714502 0.0763487 0)
(0.576308 0.0816782 0)
(0.430964 0.0899953 0)
(0.275462 0.103037 0)
(0.103388 0.116668 0)
(1.8552 0.0112767 0)
(1.84662 0.0356672 0)
(1.82734 0.0667409 0)
(1.79709 0.0978506 0)
(1.75581 0.128404 0)
(1.70378 0.158261 0)
(1.64139 0.187283 0)
(1.56905 0.215286 0)
(1.48709 0.242104 0)
(1.39597 0.267654 0)
(1.29613 0.291846 0)
(1.18804 0.314495 0)
(1.07213 0.335509 0)
(0.948851 0.35469 0)
(0.818734 0.37183 0)
(0.682366 0.386668 0)
(0.540515 0.399258 0)
(0.39455 0.410502 0)
(0.24647 0.423446 0)
(0.0991635 0.458796 0)
(1.85519 0.0170576 0)
(1.8467 0.0699022 0)
(1.82715 0.125465 0)
(1.79664 0.180464 0)
(1.75533 0.234616 0)
(1.70337 0.287558 0)
(1.641 0.338954 0)
(1.56852 0.388485 0)
(1.48635 0.435878 0)
(1.39497 0.480909 0)
(1.29493 0.523419 0)
(1.18683 0.563351 0)
(1.07127 0.600659 0)
(0.948739 0.635214 0)
(0.819658 0.666688 0)
(0.684427 0.69446 0)
(0.543542 0.71762 0)
(0.397812 0.735528 0)
(0.248771 0.749618 0)
(0.100545 0.784962 0)
(1.85519 0.0228435 0)
(1.84694 0.0997926 0)
(1.82776 0.179099 0)
(1.79759 0.257519 0)
(1.75658 0.33462 0)
(1.70494 0.409979 0)
(1.64288 0.483164 0)
(1.57066 0.553749 0)
(1.48862 0.6213 0)
(1.39716 0.68541 0)
(1.2968 0.745725 0)
(1.18817 0.802011 0)
(1.07203 0.854205 0)
(0.949178 0.902365 0)
(0.820348 0.946466 0)
(0.686064 0.986025 0)
(0.54668 1.01976 0)
(0.402519 1.04571 0)
(0.254002 1.06315 0)
(0.103385 1.09709 0)
(1.85519 0.0283114 0)
(1.84707 0.127817 0)
(1.82821 0.22942 0)
(1.79852 0.329962 0)
(1.75811 0.428922 0)
(1.70716 0.525787 0)
(1.64584 0.620026 0)
(1.57436 0.711099 0)
(1.493 0.79845 0)
(1.40212 0.881504 0)
(1.30214 0.959702 0)
(1.1936 1.03255 0)
(1.07718 1.09968 0)
(0.953706 1.16098 0)
(0.824145 1.21655 0)
(0.689368 1.26637 0)
(0.549964 1.30947 0)
(0.406159 1.34348 0)
(0.257831 1.3661 0)
(0.10546 1.40167 0)
(1.85519 0.0334507 0)
(1.84728 0.154286 0)
(1.82889 0.276993 0)
(1.79992 0.398533 0)
(1.76043 0.518315 0)
(1.71054 0.635755 0)
(1.65034 0.750234 0)
(1.58 0.861111 0)
(1.49973 0.96771 0)
(1.40979 1.06931 0)
(1.31056 1.16518 0)
(1.20248 1.2546 0)
(1.08612 1.33691 0)
(0.962246 1.41166 0)
(0.831785 1.47873 0)
(0.695797 1.53824 0)
(0.555191 1.58979 0)
(0.410437 1.63126 0)
(0.261347 1.6595 0)
(0.106754 1.69829 0)
(1.85519 0.0382215 0)
(1.84757 0.17901 0)
(1.82986 0.321475 0)
(1.80191 0.462759 0)
(1.76373 0.602226 0)
(1.71534 0.739245 0)
(1.65677 0.873132 0)
(1.58808 1.00316 0)
(1.50937 1.12854 0)
(1.42081 1.24841 0)
(1.32268 1.36185 0)
(1.21533 1.46795 0)
(1.09923 1.5658 0)
(0.975049 1.65458 0)
(0.843629 1.73378 0)
(0.706068 1.80337 0)
(0.563497 1.86324 0)
(0.416698 1.91179 0)
(0.265651 1.94553 0)
(0.107739 1.9872 0)
(1.85519 0.0425794 0)
(1.84798 0.201784 0)
(1.83118 0.362512 0)
(1.80462 0.522152 0)
(1.76821 0.680063 0)
(1.72189 0.835602 0)
(1.66557 0.988048 0)
(1.59915 1.13661 0)
(1.52262 1.28037 0)
(1.436 1.41835 0)
(1.33942 1.54944 0)
(1.23313 1.67252 0)
(1.11749 1.78641 0)
(0.993031 1.88996 0)
(0.860536 1.98222 0)
(0.721076 2.06275 0)
(0.575958 2.13143 0)
(0.42636 2.18709 0)
(0.272758 2.22618 0)
(0.110941 2.26983 0)
(1.85519 0.0464741 0)
(1.84851 0.222377 0)
(1.83292 0.399701 0)
(1.80818 0.576157 0)
(1.77413 0.751145 0)
(1.73056 0.924056 0)
(1.67723 1.09416 0)
(1.61388 1.26063 0)
(1.54031 1.42247 0)
(1.45636 1.57852 0)
(1.36196 1.72753 0)
(1.25719 1.86812 0)
(1.14226 1.99883 0)
(1.01758 2.11816 0)
(0.883804 2.22469 0)
(0.741952 2.3174 0)
(0.593424 2.39588 0)
(0.43971 2.45912 0)
(0.281754 2.50361 0)
(0.11325 2.54812 0)
(1.85519 0.0498518 0)
(1.84918 0.240532 0)
(1.83514 0.432586 0)
(1.81274 0.624138 0)
(1.78171 0.81468 0)
(1.7417 1.00369 0)
(1.69229 1.19048 0)
(1.633 1.37421 0)
(1.56339 1.55383 0)
(1.48306 1.72806 0)
(1.3917 1.89543 0)
(1.28913 2.05434 0)
(1.17534 2.203 0)
(1.05057 2.33951 0)
(0.915305 2.46193 0)
(0.770486 2.56857 0)
(0.617585 2.65842 0)
(0.45845 2.73034 0)
(0.294609 2.7807 0)
(0.116954 2.82492 0)
(1.85519 0.052658 0)
(1.85002 0.255982 0)
(1.83789 0.460691 0)
(1.8184 0.665416 0)
(1.79117 0.869799 0)
(1.75567 1.07346 0)
(1.71126 1.27583 0)
(1.65723 1.4761 0)
(1.59285 1.6732 0)
(1.5174 1.86576 0)
(1.43024 2.05214 0)
(1.33086 2.23046 0)
(1.21894 2.39859 0)
(1.0944 2.55417 0)
(0.957518 2.69468 0)
(0.809067 2.81761 0)
(0.650546 2.92111 0)
(0.484204 3.00351 0)
(0.312299 3.06085 0)
(0.122208 3.10319 0)
(1.8552 0.0548424 0)
(1.85103 0.268464 0)
(1.84119 0.483539 0)
(1.82524 0.699296 0)
(1.80263 0.915587 0)
(1.77269 1.13225 0)
(1.73454 1.34888 0)
(1.6872 1.5648 0)
(1.62961 1.77899 0)
(1.56068 1.99003 0)
(1.47932 2.19615 0)
(1.38458 2.39523 0)
(1.27567 2.58477 0)
(1.15208 2.76192 0)
(1.01369 2.92346 0)
(0.860965 3.06593 0)
(0.695339 3.18626 0)
(0.519444 3.28185 0)
(0.336427 3.34796 0)
(0.128767 3.38723 0)
(1.8552 0.0563644 0)
(1.8522 0.277748 0)
(1.84506 0.500708 0)
(1.83324 0.725136 0)
(1.81613 0.951158 0)
(1.79286 1.1789 0)
(1.76236 1.40822 0)
(1.72337 1.63864 0)
(1.67445 1.86929 0)
(1.61408 2.09881 0)
(1.54067 2.3254 0)
(1.45265 2.54674 0)
(1.34859 2.76004 0)
(1.2273 2.96192 0)
(1.088 3.1484 0)
(0.930622 3.31485 0)
(0.756281 3.4566 0)
(0.567969 3.56944 0)
(0.369986 3.64712 0)
(0.138102 3.68178 0)
(1.8552 0.0571984 0)
(1.85353 0.283666 0)
(1.84942 0.511865 0)
(1.84232 0.742405 0)
(1.83153 0.975731 0)
(1.81607 1.21233 0)
(1.79468 1.45239 0)
(1.76584 1.69577 0)
(1.72778 1.94187 0)
(1.6785 2.18955 0)
(1.61581 2.43709 0)
(1.53743 2.68218 0)
(1.44104 2.92185 0)
(1.32446 3.15228 0)
(1.18585 3.36874 0)
(1.02407 3.56524 0)
(0.839493 3.73505 0)
(0.635229 3.87144 0)
(0.416992 3.96575 0)
(0.151097 3.99503 0)
(1.85521 0.0573384 0)
(1.85497 0.286129 0)
(1.85418 0.516819 0)
(1.85229 0.750751 0)
(1.84855 0.988717 0)
(1.84193 1.23162 0)
(1.83108 1.48006 0)
(1.81427 1.73435 0)
(1.78946 1.99432 0)
(1.75421 2.2592 0)
(1.70573 2.52762 0)
(1.64092 2.79755 0)
(1.55638 3.06611 0)
(1.44854 3.32937 0)
(1.3139 3.582 0)
(1.14948 3.81671 0)
(0.953847 4.02413 0)
(0.729275 4.19378 0)
(0.482351 4.31269 0)
(0.164415 4.3411 0)
(1.85521 0.0568014 0)
(1.85648 0.285158 0)
(1.85921 0.515567 0)
(1.86285 0.750078 0)
(1.86672 0.989833 0)
(1.8698 1.23617 0)
(1.87073 1.49019 0)
(1.86775 1.75272 0)
(1.85862 2.02418 0)
(1.84063 2.30443 0)
(1.81047 2.59271 0)
(1.76424 2.88763 0)
(1.69737 3.18692 0)
(1.6046 3.4871 0)
(1.4801 3.78293 0)
(1.31781 4.06629 0)
(1.11276 4.32512 0)
(0.864343 4.54366 0)
(0.579523 4.70126 0)
(0.193446 4.73588 0)
(1.85521 0.0556278 0)
(1.85802 0.280886 0)
(1.86431 0.508311 0)
(1.87365 0.740589 0)
(1.88542 0.979177 0)
(1.89875 1.22585 0)
(1.91241 1.4822 0)
(1.92472 1.74966 0)
(1.93351 2.02936 0)
(1.93598 2.32195 0)
(1.92857 2.62762 0)
(1.90684 2.94604 0)
(1.8652 3.27621 0)
(1.79669 3.61605 0)
(1.69267 3.9617 0)
(1.54273 4.3058 0)
(1.33551 4.63485 0)
(1.06282 4.92726 0)
(0.727564 5.15023 0)
(0.247931 5.20987 0)
(1.85522 0.0538795 0)
(1.85952 0.273564 0)
(1.86932 0.495467 0)
(1.88427 0.722802 0)
(1.90396 0.957278 0)
(1.9277 1.20104 0)
(1.95454 1.45616 0)
(1.9831 1.72467 0)
(2.01149 2.00843 0)
(2.03717 2.30903 0)
(2.05674 2.6278 0)
(2.0657 2.96588 0)
(2.05807 3.32417 0)
(2.0258 3.70314 0)
(1.95785 4.10225 0)
(1.83895 4.51802 0)
(1.64864 4.93982 0)
(1.36321 5.34381 0)
(0.967625 5.68236 0)
(0.352241 5.81762 0)
(1.85522 0.0516352 0)
(1.86093 0.263541 0)
(1.87403 0.477641 0)
(1.89433 0.697541 0)
(1.92161 0.925103 0)
(1.95549 1.16276 0)
(1.99539 1.41294 0)
(2.0404 1.67821 0)
(2.0892 1.96113 0)
(2.13984 2.26417 0)
(2.1896 2.58985 0)
(2.23468 2.94091 0)
(2.26973 3.32053 0)
(2.28705 3.73258 0)
(2.27519 4.18175 0)
(2.21627 4.67261 0)
(2.08163 5.20567 0)
(1.82629 5.76852 0)
(1.39036 6.31415 0)
(0.597464 6.64631 0)
(1.85522 0.048985 0)
(1.8622 0.251238 0)
(1.8783 0.455584 0)
(1.90347 0.665866 0)
(1.93773 0.883994 0)
(1.98104 1.11255 0)
(2.03327 1.35421 0)
(2.0941 1.61188 0)
(2.16296 1.88865 0)
(2.23885 2.18771 0)
(2.3202 2.51256 0)
(2.40466 2.86728 0)
(2.48875 3.2571 0)
(2.56719 3.68916 0)
(2.63162 4.17382 0)
(2.66773 4.72618 0)
(2.64884 5.36618 0)
(2.52266 6.11572 0)
(2.17788 6.98868 0)
(1.32079 7.81772 0)
(0.212228 -0.104478 0)
(0.410628 -0.0671646 0)
(0.705725 -0.0463836 0)
(0.948189 -0.0349803 -7.21628e-22)
(1.01409 0.025422 0)
(0.774984 0.0284826 0)
(0.736611 -0.00934506 0)
(0.591963 0.0472777 0)
(0.101542 0.159035 0)
(-1.50512 0.859806 1.80415e-20)
(-5.15553 -0.993746 0)
(-5.32376 0.148793 0)
(-5.14421 -0.219331 5.99082e-21)
(-3.19053 -0.466566 8.12819e-21)
(-1.75617 -0.267237 0)
(-1.4371 0.125662 3.31829e-21)
(-3.00141 0.374918 5.99266e-21)
(-4.76985 0.187887 -3.9343e-20)
(-6.03051 -0.00288941 0)
(-6.32039 2.11365 -4.51231e-19)
(4.88582 -1.45765 8.48325e-20)
(17.7376 -2.2185 -8.56205e-19)
(30.0405 -2.44932 1.73511e-18)
(35.8946 -1.56279 -7.52841e-18)
(39.381 -0.632333 0)
(39.3358 0.0548366 -7.75921e-18)
(42.3701 0.502044 0)
(29.9723 7.8225 -1.14498e-18)
(25.8932 0.591915 4.17792e-20)
(24.7905 0.0805106 0)
(24.4221 0.0189735 2.7579e-21)
(24.2082 0.0111584 -1.94157e-21)
(24.0593 0.00305864 6.32991e-22)
(24.0139 -0.0313906 -5.87584e-22)
(24.0056 -0.00839575 0)
(23.9055 0.0424841 0)
(23.7708 0.0288903 1.12961e-22)
(23.7194 -0.0435029 0)
(23.8784 -0.109805 1.64737e-21)
(23.9399 -0.0091002 0)
(23.7357 0.155761 0)
(23.5092 0.0531278 -5.71664e-22)
(23.5765 -0.168355 0)
(23.8612 -0.0651497 0)
(23.6917 0.0328197 -2.22861e-22)
(23.7362 -0.0634402 1.52885e-21)
(23.9281 0.0433152 0)
(23.5818 0.160112 -3.68881e-22)
(23.5711 0.00432219 5.63806e-23)
(23.8269 -0.205745 7.77518e-22)
(24.2899 -0.234317 0)
(24.2839 0.0209342 -5.57493e-23)
(23.6716 0.36655 0)
(23.6904 -0.00580788 -4.08842e-23)
(24.4485 -0.432102 0)
(25.5809 -0.493016 0)
(24.9375 0.154395 -6.09482e-24)
(25.0108 -0.0488315 -1.91223e-24)
(25.2345 -0.00712343 0)
(25.2267 0.0606514 0)
(0.180488 -0.269561 0)
(0.366135 -0.159382 0)
(0.534124 -0.150166 1.0564e-21)
(0.708887 -0.136429 0)
(0.761601 0.0439132 0)
(0.577986 0.136861 -1.03875e-21)
(0.391952 0.058324 -8.33725e-22)
(0.128375 0.192027 0)
(-0.324412 0.408276 1.68284e-23)
(-1.01843 1.09661 7.29178e-21)
(-2.06736 1.18256 3.96324e-23)
(-3.54109 0.0151157 9.27629e-20)
(-2.62641 -0.494436 1.88328e-20)
(-2.56141 -0.764633 0)
(-2.27872 -0.528044 0)
(-2.34688 0.166458 6.57336e-21)
(-2.89681 0.79783 0)
(-17.3266 3.37986 0)
(15.5841 -7.72013 4.60135e-21)
(17.2191 -7.11661 0)
(18.6341 -5.67805 0)
(20.5951 -4.15639 0)
(22.0002 -3.20982 6.38212e-20)
(23.0543 -2.15924 -6.23669e-20)
(24.025 -1.14728 5.28369e-20)
(24.7382 -0.232281 3.36407e-20)
(24.6845 1.12507 0)
(25.6007 1.97719 0)
(25.9506 1.01818 1.72908e-20)
(25.4702 0.402861 1.28696e-23)
(25.1066 0.197278 0)
(24.8683 0.123378 -5.79283e-24)
(24.7119 0.0766977 -1.29975e-21)
(24.5962 0.0352731 0)
(24.496 0.0390382 0)
(24.4179 0.0602643 -2.80483e-23)
(24.3599 0.0502247 0)
(24.3154 -0.00451133 0)
(24.2531 -0.0314461 0)
(24.1803 0.026729 4.37599e-22)
(24.1371 0.095034 1.34794e-22)
(24.1134 0.048635 2.44644e-22)
(24.074 -0.0476242 -1.58362e-25)
(24.0076 -0.0253612 0)
(24.0413 0.0138554 2.76986e-22)
(24.0706 -0.0545632 0)
(24.0393 0.0141169 2.87839e-22)
(24.1115 0.0717135 6.06806e-22)
(24.214 -0.0830115 4.32792e-22)
(24.3051 -0.137048 -2.15699e-22)
(24.3299 -0.0773743 3.06154e-22)
(24.3101 0.0587072 1.12903e-22)
(24.4555 0.156299 -2.02711e-21)
(24.6468 -0.171191 0)
(24.7648 -0.301452 0)
(24.7927 -0.168912 0)
(25.0028 -0.0470351 0)
(25.1364 -0.0542236 1.65618e-22)
(25.1438 0.0128501 -3.37597e-23)
(25.1146 0.0944201 0)
(0.0238731 -0.27766 0)
(0.269882 -0.24994 3.49211e-22)
(0.434859 -0.229675 0)
(0.550033 -0.217632 2.25581e-21)
(0.57181 0.0114988 1.48814e-21)
(0.416552 0.249056 9.35477e-22)
(0.16136 0.180313 0)
(-0.183023 0.333507 9.65603e-22)
(-0.536644 0.61963 0)
(-1.87753 1.09537 0)
(-1.67151 1.69351 0)
(-1.45591 0.472535 0)
(-1.75362 -0.318036 0)
(-2.01382 -0.735241 0)
(-2.24641 -0.598274 0)
(-2.70282 0.46835 0)
(-15.8703 10.9537 0)
(17.9237 -10.4474 1.84607e-19)
(17.5236 -8.83488 0)
(18.0773 -7.70164 0)
(18.9235 -6.27435 0)
(20.1142 -4.89914 0)
(21.239 -3.78768 0)
(22.0609 -2.67444 0)
(22.7617 -1.60164 0)
(23.2744 -0.577267 0)
(23.6982 0.703056 0)
(24.6198 1.48914 0)
(25.2521 1.10323 1.15503e-20)
(25.1949 0.613626 0)
(24.9644 0.357057 -3.68029e-21)
(24.7594 0.232229 0)
(24.6063 0.1555 0)
(24.4823 0.104043 0)
(24.3742 0.0898458 0)
(24.2926 0.0951453 0)
(24.2334 0.0806655 -7.47486e-23)
(24.173 0.0417762 0)
(24.0876 0.0232763 0)
(24.0071 0.0575028 0)
(23.9713 0.0932084 -2.34256e-22)
(23.9585 0.0649934 -4.75564e-23)
(23.9195 0.00543168 8.019e-23)
(23.867 -0.00577998 0)
(23.886 -0.00659981 3.73511e-23)
(23.9082 -0.0454363 0)
(23.916 -0.01061 0)
(24.0222 -0.00988508 0)
(24.1251 -0.121956 0)
(24.1699 -0.146648 -1.42704e-22)
(24.2004 -0.0693961 0)
(24.2999 0.00247206 -2.1368e-22)
(24.5374 -0.0233855 0)
(24.7131 -0.232793 0)
(24.7797 -0.314853 -1.65248e-22)
(24.8473 -0.225899 3.39214e-23)
(24.9771 -0.126437 -2.08743e-22)
(25.0781 -0.0864801 8.62045e-23)
(25.0972 0.0141624 0)
(25.0742 0.13364 3.50739e-24)
(0.091741 -0.184915 0)
(0.13398 -0.356912 0)
(0.325484 -0.326347 0)
(0.454627 -0.267197 0)
(0.386894 -0.0307544 -4.38345e-21)
(0.245351 0.331712 0)
(-0.0146659 0.355303 0)
(-0.423058 0.496377 2.28591e-23)
(-0.850288 0.776956 0)
(-1.98968 2.09137 6.30411e-22)
(-0.943632 1.23055 -3.7289e-21)
(-0.911352 0.657129 0)
(-1.02904 -0.0193895 0)
(-1.36633 -0.501417 2.2957e-23)
(-1.85856 -0.427515 -3.494e-23)
(-2.98549 0.66131 -3.83161e-22)
(-3.31981 4.32509 9.52841e-19)
(16.7137 -10.0067 0)
(17.2789 -9.2571 1.43889e-20)
(18.0616 -8.30599 0)
(19.0186 -7.07848 -1.51566e-22)
(20.0686 -5.7381 1.65326e-22)
(21.0321 -4.47137 -1.52897e-22)
(21.7662 -3.24801 3.8349e-20)
(22.3497 -2.08017 -3.31138e-20)
(22.7873 -0.969711 0)
(23.2236 0.193455 0)
(23.9481 0.982276 -4.19879e-23)
(24.5503 0.988916 2.68047e-23)
(24.6894 0.707501 0)
(24.5923 0.478409 3.5854e-21)
(24.4534 0.330658 0)
(24.3331 0.231921 0)
(24.2293 0.167917 0)
(24.1357 0.139996 -9.58981e-22)
(24.0614 0.131689 0)
(24.0027 0.114658 0)
(23.9385 0.0846139 1.27337e-24)
(23.8555 0.0696458 -3.03079e-22)
(23.7813 0.0856818 2.84396e-22)
(23.7487 0.101529 4.016e-22)
(23.7394 0.078741 0)
(23.7144 0.0327099 -5.92727e-23)
(23.6835 0.00377903 0)
(23.6985 -0.0222454 -1.43784e-23)
(23.7354 -0.0548066 1.05884e-22)
(23.7855 -0.0472073 0)
(23.8873 -0.0695407 1.94124e-22)
(23.9833 -0.153949 0)
(24.0449 -0.173912 -9.57948e-23)
(24.1289 -0.121254 -7.94779e-23)
(24.2797 -0.092472 2.25423e-22)
(24.5062 -0.140767 -4.65753e-22)
(24.673 -0.285957 -5.804e-22)
(24.7684 -0.35194 0)
(24.8482 -0.275121 1.07647e-22)
(24.933 -0.185069 1.03944e-22)
(25.0109 -0.122136 -5.57542e-23)
(25.0489 0.00818305 0)
(25.038 0.154969 0)
(0.0501337 -0.148688 -1.08e-21)
(0.1262 -0.414571 -6.09625e-22)
(0.265532 -0.421534 0)
(0.362495 -0.310765 2.32552e-21)
(0.280659 -0.0405677 -4.22821e-21)
(0.137927 0.346805 0)
(-0.0538242 0.529514 0)
(-0.495382 0.693605 1.31809e-23)
(-0.95847 0.920289 -1.20942e-23)
(-1.07207 1.60045 -4.21153e-20)
(-0.527686 1.33448 1.01967e-20)
(-0.427866 0.768652 -1.66559e-23)
(-0.371622 0.194437 -1.62213e-21)
(-0.589112 -0.220793 0)
(-1.08522 -0.149381 -2.72534e-23)
(-2.96635 2.21502 5.6487e-19)
(15.7475 -11.027 0)
(16.317 -10.4354 -2.15114e-20)
(17.2371 -9.85942 -1.78651e-20)
(18.2469 -9.01792 0)
(19.2625 -7.85928 2.48253e-20)
(20.2243 -6.50054 -1.39411e-22)
(21.0361 -5.11424 0)
(21.6394 -3.77585 0)
(22.0976 -2.51793 2.84645e-20)
(22.458 -1.3482 7.16679e-23)
(22.8286 -0.238956 0)
(23.3663 0.559811 0)
(23.8693 0.798524 3.27396e-23)
(24.0939 0.710361 0)
(24.1092 0.546534 -6.05477e-21)
(24.0559 0.400496 -5.7407e-24)
(23.994 0.290523 1.37484e-21)
(23.9334 0.218691 -1.91619e-21)
(23.871 0.182359 1.11743e-21)
(23.8158 0.164893 5.01961e-22)
(23.7664 0.147474 0)
(23.7082 0.125443 -6.75582e-26)
(23.6349 0.112619 0)
(23.5708 0.112217 -2.53572e-22)
(23.5448 0.108915 -1.97966e-22)
(23.5429 0.0865421 -4.59656e-23)
(23.5338 0.0489859 1.33387e-23)
(23.5213 0.00936517 2.49892e-23)
(23.5414 -0.0389178 -5.19782e-24)
(23.597 -0.0823572 1.00107e-22)
(23.6746 -0.0918553 -3.834e-22)
(23.772 -0.122669 6.05552e-25)
(23.8697 -0.195498 2.02577e-22)
(23.9621 -0.220454 -1.45118e-22)
(24.0781 -0.1927 1.47566e-22)
(24.2458 -0.198774 0)
(24.4621 -0.250834 4.22806e-22)
(24.6215 -0.349692 -4.34125e-22)
(24.7369 -0.405377 0)
(24.8245 -0.317196 1.71603e-22)
(24.8815 -0.223591 9.41904e-23)
(24.9391 -0.158931 1.50928e-26)
(24.9885 -0.00599059 0)
(24.988 0.162397 -1.40499e-23)
(-0.155085 -0.0339606 -1.46081e-22)
(0.0542823 -0.439894 0)
(0.19069 -0.507781 -1.08471e-23)
(0.285731 -0.378168 0)
(0.235684 -0.0602588 0)
(0.0879356 0.339007 4.44434e-21)
(-0.0980969 0.642305 0)
(-0.494034 0.888089 -3.84601e-21)
(-0.858028 1.02053 8.68829e-21)
(-0.843745 1.37287 -1.14579e-20)
(-0.350962 1.27566 -4.63021e-21)
(0.00029692 0.784426 -4.71422e-21)
(0.286877 0.269559 4.9851e-21)
(0.307411 -0.032613 -1.93725e-21)
(-0.0319535 0.17323 0)
(-3.18586 4.69466 -7.37594e-19)
(15.4446 -11.0845 0)
(16.4397 -11.0065 0)
(17.5097 -10.5659 4.36047e-20)
(18.6008 -9.7767 0)
(19.6033 -8.62662 0)
(20.4448 -7.20825 -3.22013e-20)
(21.0701 -5.69903 -6.66211e-20)
(21.4894 -4.24433 0)
(21.7933 -2.90707 -2.47241e-20)
(22.0604 -1.69779 0)
(22.3685 -0.609375 1.17297e-20)
(22.7939 0.201482 0)
(23.2327 0.577875 1.02412e-20)
(23.5169 0.642164 0)
(23.6358 0.554252 -2.1604e-21)
(23.6785 0.427318 1.52657e-21)
(23.6885 0.318481 0)
(23.6818 0.246175 -9.2573e-22)
(23.6572 0.210426 6.10984e-22)
(23.6255 0.189938 -2.69471e-22)
(23.5898 0.175661 -2.06459e-24)
(23.5413 0.161753 -2.47672e-23)
(23.4782 0.152169 1.01891e-22)
(23.4216 0.13709 3.15451e-25)
(23.4026 0.113276 0)
(23.4102 0.0871734 4.8794e-23)
(23.4159 0.0551725 -2.09228e-23)
(23.4177 0.0104519 0)
(23.4432 -0.0594545 3.42884e-25)
(23.5117 -0.12322 -8.96528e-23)
(23.6062 -0.142858 3.15348e-22)
(23.7016 -0.174311 2.97915e-22)
(23.8015 -0.247972 -2.95959e-22)
(23.9126 -0.284718 -1.8417e-22)
(24.0475 -0.276033 2.04267e-22)
(24.2198 -0.308891 1.77655e-22)
(24.4267 -0.360162 -3.93992e-22)
(24.5814 -0.418366 0)
(24.6934 -0.466208 3.03057e-22)
(24.7752 -0.351276 0)
(24.8282 -0.247259 5.24603e-23)
(24.8659 -0.18345 0)
(24.9015 -0.0225409 0)
(24.9151 0.161495 0)
(-0.349902 0.255802 -3.44324e-22)
(0.0058406 -0.457293 0)
(0.174099 -0.596884 0)
(0.250362 -0.448605 -2.79808e-21)
(0.19361 -0.105587 0)
(0.0585836 0.333523 0)
(-0.165432 0.716494 0)
(-0.462738 1.04357 0)
(-0.669146 1.09929 0)
(-0.627646 1.16393 0)
(-0.169757 1.06683 0)
(0.377538 0.648702 -2.74372e-21)
(0.898543 0.189241 0)
(1.23515 -0.0239091 0)
(1.09435 -0.0193388 1.19822e-19)
(13.7534 -8.72578 0)
(15.7021 -11.7575 5.25938e-24)
(16.8155 -11.6609 0)
(17.944 -11.2983 -7.12972e-23)
(19.0245 -10.5394 0)
(19.9419 -9.35759 0)
(20.6014 -7.83938 -3.39268e-20)
(20.9781 -6.18866 -3.37542e-20)
(21.159 -4.63115 2.93652e-20)
(21.2961 -3.2538 -2.15302e-20)
(21.4866 -2.04704 0)
(21.7962 -0.984002 3.79331e-23)
(22.2401 -0.159988 1.98836e-23)
(22.7177 0.302979 0)
(23.1039 0.492394 -1.10374e-21)
(23.3452 0.492735 0)
(23.4712 0.404246 -9.71327e-22)
(23.5333 0.312311 8.97081e-25)
(23.5583 0.247511 -1.14183e-21)
(23.557 0.219844 0)
(23.5371 0.201354 5.43669e-22)
(23.5091 0.192077 -4.20473e-22)
(23.4646 0.185631 -2.89354e-22)
(23.4066 0.181384 -3.64524e-23)
(23.356 0.158198 1.97555e-22)
(23.3408 0.116461 0)
(23.3547 0.0830342 1.18088e-22)
(23.3724 0.0536657 2.38202e-22)
(23.3872 0.0082495 8.18736e-25)
(23.4153 -0.0786872 0)
(23.4848 -0.166595 9.37739e-23)
(23.5812 -0.194667 -5.22427e-22)
(23.6822 -0.219511 2.36698e-22)
(23.7827 -0.29561 0)
(23.889 -0.343688 1.37688e-22)
(24.0307 -0.345096 0)
(24.2152 -0.391264 0)
(24.3962 -0.438507 0)
(24.5704 -0.443726 0)
(24.6468 -0.489697 0)
(24.6543 -0.36337 0)
(24.0124 -0.276581 0)
(23.8704 -0.205925 2.29723e-22)
(23.8299 -0.0548444 3.11709e-22)
(23.8594 0.122479 -1.79454e-22)
(-0.292711 0.444266 0)
(-0.00476343 -0.441362 2.55031e-23)
(0.180664 -0.672177 -1.71796e-21)
(0.240538 -0.521142 -2.5921e-21)
(0.179982 -0.15356 0)
(0.0332857 0.314758 0)
(-0.199882 0.776588 0)
(-0.446086 1.10543 -6.57656e-21)
(-0.526027 1.13735 0)
(-0.412005 1.02468 0)
(0.0418678 0.816666 0)
(0.702149 0.407362 9.68952e-23)
(1.41461 -0.0436939 0)
(2.03841 -0.230039 0)
(2.1065 -0.0764038 -1.73801e-19)
(14.9576 -12.1853 0)
(16.1299 -12.3579 0)
(17.2987 -12.3306 0)
(18.4183 -12.0244 -2.79923e-20)
(19.4279 -11.2714 -3.12701e-20)
(20.1798 -10.0147 0)
(20.5563 -8.3499 -3.88842e-20)
(20.5867 -6.59877 -3.56683e-20)
(20.502 -4.97332 -1.91338e-20)
(20.5328 -3.49996 -8.49495e-21)
(20.7462 -2.27188 0)
(21.1338 -1.21254 0)
(21.727 -0.383802 0)
(22.3632 0.110318 0)
(22.8686 0.372063 0)
(23.201 0.410984 0)
(23.3627 0.375799 -2.49722e-20)
(23.3914 0.307187 0)
(23.3354 0.255452 0)
(23.2236 0.242943 6.61667e-21)
(23.1991 0.226624 5.21074e-21)
(23.2188 0.222714 -5.46987e-23)
(23.2647 0.221909 0)
(23.2911 0.211972 0)
(23.2986 0.175674 0)
(23.3027 0.119529 0)
(23.3204 0.0794334 0)
(23.3434 0.0500328 0)
(23.3737 0.00511013 0)
(23.4242 -0.0848409 0)
(23.4812 -0.182915 0)
(23.5516 -0.223029 0)
(23.6534 -0.257766 0)
(23.7657 -0.330507 0)
(23.8325 -0.389442 -6.52172e-21)
(23.303 -0.474358 0)
(23.0987 -0.589029 0)
(23.0221 -0.613936 0)
(22.7943 -0.28223 0)
(22.5241 -0.397803 7.02524e-22)
(22.2668 -0.153323 0)
(22.1904 -0.110376 0)
(22.0986 -0.136783 0)
(22.0602 -0.0374335 0)
(22.115 0.0903283 -8.3179e-23)
(-0.36064 0.55357 -1.50851e-21)
(-0.00596062 -0.442118 0)
(0.198845 -0.726908 -4.16511e-21)
(0.242284 -0.594096 0)
(0.193347 -0.209372 0)
(0.0357279 0.291021 0)
(-0.195832 0.815729 6.23284e-21)
(-0.413958 1.14281 0)
(-0.451306 1.14147 -1.18154e-20)
(-0.262422 0.903671 0)
(0.210771 0.561439 4.45617e-21)
(0.989051 0.0536145 -3.34543e-21)
(1.86711 -0.397146 0)
(2.59691 -0.549389 0)
(3.83616 -1.32553 3.49936e-18)
(15.7698 -12.6775 -4.24168e-21)
(16.6571 -12.9473 9.59988e-20)
(17.775 -12.9976 -5.51958e-20)
(18.8482 -12.722 -3.08022e-20)
(19.7247 -11.9357 0)
(20.2065 -10.5439 4.20213e-20)
(20.1415 -8.77976 -4.35405e-20)
(19.7874 -6.89267 0)
(19.7846 -5.01965 5.44797e-20)
(19.6233 -3.76599 0)
(19.5407 -2.63567 -2.42353e-20)
(19.5856 -1.69307 1.87885e-20)
(19.7666 -0.935107 0)
(20.0589 -0.329689 0)
(20.3279 0.0652476 0)
(20.4984 0.260879 -1.66211e-21)
(20.5817 0.327297 -2.98046e-21)
(20.5954 0.32358 7.35057e-21)
(20.5656 0.305978 0)
(20.5401 0.267711 -3.09318e-21)
(20.5392 0.21419 4.59467e-21)
(20.5637 0.184368 1.93906e-21)
(20.5979 0.185715 -4.4684e-21)
(20.6294 0.197121 2.52442e-21)
(20.6583 0.174205 2.04493e-21)
(20.678 0.11642 -7.83265e-22)
(20.6904 0.0656648 -2.28311e-24)
(20.7175 0.0285441 9.24498e-22)
(20.7698 -0.0263053 7.05877e-22)
(20.8404 -0.12804 7.7063e-23)
(20.8947 -0.231924 5.84542e-23)
(20.946 -0.294482 0)
(21.0168 -0.33726 5.94797e-23)
(21.064 -0.380981 -6.10037e-24)
(21.0186 -0.352218 0)
(20.9498 -0.178197 0)
(20.8589 -0.375529 0)
(20.6832 -0.398975 0)
(20.5978 -0.209001 1.78644e-21)
(20.5133 -0.258021 0)
(20.4022 -0.132502 0)
(20.447 -0.099532 1.70782e-22)
(20.4535 -0.118997 2.38104e-22)
(20.4738 -0.0570605 2.38002e-22)
(20.5591 0.0274846 1.64977e-22)
(-0.670235 0.809012 0)
(0.0203983 -0.48039 0)
(0.216686 -0.765532 0)
(0.263532 -0.666126 0)
(0.218214 -0.280868 0)
(0.0708175 0.266923 0)
(-0.153456 0.824438 0)
(-0.34385 1.18489 0)
(-0.398195 1.14266 0)
(-0.176545 0.790118 0)
(0.341965 0.304192 0)
(1.22494 -0.348852 0)
(2.16637 -0.830239 0)
(3.05099 -1.11662 0)
(13.8449 -11.0125 0)
(16.0942 -13.1632 0)
(17.0865 -13.5269 0)
(18.183 -13.6425 0)
(19.1646 -13.3662 0)
(19.8294 -12.4854 0)
(19.8987 -10.9876 0)
(20.1314 -8.48376 0)
(19.2912 -6.85308 0)
(18.7162 -5.22926 0)
(18.2747 -3.84074 0)
(17.989 -2.71141 0)
(17.8427 -1.79921 1.4317e-20)
(17.8225 -1.0928 0)
(17.9081 -0.541616 0)
(18.0433 -0.113086 0)
(18.166 0.175298 0)
(18.2445 0.298066 0)
(18.2708 0.327841 0)
(18.2624 0.320115 0)
(18.2499 0.279638 0)
(18.2384 0.218957 0)
(18.2334 0.177482 0)
(18.2383 0.171006 0)
(18.2581 0.177921 0)
(18.29 0.159756 0)
(18.3204 0.111241 0)
(18.3472 0.0573885 0)
(18.3893 0.00589132 0)
(18.456 -0.0612313 0)
(18.5327 -0.156183 0)
(18.5938 -0.251349 0)
(18.644 -0.316884 0)
(18.6941 -0.358234 0)
(18.7193 -0.375612 3.92269e-22)
(18.6913 -0.313678 1.44191e-21)
(18.7357 -0.209637 0)
(18.7549 -0.318164 0)
(18.6687 -0.330832 0)
(18.6666 -0.223414 0)
(18.6908 -0.220029 3.70205e-22)
(18.7116 -0.156386 -3.34437e-22)
(18.8108 -0.136445 2.05803e-22)
(18.8882 -0.142359 0)
(18.9661 -0.101919 2.26193e-22)
(19.0801 -0.0476269 0)
(-0.680275 1.06633 1.1799e-21)
(0.0358636 -0.516807 0)
(0.218948 -0.802258 3.8036e-21)
(0.291652 -0.7383 -2.95996e-21)
(0.246488 -0.358046 0)
(0.0980708 0.223397 0)
(-0.129979 0.812637 0)
(-0.316571 1.22057 -2.83852e-21)
(-0.363269 1.16571 -7.00301e-21)
(-0.122129 0.693165 0)
(0.454899 0.0151188 4.17396e-21)
(1.32942 -0.73776 0)
(2.33568 -1.3085 0)
(3.33182 -1.79354 -4.15167e-20)
(15.2894 -12.5788 1.07002e-19)
(16.3662 -13.6027 -4.00519e-20)
(17.4415 -14.0952 -7.86476e-23)
(18.4851 -14.2492 0)
(19.3189 -13.9235 -7.35651e-20)
(19.6395 -12.9401 8.50726e-20)
(19.6385 -11.5254 1.00185e-21)
(18.8587 -8.72816 -3.17435e-20)
(17.9086 -6.8135 2.9744e-20)
(17.1021 -5.13068 2.73705e-20)
(16.4891 -3.79039 0)
(16.071 -2.7184 4.73993e-23)
(15.8373 -1.85857 1.16227e-20)
(15.7454 -1.1879 0)
(15.755 -0.661007 2.48524e-21)
(15.8284 -0.233736 -9.01021e-22)
(15.9399 0.0792629 3.37737e-21)
(16.0407 0.246811 -4.3203e-21)
(16.0983 0.31376 0)
(16.1185 0.324718 0)
(16.1199 0.292964 0)
(16.1076 0.235425 0)
(16.0889 0.187987 -2.31077e-21)
(16.0781 0.169658 2.27329e-21)
(16.0895 0.164581 8.25731e-24)
(16.1225 0.142659 2.23305e-21)
(16.1645 0.0958161 1.93503e-21)
(16.2109 0.0377506 0)
(16.2712 -0.0251425 -8.26582e-22)
(16.3491 -0.100941 0)
(16.4315 -0.192307 0)
(16.5011 -0.28022 0)
(16.5584 -0.344348 0)
(16.6083 -0.381028 0)
(16.6421 -0.383551 0)
(16.6644 -0.327034 -8.96165e-22)
(16.7545 -0.265493 0)
(16.8352 -0.314083 -7.66105e-23)
(16.853 -0.320468 -3.34827e-22)
(16.9185 -0.266073 5.09433e-22)
(17.0115 -0.249308 4.30572e-22)
(17.113 -0.216694 0)
(17.2476 -0.203408 2.46649e-22)
(17.3691 -0.198991 2.98613e-22)
(17.4866 -0.168705 0)
(17.6188 -0.130618 7.97399e-23)
(-0.607146 1.18634 -1.97445e-21)
(0.0483795 -0.519407 0)
(0.228966 -0.846713 0)
(0.318287 -0.812395 2.63426e-21)
(0.280868 -0.438166 0)
(0.131506 0.169244 -4.89831e-21)
(-0.113859 0.806648 -5.92819e-21)
(-0.3268 1.2496 0)
(-0.361405 1.18563 -1.40997e-20)
(-0.0896126 0.610571 7.13311e-21)
(0.499913 -0.220408 -1.52446e-20)
(1.38305 -1.13249 0)
(2.44413 -1.81084 0)
(7.52532 -5.2558 0)
(15.3493 -13.2359 -3.88592e-20)
(16.5681 -14.0947 -3.79194e-23)
(17.6926 -14.6534 0)
(18.6569 -14.7968 0)
(19.253 -14.3773 8.29311e-20)
(19.3652 -13.4265 0)
(18.9801 -10.9837 -1.4347e-19)
(17.2219 -8.59239 0)
(16.0415 -6.54669 2.72749e-20)
(15.0987 -4.93915 2.1744e-20)
(14.4085 -3.66918 1.72223e-20)
(13.9419 -2.66999 1.33128e-20)
(13.6725 -1.87641 0)
(13.5582 -1.25068 0)
(13.5508 -0.753093 -1.60463e-21)
(13.6137 -0.344374 0)
(13.729 -0.0283235 -3.34994e-21)
(13.8546 0.170573 -4.36396e-21)
(13.9517 0.273015 0)
(14.0132 0.309141 -4.33996e-21)
(14.0474 0.294762 -3.76521e-21)
(14.0583 0.248462 -1.22119e-23)
(14.0539 0.200938 -2.59294e-21)
(14.0521 0.171163 -2.44329e-21)
(14.0708 0.151145 0)
(14.1132 0.120239 -2.32697e-21)
(14.1707 0.070041 2.07732e-21)
(14.2378 0.00676313 -1.8467e-21)
(14.3167 -0.0646192 8.10585e-22)
(14.4067 -0.145578 -6.31638e-22)
(14.4975 -0.233618 3.84616e-22)
(14.5785 -0.315235 1.82673e-22)
(14.6489 -0.376076 0)
(14.7125 -0.409604 1.38776e-22)
(14.7713 -0.40969 -3.05739e-22)
(14.8411 -0.371633 -6.43409e-22)
(14.9603 -0.337628 0)
(15.0816 -0.35713 0)
(15.1746 -0.360915 0)
(15.2914 -0.334907 0)
(15.4281 -0.319491 0)
(15.5727 -0.300509 2.44302e-22)
(15.7279 -0.28843 2.51068e-22)
(15.8724 -0.276361 0)
(16.0096 -0.248643 7.01792e-25)
(16.1464 -0.214761 7.56751e-23)
(-0.502696 1.21478 0)
(0.100331 -0.471372 0)
(0.259793 -0.89479 -1.59241e-21)
(0.340993 -0.883272 0)
(0.314789 -0.528476 0)
(0.178534 0.10406 5.37709e-21)
(-0.0689217 0.809643 -1.171e-20)
(-0.318364 1.27264 0)
(-0.350462 1.21108 0)
(-0.100371 0.556741 4.1857e-24)
(0.503871 -0.428369 0)
(1.40019 -1.49987 0)
(2.40698 -2.51069 4.25997e-20)
(13.7468 -12.6074 -2.64895e-19)
(15.4289 -13.7404 -4.96585e-20)
(16.7093 -14.6502 -5.3296e-20)
(17.8428 -15.2011 -6.08615e-20)
(18.6782 -15.262 -8.62351e-23)
(18.9779 -14.7643 -8.01228e-20)
(19.3148 -13.1199 0)
(16.8876 -10.6215 0)
(15.2289 -8.16494 -5.27465e-20)
(13.9384 -6.21277 -4.18657e-20)
(12.9445 -4.691 3.32192e-20)
(12.2263 -3.51016 1.32316e-20)
(11.7482 -2.59501 0)
(11.4727 -1.87613 -6.98328e-21)
(11.3574 -1.305 3.86784e-21)
(11.3552 -0.842592 -1.02638e-21)
(11.4288 -0.457647 0)
(11.5565 -0.148531 -3.30413e-21)
(11.7047 0.0692807 4.3233e-21)
(11.8387 0.20151 0)
(11.9447 0.264722 -4.43393e-21)
(12.0223 0.272579 3.97198e-21)
(12.0728 0.24282 3.39427e-21)
(12.1037 0.200641 -5.85368e-21)
(12.1314 0.163549 0)
(12.1733 0.130261 -2.60079e-21)
(12.2355 0.0887151 0)
(12.3135 0.0322968 2.20668e-21)
(12.4022 -0.0364357 -5.98321e-24)
(12.5 -0.113606 8.14461e-22)
(12.6039 -0.19725 -6.43534e-22)
(12.7067 -0.282694 0)
(12.8021 -0.359836 -2.18849e-22)
(12.89 -0.418317 -1.29822e-22)
(12.9747 -0.452011 -1.87114e-24)
(13.0629 -0.457612 2.73399e-22)
(13.1696 -0.43887 0)
(13.3106 -0.422997 0)